ITEM: TIMESTEP
21
ITEM: NUMBER OF ATOMS
3584
ITEM: BOX BOUNDS pp pp ss
0.0000000000000000e+00 4.3111019472983898e+01
0.0000000000000000e+00 2.4890158697766498e+01
-3.6580800000000006e-03 3.4552298188307212e+01
ITEM: ATOMS id type xs ys zs c_peratom 
1 1 0 0.1 -0.000954296 -3.90371 
2 1 0.0166667 0.05 0.0580386 -4.40826 
3 1 0.0166667 0.15 0.0580814 -4.40738 
4 1 0 0 -0.000960101 -3.9037 
5 1 0.05 0.05 -0.000987199 -3.90381 
9 1 0 0.2 -0.000765844 -3.90361 
10 1 0.05 0.15 -0.000951825 -3.90363 
35 1 0.0333333 0 0.116793 -4.4494 
40 1 0.0333333 0.2 0.116857 -4.42426 
43 1 0.0333333 0.1 0.116805 -4.4494 
44 1 0.0666667 0.1 0.0579982 -4.40826 
45 1 0.0833333 0.05 0.116704 -4.44913 
46 1 0.0833333 0.15 0.116721 -4.44938 
47 1 0.0666667 0 0.0579879 -4.40825 
60 1 0.0666667 0.2 0.0580285 -4.4075 
48 1 0.1 0 -0.00107462 -3.90369 
49 1 0.116667 0.05 0.0578891 -4.40797 
61 1 0.1 0.2 -0.00106381 -3.90359 
62 1 0.116667 0.15 0.0578902 -4.40808 
64 1 0.1 0.1 -0.0010735 -3.90373 
65 1 0.15 0.05 -0.00116713 -3.90364 
66 1 0.15 0.15 -0.0011664 -3.90363 
153 1 0.133333 0.1 0.116601 -4.44908 
156 1 0.133333 0 0.116601 -4.44906 
157 1 0.166667 0 0.0578059 -4.40791 
158 1 0.183333 0.05 0.116533 -4.44906 
177 1 0.133333 0.2 0.116593 -4.44916 
178 1 0.166667 0.2 0.0577964 -4.40796 
179 1 0.183333 0.15 0.116529 -4.44906 
181 1 0.166667 0.1 0.0578046 -4.40791 
182 1 0.2 0.1 -0.00123075 -3.90363 
183 1 0.216667 0.05 0.0577528 -4.40792 
184 1 0.216667 0.15 0.0577493 -4.40791 
185 1 0.2 0 -0.00122697 -3.90364 
186 1 0.25 0.05 -0.00126839 -3.90364 
213 1 0.2 0.2 -0.00123413 -3.90363 
214 1 0.25 0.15 -0.00127229 -3.90364 
312 1 0.233333 0 0.116492 -4.44906 
336 1 0.233333 0.2 0.116485 -4.44907 
339 1 0.233333 0.1 0.116488 -4.44907 
340 1 0.266667 0.1 0.0577177 -4.40792 
341 1 0.283333 0.05 0.116465 -4.44906 
342 1 0.283333 0.15 0.116464 -4.44906 
343 1 0.266667 0 0.0577226 -4.40792 
374 1 0.266667 0.2 0.0577167 -4.40793 
344 1 0.3 0 -0.00128843 -3.90365 
345 1 0.316667 0.05 0.0577052 -4.40793 
375 1 0.3 0.2 -0.00129244 -3.90364 
376 1 0.316667 0.15 0.0577033 -4.40793 
378 1 0.3 0.1 -0.00129022 -3.90364 
379 1 0.35 0.05 -0.00129554 -3.90365 
380 1 0.35 0.15 -0.00129576 -3.90365 
503 1 0.333333 0.1 0.116457 -4.44907 
506 1 0.333333 0 0.116458 -4.44907 
507 1 0.366667 0 0.0577037 -4.40793 
508 1 0.383333 0.05 0.116461 -4.44907 
534 1 0.333333 0.2 0.116455 -4.44906 
535 1 0.366667 0.2 0.0577041 -4.40793 
536 1 0.383333 0.15 0.116462 -4.44907 
538 1 0.366667 0.1 0.0577044 -4.40793 
539 1 0.4 0.1 -0.00128713 -3.90367 
540 1 0.416667 0.05 0.0577147 -4.40792 
541 1 0.416667 0.15 0.0577163 -4.40792 
542 1 0.4 0 -0.00128867 -3.90367 
543 1 0.45 0.05 -0.00127255 -3.9037 
573 1 0.4 0.2 -0.00128682 -3.90368 
574 1 0.45 0.15 -0.0012696 -3.90371 
672 1 0.433333 0 0.116472 -4.44906 
696 1 0.433333 0.2 0.116476 -4.44907 
699 1 0.433333 0.1 0.116474 -4.44906 
700 1 0.466667 0.1 0.0577297 -4.40793 
701 1 0.483333 0.05 0.116485 -4.44907 
702 1 0.483333 0.15 0.116488 -4.44907 
703 1 0.466667 0 0.0577268 -4.40793 
734 1 0.466667 0.2 0.0577322 -4.40793 
704 1 0.5 0 -0.00126371 -3.90368 
705 1 0.516667 0.05 0.0577404 -4.40795 
735 1 0.5 0.2 -0.00125759 -3.90369 
736 1 0.516667 0.15 0.0577431 -4.40795 
738 1 0.5 0.1 -0.00126089 -3.90368 
739 1 0.55 0.05 -0.00124267 -3.90367 
740 1 0.55 0.15 -0.00124135 -3.90366 
863 1 0.533333 0.1 0.1165 -4.44909 
866 1 0.533333 0 0.116498 -4.44909 
867 1 0.566667 0 0.0577619 -4.40804 
868 1 0.583333 0.05 0.11652 -4.44926 
894 1 0.533333 0.2 0.116501 -4.44909 
895 1 0.566667 0.2 0.0577646 -4.40803 
896 1 0.583333 0.15 0.116522 -4.44926 
898 1 0.566667 0.1 0.0577641 -4.40804 
899 1 0.6 0.1 -0.00120381 -3.9035 
900 1 0.616667 0.05 0.0578033 -4.40876 
901 1 0.616667 0.15 0.0578047 -4.40876 
902 1 0.6 0 -0.00120797 -3.9035 
903 1 0.65 0.05 -0.00106562 -3.89016 
933 1 0.6 0.2 -0.00120448 -3.90348 
934 1 0.65 0.15 -0.00106292 -3.89015 
1032 1 0.633333 0 0.116551 -4.44831 
1056 1 0.633333 0.2 0.116556 -4.44832 
1059 1 0.633333 0.1 0.116556 -4.44831 
1060 1 0.666667 0.1 0.0579749 -4.37597 
1061 1 0.683333 0.05 0.116455 -4.44932 
1062 1 0.683333 0.15 0.11646 -4.44931 
1063 1 0.666667 0 0.0579677 -4.376 
1094 1 0.666667 0.2 0.0579758 -4.37596 
1064 1 0.7 0 -0.000328457 -3.54834 
1065 1 0.716667 0.05 0.0574699 -4.2528 
1095 1 0.7 0.2 -0.000312438 -3.54821 
1096 1 0.716667 0.15 0.0574775 -4.2528 
1098 1 0.7 0.1 -0.000315436 -3.54822 
1214 1 0.733333 0.1 0.116396 -4.42756 
1217 1 0.733333 0 0.116387 -4.42742 
1218 1 0.766667 0 0.0564553 -4.1776 
1219 1 0.783333 0.05 0.116123 -4.44056 
1245 1 0.733333 0.2 0.116399 -4.42757 
1246 1 0.766667 0.2 0.0564722 -4.17782 
1247 1 0.783333 0.15 0.116133 -4.44069 
1249 1 0.766667 0.1 0.0564713 -4.17783 
1250 1 0.8 0.1 -0.000391251 -3.54622 
1251 1 0.816667 0.05 0.0580636 -4.34837 
1252 1 0.816667 0.15 0.0580733 -4.34842 
1253 1 0.8 0 -0.000409707 -3.54628 
1254 1 0.85 0.05 -0.00111243 -3.89039 
1284 1 0.8 0.2 -0.000387618 -3.54613 
1285 1 0.85 0.15 -0.00110139 -3.89037 
1383 1 0.833333 0 0.116577 -4.44658 
1407 1 0.833333 0.2 0.116596 -4.44665 
1410 1 0.833333 0.1 0.116586 -4.44664 
1411 1 0.866667 0.1 0.0578051 -4.409 
1412 1 0.883333 0.05 0.116582 -4.4499 
1413 1 0.883333 0.15 0.116593 -4.44998 
1414 1 0.866667 0 0.0577979 -4.40894 
1445 1 0.866667 0.2 0.0578289 -4.40915 
1415 1 0.9 0 -0.00110782 -3.90311 
1416 1 0.916667 0.05 0.0579146 -4.40798 
1446 1 0.9 0.2 -0.00106207 -3.90298 
1447 1 0.916667 0.15 0.0579338 -4.40702 
1449 1 0.9 0.1 -0.00110355 -3.90309 
1450 1 0.95 0.05 -0.0010164 -3.9035 
1451 1 0.95 0.15 -0.000930152 -3.90399 
1574 1 0.933333 0.1 0.116697 -4.44913 
1577 1 0.933333 0 0.116693 -4.449 
1578 1 0.966667 0 0.0580055 -4.40715 
1579 1 0.983333 0.05 0.116779 -4.44932 
1605 1 0.933333 0.2 0.116671 -4.43405 
1606 1 0.966667 0.2 0.0582491 -4.40763 
1607 1 0.983333 0.15 0.11674 -4.43446 
1609 1 0.966667 0.1 0.0580074 -4.40721 
6 1 0 0.3 -0.000421348 -3.9025 
7 1 0.0166667 0.25 0.058348 -4.3976 
8 1 0.0166667 0.35 0.0586888 -4.38932 
11 1 0.05 0.25 -0.000791966 -3.90347 
15 1 0 0.4 -0.000412871 -3.9025 
16 1 0.05 0.35 -0.000612769 -3.90398 
53 1 0.0333333 0.4 0.117661 -4.33143 
56 1 0.0333333 0.3 0.117652 -4.33142 
57 1 0.0666667 0.3 0.0582156 -4.4075 
58 1 0.0833333 0.25 0.116648 -4.43455 
59 1 0.0833333 0.35 0.116553 -4.41911 
78 1 0.0666667 0.4 0.0582201 -4.4075 
63 1 0.116667 0.25 0.0578786 -4.40725 
79 1 0.1 0.4 -0.00100895 -3.90386 
80 1 0.116667 0.35 0.0578689 -4.4062 
82 1 0.1 0.3 -0.00101698 -3.90387 
83 1 0.15 0.25 -0.00117701 -3.90346 
84 1 0.15 0.35 -0.00118296 -3.90331 
174 1 0.133333 0.3 0.116566 -4.4492 
180 1 0.183333 0.25 0.11652 -4.4491 
205 1 0.133333 0.4 0.116575 -4.44924 
206 1 0.166667 0.4 0.0577913 -4.40803 
207 1 0.183333 0.35 0.116516 -4.44912 
209 1 0.166667 0.3 0.0577894 -4.40802 
210 1 0.2 0.3 -0.00123845 -3.90363 
211 1 0.216667 0.25 0.0577449 -4.40792 
212 1 0.216667 0.35 0.0577446 -4.40793 
215 1 0.25 0.25 -0.0012736 -3.90364 
237 1 0.2 0.4 -0.00123628 -3.90363 
238 1 0.25 0.35 -0.00127489 -3.90364 
367 1 0.233333 0.4 0.116485 -4.44909 
370 1 0.233333 0.3 0.116484 -4.44909 
371 1 0.266667 0.3 0.0577149 -4.40793 
372 1 0.283333 0.25 0.116463 -4.44907 
373 1 0.283333 0.35 0.116461 -4.44907 
402 1 0.266667 0.4 0.0577148 -4.40794 
377 1 0.316667 0.25 0.0577019 -4.40793 
403 1 0.3 0.4 -0.00129479 -3.90363 
404 1 0.316667 0.35 0.0577011 -4.40793 
406 1 0.3 0.3 -0.00129347 -3.90364 
407 1 0.35 0.25 -0.00129684 -3.90365 
408 1 0.35 0.35 -0.00129788 -3.90365 
531 1 0.333333 0.3 0.116455 -4.44906 
537 1 0.383333 0.25 0.116461 -4.44907 
565 1 0.333333 0.4 0.116454 -4.44906 
566 1 0.366667 0.4 0.0577023 -4.40793 
567 1 0.383333 0.35 0.11646 -4.44907 
569 1 0.366667 0.3 0.0577029 -4.40793 
570 1 0.4 0.3 -0.00128734 -3.90367 
571 1 0.416667 0.25 0.0577167 -4.40792 
572 1 0.416667 0.35 0.0577158 -4.40792 
575 1 0.45 0.25 -0.00126853 -3.90372 
597 1 0.4 0.4 -0.00128812 -3.90368 
598 1 0.45 0.35 -0.0012698 -3.90371 
727 1 0.433333 0.4 0.116474 -4.44906 
730 1 0.433333 0.3 0.116475 -4.44907 
731 1 0.466667 0.3 0.0577322 -4.40793 
732 1 0.483333 0.25 0.116489 -4.44906 
733 1 0.483333 0.35 0.116488 -4.44907 
762 1 0.466667 0.4 0.0577295 -4.40793 
737 1 0.516667 0.25 0.0577444 -4.40794 
763 1 0.5 0.4 -0.00126099 -3.90368 
764 1 0.516667 0.35 0.0577429 -4.40795 
766 1 0.5 0.3 -0.00125762 -3.90369 
767 1 0.55 0.25 -0.00124046 -3.90367 
768 1 0.55 0.35 -0.00124144 -3.90367 
891 1 0.533333 0.3 0.116501 -4.44909 
897 1 0.583333 0.25 0.116521 -4.44927 
925 1 0.533333 0.4 0.116499 -4.44909 
926 1 0.566667 0.4 0.0577641 -4.40804 
927 1 0.583333 0.35 0.116521 -4.44926 
929 1 0.566667 0.3 0.0577647 -4.40803 
930 1 0.6 0.3 -0.00120442 -3.90348 
931 1 0.616667 0.25 0.0578035 -4.40876 
932 1 0.616667 0.35 0.0578046 -4.40876 
935 1 0.65 0.25 -0.00106411 -3.89013 
957 1 0.6 0.4 -0.00120376 -3.9035 
958 1 0.65 0.35 -0.00106292 -3.89015 
1087 1 0.633333 0.4 0.116556 -4.44831 
1090 1 0.633333 0.3 0.116556 -4.44831 
1091 1 0.666667 0.3 0.0579762 -4.37596 
1092 1 0.683333 0.25 0.11646 -4.44932 
1093 1 0.683333 0.35 0.116461 -4.44932 
1120 1 0.666667 0.4 0.0579754 -4.37596 
1097 1 0.716667 0.25 0.0574794 -4.2528 
1121 1 0.7 0.4 -0.000312861 -3.54821 
1122 1 0.716667 0.35 0.0574802 -4.25281 
1124 1 0.7 0.3 -0.000311176 -3.5482 
1242 1 0.733333 0.3 0.116402 -4.42758 
1248 1 0.783333 0.25 0.116135 -4.44072 
1276 1 0.733333 0.4 0.116402 -4.42757 
1277 1 0.766667 0.4 0.0564821 -4.17785 
1278 1 0.783333 0.35 0.11614 -4.44069 
1280 1 0.766667 0.3 0.056476 -4.17784 
1281 1 0.8 0.3 -0.000383037 -3.54609 
1282 1 0.816667 0.25 0.0580808 -4.34847 
1283 1 0.816667 0.35 0.0580918 -4.3485 
1286 1 0.85 0.25 -0.00108032 -3.89036 
1308 1 0.8 0.4 -0.000378233 -3.54616 
1309 1 0.85 0.35 -0.00105541 -3.89042 
1438 1 0.833333 0.4 0.116614 -4.44668 
1441 1 0.833333 0.3 0.116611 -4.44669 
1442 1 0.866667 0.3 0.0578673 -4.4094 
1443 1 0.883333 0.25 0.11664 -4.45018 
1444 1 0.883333 0.35 0.116688 -4.45043 
1473 1 0.866667 0.4 0.0578744 -4.40937 
1448 1 0.916667 0.25 0.0580258 -4.40586 
1474 1 0.9 0.4 -0.00097678 -3.90302 
1475 1 0.916667 0.35 0.0581055 -4.40627 
1477 1 0.9 0.3 -0.000988086 -3.90298 
1478 1 0.95 0.25 -0.000679194 -3.90446 
1479 1 0.95 0.35 -0.000511673 -3.90384 
1602 1 0.933333 0.3 0.116813 -4.40877 
1608 1 0.983333 0.25 0.117628 -4.34309 
1631 1 0.933333 0.4 0.116823 -4.40876 
1632 1 0.966667 0.4 0.0586772 -4.40003 
1633 1 0.983333 0.35 0.119127 -4.26574 
1635 1 0.966667 0.3 0.0586661 -4.40001 
12 1 0 0.5 -0.000734497 -3.90362 
13 1 0.0166667 0.45 0.0583652 -4.39762 
14 1 0.0166667 0.55 0.0581279 -4.40752 
17 1 0.05 0.45 -0.000779664 -3.90346 
21 1 0 0.6 -0.000881039 -3.90368 
22 1 0.05 0.55 -0.000912407 -3.90364 
71 1 0.0333333 0.6 0.116876 -4.44965 
74 1 0.0333333 0.5 0.11688 -4.42423 
75 1 0.0666667 0.5 0.0580514 -4.40751 
76 1 0.0833333 0.45 0.116657 -4.43456 
77 1 0.0833333 0.55 0.116746 -4.44937 
95 1 0.0666667 0.6 0.0580474 -4.40849 
81 1 0.116667 0.45 0.0578859 -4.40725 
96 1 0.1 0.6 -0.00103991 -3.90372 
97 1 0.116667 0.55 0.0579111 -4.40808 
99 1 0.1 0.5 -0.0010498 -3.90359 
100 1 0.15 0.45 -0.00116723 -3.90347 
101 1 0.15 0.55 -0.00115662 -3.90363 
202 1 0.133333 0.5 0.1166 -4.44914 
208 1 0.183333 0.45 0.116526 -4.44911 
229 1 0.133333 0.6 0.116617 -4.44905 
230 1 0.166667 0.6 0.0578143 -4.4079 
231 1 0.183333 0.55 0.116536 -4.44905 
233 1 0.166667 0.5 0.057805 -4.40795 
234 1 0.2 0.5 -0.00122916 -3.90363 
235 1 0.216667 0.45 0.0577482 -4.40792 
236 1 0.216667 0.55 0.0577529 -4.40792 
239 1 0.25 0.45 -0.00127383 -3.90364 
253 1 0.2 0.6 -0.00122609 -3.90362 
254 1 0.25 0.55 -0.00127093 -3.90363 
395 1 0.233333 0.6 0.116492 -4.44907 
398 1 0.233333 0.5 0.116487 -4.44908 
399 1 0.266667 0.5 0.0577163 -4.40793 
400 1 0.283333 0.45 0.116463 -4.44907 
401 1 0.283333 0.55 0.116463 -4.44906 
422 1 0.266667 0.6 0.0577187 -4.40792 
405 1 0.316667 0.45 0.0577001 -4.40793 
423 1 0.3 0.6 -0.00129094 -3.90364 
424 1 0.316667 0.55 0.0577019 -4.40793 
426 1 0.3 0.5 -0.00129397 -3.90363 
427 1 0.35 0.45 -0.00129829 -3.90365 
428 1 0.35 0.55 -0.00129787 -3.90365 
562 1 0.333333 0.5 0.116453 -4.44906 
568 1 0.383333 0.45 0.116459 -4.44907 
589 1 0.333333 0.6 0.116455 -4.44906 
590 1 0.366667 0.6 0.0577017 -4.40793 
591 1 0.383333 0.55 0.116458 -4.44907 
593 1 0.366667 0.5 0.057702 -4.40793 
594 1 0.4 0.5 -0.00128938 -3.90367 
595 1 0.416667 0.45 0.0577141 -4.40792 
596 1 0.416667 0.55 0.057712 -4.40792 
599 1 0.45 0.45 -0.00127279 -3.9037 
613 1 0.4 0.6 -0.00129104 -3.90367 
614 1 0.45 0.55 -0.00127582 -3.9037 
755 1 0.433333 0.6 0.116469 -4.44907 
758 1 0.433333 0.5 0.116471 -4.44907 
759 1 0.466667 0.5 0.0577266 -4.40793 
760 1 0.483333 0.45 0.116485 -4.44907 
761 1 0.483333 0.55 0.116483 -4.44907 
782 1 0.466667 0.6 0.0577245 -4.40793 
765 1 0.516667 0.45 0.0577402 -4.40795 
783 1 0.5 0.6 -0.00126521 -3.90369 
784 1 0.516667 0.55 0.057738 -4.40794 
786 1 0.5 0.5 -0.00126384 -3.90368 
787 1 0.55 0.45 -0.00124284 -3.90367 
788 1 0.55 0.55 -0.00124558 -3.90368 
922 1 0.533333 0.5 0.116497 -4.44909 
928 1 0.583333 0.45 0.11652 -4.44926 
949 1 0.533333 0.6 0.116494 -4.44909 
950 1 0.566667 0.6 0.0577558 -4.40803 
951 1 0.583333 0.55 0.116515 -4.44927 
953 1 0.566667 0.5 0.0577618 -4.40804 
954 1 0.6 0.5 -0.00120815 -3.9035 
955 1 0.616667 0.45 0.0578031 -4.40875 
956 1 0.616667 0.55 0.0577952 -4.40876 
959 1 0.65 0.45 -0.0010657 -3.89016 
973 1 0.6 0.6 -0.0012198 -3.90355 
974 1 0.65 0.55 -0.00107485 -3.89033 
1113 1 0.633333 0.6 0.116542 -4.44809 
1116 1 0.633333 0.5 0.116551 -4.44831 
1117 1 0.666667 0.5 0.0579679 -4.376 
1118 1 0.683333 0.45 0.116457 -4.44933 
1119 1 0.683333 0.55 0.11645 -4.44901 
1138 1 0.666667 0.6 0.0579588 -4.37608 
1123 1 0.716667 0.45 0.0574739 -4.25282 
1139 1 0.7 0.6 -0.000400181 -3.56252 
1140 1 0.716667 0.55 0.0574526 -4.25246 
1142 1 0.7 0.5 -0.000326465 -3.54832 
1273 1 0.733333 0.5 0.116394 -4.42742 
1279 1 0.783333 0.45 0.116136 -4.44057 
1300 1 0.733333 0.6 0.11635 -4.42864 
1301 1 0.766667 0.6 0.0563375 -4.19338 
1302 1 0.783333 0.55 0.116112 -4.44149 
1304 1 0.766667 0.5 0.0564694 -4.1776 
1305 1 0.8 0.5 -0.000392487 -3.54627 
1306 1 0.816667 0.45 0.0580848 -4.34841 
1307 1 0.816667 0.55 0.058058 -4.34853 
1310 1 0.85 0.45 -0.001069 -3.89039 
1324 1 0.8 0.6 -0.000489971 -3.5597 
1325 1 0.85 0.55 -0.00109546 -3.89039 
1466 1 0.833333 0.6 0.116592 -4.44755 
1469 1 0.833333 0.5 0.116598 -4.44659 
1470 1 0.866667 0.5 0.0578381 -4.40908 
1471 1 0.883333 0.45 0.116651 -4.45018 
1472 1 0.883333 0.55 0.116608 -4.44993 
1493 1 0.866667 0.6 0.057826 -4.40886 
1476 1 0.916667 0.45 0.0580432 -4.40586 
1494 1 0.9 0.6 -0.00107435 -3.90296 
1495 1 0.916667 0.55 0.0579605 -4.40709 
1497 1 0.9 0.5 -0.00104355 -3.90298 
1498 1 0.95 0.45 -0.000657435 -3.90449 
1499 1 0.95 0.55 -0.000891479 -3.90387 
1628 1 0.933333 0.5 0.116692 -4.43401 
1634 1 0.983333 0.45 0.117648 -4.3431 
1649 1 0.933333 0.6 0.116733 -4.4491 
1650 1 0.966667 0.6 0.0580666 -4.40631 
1651 1 0.983333 0.55 0.116779 -4.43449 
1653 1 0.966667 0.5 0.0582789 -4.4077 
18 1 0 0.7 -0.000725609 -3.90389 
19 1 0.0166667 0.65 0.0581442 -4.40736 
20 1 0.0166667 0.75 0.0583585 -4.39878 
23 1 0.05 0.65 -0.00090331 -3.90366 
27 1 0 0.8 -0.000653163 -3.90253 
28 1 0.05 0.75 -0.000771097 -3.90385 
88 1 0.0333333 0.8 0.117702 -4.35799 
91 1 0.0333333 0.7 0.116922 -4.42394 
92 1 0.0666667 0.7 0.0580705 -4.40721 
93 1 0.0833333 0.65 0.116762 -4.44933 
94 1 0.0833333 0.75 0.11669 -4.43428 
107 1 0.0666667 0.8 0.0582266 -4.40883 
98 1 0.116667 0.65 0.0579164 -4.40807 
108 1 0.1 0.8 -0.000987667 -3.90412 
109 1 0.116667 0.75 0.0579089 -4.40707 
111 1 0.1 0.7 -0.00103451 -3.90361 
112 1 0.15 0.65 -0.00115177 -3.90361 
113 1 0.15 0.75 -0.00115425 -3.90347 
226 1 0.133333 0.7 0.116617 -4.44913 
232 1 0.183333 0.65 0.116538 -4.44906 
245 1 0.133333 0.8 0.116604 -4.44903 
246 1 0.166667 0.8 0.0578122 -4.40795 
247 1 0.183333 0.75 0.116538 -4.44907 
249 1 0.166667 0.7 0.0578126 -4.40796 
250 1 0.2 0.7 -0.0012237 -3.90362 
251 1 0.216667 0.65 0.0577554 -4.40792 
252 1 0.216667 0.75 0.0577578 -4.40791 
255 1 0.25 0.65 -0.00126679 -3.90364 
261 1 0.2 0.8 -0.0012204 -3.90364 
262 1 0.25 0.75 -0.00126243 -3.90366 
415 1 0.233333 0.8 0.116496 -4.44907 
418 1 0.233333 0.7 0.116493 -4.44907 
419 1 0.266667 0.7 0.0577232 -4.40792 
420 1 0.283333 0.65 0.116466 -4.44906 
421 1 0.283333 0.75 0.11647 -4.44907 
434 1 0.266667 0.8 0.0577261 -4.40793 
425 1 0.316667 0.65 0.0577043 -4.40793 
435 1 0.3 0.8 -0.00128725 -3.90365 
436 1 0.316667 0.75 0.0577055 -4.40793 
438 1 0.3 0.7 -0.00128836 -3.90365 
439 1 0.35 0.65 -0.00129739 -3.90365 
440 1 0.35 0.75 -0.00129721 -3.90364 
586 1 0.333333 0.7 0.116456 -4.44907 
592 1 0.383333 0.65 0.116458 -4.44907 
605 1 0.333333 0.8 0.116458 -4.44907 
606 1 0.366667 0.8 0.0577017 -4.40793 
607 1 0.383333 0.75 0.116458 -4.44907 
609 1 0.366667 0.7 0.0577015 -4.40793 
610 1 0.4 0.7 -0.00129209 -3.90366 
611 1 0.416667 0.65 0.0577105 -4.40792 
612 1 0.416667 0.75 0.05771 -4.40792 
615 1 0.45 0.65 -0.00127762 -3.90369 
621 1 0.4 0.8 -0.00129216 -3.90366 
622 1 0.45 0.75 -0.00127814 -3.90369 
775 1 0.433333 0.8 0.116468 -4.44906 
778 1 0.433333 0.7 0.116468 -4.44906 
779 1 0.466667 0.7 0.0577234 -4.40793 
780 1 0.483333 0.65 0.116481 -4.44906 
781 1 0.483333 0.75 0.11648 -4.44906 
794 1 0.466667 0.8 0.0577234 -4.40793 
785 1 0.516667 0.65 0.0577359 -4.40794 
795 1 0.5 0.8 -0.00126614 -3.90369 
796 1 0.516667 0.75 0.0577348 -4.40793 
798 1 0.5 0.7 -0.00126618 -3.90369 
799 1 0.55 0.65 -0.00125074 -3.90368 
800 1 0.55 0.75 -0.00125359 -3.90368 
946 1 0.533333 0.7 0.116492 -4.44907 
952 1 0.583333 0.65 0.116507 -4.4492 
965 1 0.533333 0.8 0.116492 -4.44907 
966 1 0.566667 0.8 0.0577496 -4.40797 
967 1 0.583333 0.75 0.116502 -4.44916 
969 1 0.566667 0.7 0.0577495 -4.40797 
970 1 0.6 0.7 -0.00123225 -3.90355 
971 1 0.616667 0.65 0.0577771 -4.40849 
972 1 0.616667 0.75 0.0577604 -4.40844 
975 1 0.65 0.65 -0.00112786 -3.8897 
981 1 0.6 0.8 -0.00123207 -3.90355 
982 1 0.65 0.75 -0.0011965 -3.90417 
1131 1 0.633333 0.8 0.116513 -4.44887 
1134 1 0.633333 0.7 0.116512 -4.44887 
1135 1 0.666667 0.7 0.0578234 -4.39247 
1136 1 0.683333 0.65 0.116405 -4.4502 
1137 1 0.683333 0.75 0.11652 -4.4489 
1148 1 0.666667 0.8 0.0578235 -4.39247 
1141 1 0.716667 0.65 0.0572896 -4.28175 
1149 1 0.7 0.8 -0.000787974 -3.72316 
1150 1 0.716667 0.75 0.0579398 -4.35198 
1152 1 0.7 0.7 -0.000787756 -3.72315 
1153 1 0.75 0.75 -0.00037417 -3.57832 
1297 1 0.733333 0.7 0.116499 -4.43841 
1303 1 0.783333 0.65 0.116328 -4.43946 
1316 1 0.733333 0.8 0.116499 -4.43842 
1317 1 0.766667 0.8 0.0574516 -4.27879 
1318 1 0.783333 0.75 0.116377 -4.45001 
1320 1 0.766667 0.7 0.0574544 -4.27879 
1321 1 0.8 0.7 -0.000596743 -3.72435 
1322 1 0.816667 0.65 0.0580107 -4.36454 
1323 1 0.816667 0.75 0.0580689 -4.37677 
1326 1 0.85 0.65 -0.00109349 -3.88978 
1332 1 0.8 0.8 -0.000601617 -3.72434 
1333 1 0.85 0.75 -0.00105554 -3.90439 
1486 1 0.833333 0.8 0.116627 -4.44743 
1489 1 0.833333 0.7 0.116629 -4.44741 
1490 1 0.866667 0.7 0.0578818 -4.40879 
1491 1 0.883333 0.65 0.116627 -4.44976 
1492 1 0.883333 0.75 0.116669 -4.4497 
1505 1 0.866667 0.8 0.0578858 -4.40892 
1496 1 0.916667 0.65 0.0579707 -4.40709 
1506 1 0.9 0.8 -0.00101624 -3.90327 
1507 1 0.916667 0.75 0.0580251 -4.40709 
1509 1 0.9 0.7 -0.00103114 -3.90336 
1510 1 0.95 0.65 -0.000888555 -3.90408 
1511 1 0.95 0.75 -0.000781124 -3.9038 
1646 1 0.933333 0.7 0.116723 -4.43425 
1652 1 0.983333 0.65 0.116812 -4.43446 
1659 1 0.933333 0.8 0.116827 -4.42374 
1660 1 0.966667 0.8 0.058322 -4.39873 
1661 1 0.983333 0.75 0.11774 -4.35818 
1663 1 0.966667 0.7 0.058288 -4.40897 
24 1 0 0.9 -0.000783132 -3.9038 
25 1 0.0166667 0.85 0.058322 -4.39871 
26 1 0.0166667 0.95 0.0580688 -4.40719 
29 1 0.05 0.85 -0.000798217 -3.9038 
30 1 0.05 0.95 -0.000962696 -3.90357 
103 1 0.0333333 0.9 0.116851 -4.42381 
104 1 0.0666667 0.9 0.0580267 -4.40716 
105 1 0.0833333 0.85 0.116669 -4.43432 
106 1 0.0833333 0.95 0.116712 -4.44928 
110 1 0.116667 0.85 0.057902 -4.40707 
114 1 0.116667 0.95 0.0578895 -4.40805 
115 1 0.1 0.9 -0.00105839 -3.9036 
116 1 0.15 0.85 -0.00115782 -3.9035 
117 1 0.15 0.95 -0.00116235 -3.90362 
242 1 0.133333 0.9 0.116603 -4.44914 
248 1 0.183333 0.85 0.116536 -4.44905 
256 1 0.183333 0.95 0.116534 -4.44908 
257 1 0.166667 0.9 0.0578095 -4.40796 
258 1 0.2 0.9 -0.00122111 -3.90365 
259 1 0.216667 0.85 0.0577602 -4.40791 
260 1 0.216667 0.95 0.0577568 -4.40791 
263 1 0.25 0.85 -0.00126079 -3.90367 
264 1 0.25 0.95 -0.00126281 -3.90366 
430 1 0.233333 0.9 0.116496 -4.44907 
431 1 0.266667 0.9 0.0577258 -4.40792 
432 1 0.283333 0.85 0.116471 -4.44907 
433 1 0.283333 0.95 0.11647 -4.44907 
437 1 0.316667 0.85 0.0577062 -4.40793 
441 1 0.316667 0.95 0.0577059 -4.40793 
442 1 0.3 0.9 -0.00128716 -3.90365 
443 1 0.35 0.85 -0.00129687 -3.90364 
444 1 0.35 0.95 -0.00129619 -3.90364 
602 1 0.333333 0.9 0.116458 -4.44907 
608 1 0.383333 0.85 0.116458 -4.44907 
616 1 0.383333 0.95 0.11646 -4.44907 
617 1 0.366667 0.9 0.0577025 -4.40793 
618 1 0.4 0.9 -0.00129079 -3.90366 
619 1 0.416667 0.85 0.0577106 -4.40792 
620 1 0.416667 0.95 0.0577124 -4.40792 
623 1 0.45 0.85 -0.00127759 -3.90369 
624 1 0.45 0.95 -0.00127571 -3.90369 
790 1 0.433333 0.9 0.116469 -4.44906 
791 1 0.466667 0.9 0.0577246 -4.40793 
792 1 0.483333 0.85 0.116481 -4.44906 
793 1 0.483333 0.95 0.116483 -4.44907 
797 1 0.516667 0.85 0.057736 -4.40794 
801 1 0.516667 0.95 0.0577382 -4.40794 
802 1 0.5 0.9 -0.0012651 -3.90369 
803 1 0.55 0.85 -0.0012506 -3.90368 
804 1 0.55 0.95 -0.00124537 -3.90368 
962 1 0.533333 0.9 0.116494 -4.44909 
968 1 0.583333 0.85 0.116508 -4.4492 
976 1 0.583333 0.95 0.116516 -4.44927 
977 1 0.566667 0.9 0.0577561 -4.40803 
978 1 0.6 0.9 -0.00121946 -3.90355 
979 1 0.616667 0.85 0.0577773 -4.40849 
980 1 0.616667 0.95 0.0577954 -4.40876 
983 1 0.65 0.85 -0.00112771 -3.88971 
984 1 0.65 0.95 -0.00107468 -3.89034 
1144 1 0.633333 0.9 0.116543 -4.44809 
1145 1 0.666667 0.9 0.057959 -4.37608 
1146 1 0.683333 0.85 0.116406 -4.4502 
1147 1 0.683333 0.95 0.11645 -4.44901 
1151 1 0.716667 0.85 0.0572887 -4.28175 
1154 1 0.716667 0.95 0.0574499 -4.25244 
1155 1 0.7 0.9 -0.000401032 -3.56254 
1313 1 0.733333 0.9 0.116346 -4.42863 
1319 1 0.783333 0.85 0.116318 -4.43944 
1327 1 0.783333 0.95 0.116098 -4.44148 
1328 1 0.766667 0.9 0.0563269 -4.1934 
1329 1 0.8 0.9 -0.000504236 -3.55967 
1330 1 0.816667 0.85 0.0580035 -4.36457 
1331 1 0.816667 0.95 0.0580424 -4.34852 
1334 1 0.85 0.85 -0.00109568 -3.8898 
1335 1 0.85 0.95 -0.00111291 -3.89042 
1501 1 0.833333 0.9 0.116583 -4.44753 
1502 1 0.866667 0.9 0.0578204 -4.40887 
1503 1 0.883333 0.85 0.116643 -4.44987 
1504 1 0.883333 0.95 0.116587 -4.44989 
1508 1 0.916667 0.85 0.0580007 -4.40712 
1512 1 0.916667 0.95 0.0579309 -4.40704 
1513 1 0.9 0.9 -0.00107569 -3.90321 
1514 1 0.95 0.85 -0.000808035 -3.90379 
1515 1 0.95 0.95 -0.000938008 -3.90421 
1656 1 0.933333 0.9 0.116677 -4.43422 
1662 1 0.983333 0.85 0.117684 -4.3579 
1664 1 0.983333 0.95 0.116733 -4.43429 
1665 1 0.966667 0.9 0.0582361 -4.40883 
31 1 0 0.1 0.175642 -4.44999 
32 1 0.0166667 0.05 0.234505 -4.44109 
33 1 0.0166667 0.15 0.234547 -4.42621 
34 1 0 0 0.175605 -4.45117 
36 1 0.05 0.05 0.175596 -4.45003 
39 1 0 0.2 0.175609 -4.35381 
41 1 0.05 0.15 0.175632 -4.43732 
131 1 0.0666667 0.1 0.234449 -4.45081 
134 1 0.0666667 0 0.234307 -4.44943 
148 1 0.0666667 0.2 0.23433 -4.43428 
135 1 0.1 0 0.17546 -4.45019 
136 1 0.116667 0.05 0.234212 -4.44923 
149 1 0.1 0.2 0.175444 -4.45128 
150 1 0.116667 0.15 0.234199 -4.44928 
152 1 0.1 0.1 0.17548 -4.45058 
154 1 0.15 0.05 0.175377 -4.45016 
155 1 0.15 0.15 0.17537 -4.45006 
288 1 0.166667 0 0.23416 -4.45001 
304 1 0.166667 0.2 0.234146 -4.44999 
307 1 0.166667 0.1 0.234158 -4.45003 
308 1 0.2 0.1 0.175327 -4.45027 
309 1 0.216667 0.05 0.234124 -4.44996 
310 1 0.216667 0.15 0.234121 -4.44997 
311 1 0.2 0 0.175328 -4.45025 
313 1 0.25 0.05 0.175294 -4.45025 
335 1 0.2 0.2 0.175319 -4.45027 
337 1 0.25 0.15 0.175292 -4.45026 
475 1 0.266667 0.1 0.234099 -4.44996 
478 1 0.266667 0 0.234102 -4.44996 
498 1 0.266667 0.2 0.2341 -4.44996 
479 1 0.3 0 0.17528 -4.45025 
480 1 0.316667 0.05 0.234093 -4.44996 
499 1 0.3 0.2 0.175274 -4.45025 
500 1 0.316667 0.15 0.23409 -4.44996 
502 1 0.3 0.1 0.175276 -4.45025 
504 1 0.35 0.05 0.175276 -4.45025 
505 1 0.35 0.15 0.175275 -4.45025 
648 1 0.366667 0 0.234095 -4.44995 
664 1 0.366667 0.2 0.234094 -4.44995 
667 1 0.366667 0.1 0.234095 -4.44995 
668 1 0.4 0.1 0.175283 -4.45025 
669 1 0.416667 0.05 0.234104 -4.44995 
670 1 0.416667 0.15 0.234105 -4.44995 
671 1 0.4 0 0.175282 -4.45025 
673 1 0.45 0.05 0.175294 -4.45025 
695 1 0.4 0.2 0.175284 -4.45025 
697 1 0.45 0.15 0.175297 -4.45025 
835 1 0.466667 0.1 0.234116 -4.44996 
838 1 0.466667 0 0.234114 -4.44996 
858 1 0.466667 0.2 0.234118 -4.44996 
839 1 0.5 0 0.175304 -4.45026 
840 1 0.516667 0.05 0.234124 -4.44996 
859 1 0.5 0.2 0.175308 -4.45026 
860 1 0.516667 0.15 0.234126 -4.44996 
862 1 0.5 0.1 0.175307 -4.45026 
864 1 0.55 0.05 0.175319 -4.45028 
865 1 0.55 0.15 0.17532 -4.45028 
1008 1 0.566667 0 0.234132 -4.44994 
1024 1 0.566667 0.2 0.234134 -4.44995 
1027 1 0.566667 0.1 0.234134 -4.44994 
1028 1 0.6 0.1 0.175333 -4.45012 
1029 1 0.616667 0.05 0.234132 -4.44991 
1030 1 0.616667 0.15 0.234133 -4.44991 
1031 1 0.6 0 0.175331 -4.45012 
1033 1 0.65 0.05 0.17532 -4.45057 
1055 1 0.6 0.2 0.175333 -4.45012 
1057 1 0.65 0.15 0.175322 -4.45057 
1186 1 0.666667 0.1 0.234099 -4.44985 
1189 1 0.666667 0 0.234096 -4.44984 
1209 1 0.666667 0.2 0.234099 -4.44985 
1190 1 0.7 0 0.175235 -4.4497 
1191 1 0.716667 0.05 0.234036 -4.45014 
1210 1 0.7 0.2 0.175243 -4.44979 
1211 1 0.716667 0.15 0.23404 -4.45017 
1213 1 0.7 0.1 0.175239 -4.44979 
1215 1 0.75 0.05 0.175145 -4.44811 
1216 1 0.75 0.15 0.17515 -4.44816 
1359 1 0.766667 0 0.233996 -4.45005 
1375 1 0.766667 0.2 0.234005 -4.45001 
1378 1 0.766667 0.1 0.234001 -4.44999 
1379 1 0.8 0.1 0.175155 -4.45068 
1380 1 0.816667 0.05 0.234055 -4.45016 
1381 1 0.816667 0.15 0.234058 -4.45012 
1382 1 0.8 0 0.175146 -4.45084 
1384 1 0.85 0.05 0.175359 -4.44978 
1406 1 0.8 0.2 0.175161 -4.45069 
1408 1 0.85 0.15 0.175365 -4.4497 
1546 1 0.866667 0.1 0.234173 -4.44994 
1549 1 0.866667 0 0.234164 -4.44986 
1569 1 0.866667 0.2 0.234172 -4.44989 
1550 1 0.9 0 0.175414 -4.45019 
1551 1 0.916667 0.05 0.234242 -4.44938 
1570 1 0.9 0.2 0.17543 -4.45151 
1571 1 0.916667 0.15 0.234225 -4.44959 
1573 1 0.9 0.1 0.175423 -4.45023 
1575 1 0.95 0.05 0.175553 -4.44982 
1576 1 0.95 0.15 0.175518 -4.4373 
1689 1 0.966667 0 0.23442 -4.45024 
1705 1 0.966667 0.2 0.234376 -4.42581 
1708 1 0.966667 0.1 0.234453 -4.44106 
37 1 0.0166667 0.25 0.233498 -4.34315 
38 1 0.0166667 0.35 0.232002 -4.26645 
42 1 0.05 0.25 0.175552 -4.33962 
54 1 0.05 0.35 0.175358 -4.24346 
145 1 0.0666667 0.3 0.234196 -4.41 
169 1 0.0666667 0.4 0.234199 -4.41001 
151 1 0.116667 0.25 0.234165 -4.45035 
170 1 0.1 0.4 0.17537 -4.43897 
171 1 0.116667 0.35 0.234128 -4.45057 
173 1 0.1 0.3 0.175364 -4.43899 
175 1 0.15 0.25 0.175354 -4.45015 
176 1 0.15 0.35 0.175342 -4.45018 
328 1 0.166667 0.4 0.234136 -4.44996 
331 1 0.166667 0.3 0.234132 -4.44996 
332 1 0.2 0.3 0.175313 -4.45029 
333 1 0.216667 0.25 0.234116 -4.44998 
334 1 0.216667 0.35 0.234114 -4.44999 
338 1 0.25 0.25 0.175292 -4.45026 
366 1 0.2 0.4 0.175316 -4.45029 
368 1 0.25 0.35 0.175291 -4.45027 
495 1 0.266667 0.3 0.234099 -4.44997 
526 1 0.266667 0.4 0.234099 -4.44997 
501 1 0.316667 0.25 0.23409 -4.44996 
527 1 0.3 0.4 0.175274 -4.45026 
528 1 0.316667 0.35 0.23409 -4.44996 
530 1 0.3 0.3 0.175275 -4.45026 
532 1 0.35 0.25 0.175274 -4.45025 
533 1 0.35 0.35 0.175272 -4.45025 
688 1 0.366667 0.4 0.234092 -4.44995 
691 1 0.366667 0.3 0.234093 -4.44995 
692 1 0.4 0.3 0.175284 -4.45025 
693 1 0.416667 0.25 0.234106 -4.44995 
694 1 0.416667 0.35 0.234105 -4.44995 
698 1 0.45 0.25 0.175298 -4.45025 
726 1 0.4 0.4 0.175282 -4.45025 
728 1 0.45 0.35 0.175296 -4.45025 
855 1 0.466667 0.3 0.234118 -4.44996 
886 1 0.466667 0.4 0.234116 -4.44996 
861 1 0.516667 0.25 0.234127 -4.44995 
887 1 0.5 0.4 0.175307 -4.45026 
888 1 0.516667 0.35 0.234126 -4.44996 
890 1 0.5 0.3 0.175308 -4.45026 
892 1 0.55 0.25 0.175321 -4.45028 
893 1 0.55 0.35 0.17532 -4.45028 
1048 1 0.566667 0.4 0.234134 -4.44994 
1051 1 0.566667 0.3 0.234134 -4.44995 
1052 1 0.6 0.3 0.175333 -4.45012 
1053 1 0.616667 0.25 0.234132 -4.44992 
1054 1 0.616667 0.35 0.234133 -4.44991 
1058 1 0.65 0.25 0.175321 -4.45057 
1086 1 0.6 0.4 0.175333 -4.45012 
1088 1 0.65 0.35 0.175322 -4.45057 
1206 1 0.666667 0.3 0.2341 -4.44985 
1237 1 0.666667 0.4 0.2341 -4.44986 
1212 1 0.716667 0.25 0.234041 -4.45017 
1238 1 0.7 0.4 0.175243 -4.44979 
1239 1 0.716667 0.35 0.234044 -4.45017 
1241 1 0.7 0.3 0.175244 -4.44979 
1243 1 0.75 0.25 0.175152 -4.44817 
1244 1 0.75 0.35 0.175156 -4.44818 
1399 1 0.766667 0.4 0.234008 -4.45 
1402 1 0.766667 0.3 0.234007 -4.45002 
1403 1 0.8 0.3 0.175166 -4.45072 
1404 1 0.816667 0.25 0.234059 -4.45014 
1405 1 0.816667 0.35 0.234065 -4.45017 
1409 1 0.85 0.25 0.175376 -4.44961 
1437 1 0.8 0.4 0.175167 -4.45072 
1439 1 0.85 0.35 0.175391 -4.44962 
1566 1 0.866667 0.3 0.234185 -4.44989 
1597 1 0.866667 0.4 0.234187 -4.44988 
1572 1 0.916667 0.25 0.234266 -4.43461 
1598 1 0.9 0.4 0.175513 -4.43893 
1599 1 0.916667 0.35 0.234372 -4.41994 
1601 1 0.9 0.3 0.175507 -4.43896 