ITEM: TIMESTEP
22
ITEM: NUMBER OF ATOMS
3584
ITEM: BOX BOUNDS pp pp ss
0.0000000000000000e+00 4.3111019472983898e+01
0.0000000000000000e+00 2.4890158697766498e+01
-3.6580800000000006e-03 3.4552298188307212e+01
ITEM: ATOMS id type xs ys zs c_peratom 
1 1 0 0.1 -0.000946632 -3.90375 
2 1 0.0166667 0.05 0.0580363 -4.40828 
3 1 0.0166667 0.15 0.0580786 -4.40743 
4 1 0 0 -0.000961701 -3.9037 
5 1 0.05 0.05 -0.000987255 -3.9038 
9 1 0 0.2 -0.000777555 -3.90356 
10 1 0.05 0.15 -0.000953414 -3.90361 
35 1 0.0333333 0 0.11679 -4.44941 
40 1 0.0333333 0.2 0.11685 -4.42426 
43 1 0.0333333 0.1 0.116803 -4.44938 
44 1 0.0666667 0.1 0.0579974 -4.40824 
45 1 0.0833333 0.05 0.116705 -4.44909 
46 1 0.0833333 0.15 0.11672 -4.44936 
47 1 0.0666667 0 0.057985 -4.40826 
60 1 0.0666667 0.2 0.0580241 -4.40751 
48 1 0.1 0 -0.00106995 -3.90371 
49 1 0.116667 0.05 0.0578934 -4.40798 
61 1 0.1 0.2 -0.00106013 -3.90361 
62 1 0.116667 0.15 0.0578902 -4.40808 
64 1 0.1 0.1 -0.00106859 -3.90375 
65 1 0.15 0.05 -0.00116147 -3.90365 
66 1 0.15 0.15 -0.00116371 -3.90363 
153 1 0.133333 0.1 0.116603 -4.44906 
156 1 0.133333 0 0.116604 -4.44902 
157 1 0.166667 0 0.0578085 -4.40794 
158 1 0.183333 0.05 0.116536 -4.44904 
177 1 0.133333 0.2 0.116597 -4.44913 
178 1 0.166667 0.2 0.0578003 -4.40799 
179 1 0.183333 0.15 0.11653 -4.44903 
181 1 0.166667 0.1 0.0578047 -4.40791 
182 1 0.2 0.1 -0.00122386 -3.90364 
183 1 0.216667 0.05 0.0577558 -4.40794 
184 1 0.216667 0.15 0.0577532 -4.40793 
185 1 0.2 0 -0.001225 -3.90363 
186 1 0.25 0.05 -0.00126241 -3.90364 
213 1 0.2 0.2 -0.00123103 -3.90364 
214 1 0.25 0.15 -0.00126489 -3.90364 
312 1 0.233333 0 0.116497 -4.44904 
336 1 0.233333 0.2 0.116491 -4.44905 
339 1 0.233333 0.1 0.116496 -4.44906 
340 1 0.266667 0.1 0.0577229 -4.40794 
341 1 0.283333 0.05 0.116471 -4.44905 
342 1 0.283333 0.15 0.11647 -4.44905 
343 1 0.266667 0 0.0577269 -4.40794 
374 1 0.266667 0.2 0.0577216 -4.40795 
344 1 0.3 0 -0.00128063 -3.90366 
345 1 0.316667 0.05 0.0577098 -4.40794 
375 1 0.3 0.2 -0.00128559 -3.90364 
376 1 0.316667 0.15 0.057708 -4.40794 
378 1 0.3 0.1 -0.00128371 -3.90364 
379 1 0.35 0.05 -0.00128836 -3.90366 
380 1 0.35 0.15 -0.00128899 -3.90366 
503 1 0.333333 0.1 0.116462 -4.44904 
506 1 0.333333 0 0.116464 -4.44905 
507 1 0.366667 0 0.0577088 -4.40794 
508 1 0.383333 0.05 0.116466 -4.44905 
534 1 0.333333 0.2 0.11646 -4.44905 
535 1 0.366667 0.2 0.0577089 -4.40794 
536 1 0.383333 0.15 0.116467 -4.44904 
538 1 0.366667 0.1 0.0577094 -4.40794 
539 1 0.4 0.1 -0.00127965 -3.90369 
540 1 0.416667 0.05 0.0577183 -4.40793 
541 1 0.416667 0.15 0.0577202 -4.40793 
542 1 0.4 0 -0.00128151 -3.90368 
543 1 0.45 0.05 -0.00127038 -3.90369 
573 1 0.4 0.2 -0.00127891 -3.90369 
574 1 0.45 0.15 -0.00126762 -3.9037 
672 1 0.433333 0 0.116475 -4.44905 
696 1 0.433333 0.2 0.116478 -4.44905 
699 1 0.433333 0.1 0.116477 -4.44905 
700 1 0.466667 0.1 0.0577284 -4.40795 
701 1 0.483333 0.05 0.116486 -4.44905 
702 1 0.483333 0.15 0.116487 -4.44905 
703 1 0.466667 0 0.0577267 -4.40795 
734 1 0.466667 0.2 0.0577304 -4.40795 
704 1 0.5 0 -0.00126224 -3.90367 
705 1 0.516667 0.05 0.057742 -4.40795 
735 1 0.5 0.2 -0.00125995 -3.90367 
736 1 0.516667 0.15 0.0577426 -4.40795 
738 1 0.5 0.1 -0.00126146 -3.90367 
739 1 0.55 0.05 -0.00123285 -3.9037 
740 1 0.55 0.15 -0.00123279 -3.90369 
863 1 0.533333 0.1 0.116502 -4.44907 
866 1 0.533333 0 0.116501 -4.44907 
867 1 0.566667 0 0.0577649 -4.40805 
868 1 0.583333 0.05 0.116524 -4.44923 
894 1 0.533333 0.2 0.116503 -4.44907 
895 1 0.566667 0.2 0.057768 -4.40805 
896 1 0.583333 0.15 0.116525 -4.44923 
898 1 0.566667 0.1 0.0577685 -4.40804 
899 1 0.6 0.1 -0.00120274 -3.90347 
900 1 0.616667 0.05 0.057803 -4.40879 
901 1 0.616667 0.15 0.057806 -4.4088 
902 1 0.6 0 -0.00120932 -3.90347 
903 1 0.65 0.05 -0.00105715 -3.89016 
933 1 0.6 0.2 -0.00120294 -3.90346 
934 1 0.65 0.15 -0.00105276 -3.89015 
1032 1 0.633333 0 0.116555 -4.44829 
1056 1 0.633333 0.2 0.116562 -4.44829 
1059 1 0.633333 0.1 0.116561 -4.44829 
1060 1 0.666667 0.1 0.0579834 -4.37594 
1061 1 0.683333 0.05 0.116463 -4.4493 
1062 1 0.683333 0.15 0.11647 -4.44929 
1063 1 0.666667 0 0.0579771 -4.37598 
1094 1 0.666667 0.2 0.0579875 -4.37594 
1064 1 0.7 0 -0.000312727 -3.5484 
1065 1 0.716667 0.05 0.0574828 -4.25278 
1095 1 0.7 0.2 -0.000293709 -3.54829 
1096 1 0.716667 0.15 0.0574911 -4.25278 
1098 1 0.7 0.1 -0.000300201 -3.54827 
1214 1 0.733333 0.1 0.116409 -4.4276 
1217 1 0.733333 0 0.116403 -4.42746 
1218 1 0.766667 0 0.0564673 -4.17761 
1219 1 0.783333 0.05 0.116132 -4.44061 
1245 1 0.733333 0.2 0.116414 -4.42761 
1246 1 0.766667 0.2 0.0564804 -4.17784 
1247 1 0.783333 0.15 0.116141 -4.44074 
1249 1 0.766667 0.1 0.0564748 -4.17785 
1250 1 0.8 0.1 -0.000388209 -3.54618 
1251 1 0.816667 0.05 0.0580671 -4.34833 
1252 1 0.816667 0.15 0.058078 -4.34841 
1253 1 0.8 0 -0.000396623 -3.54634 
1254 1 0.85 0.05 -0.00110983 -3.89038 
1284 1 0.8 0.2 -0.000377568 -3.54614 
1285 1 0.85 0.15 -0.001092 -3.89039 
1383 1 0.833333 0 0.116581 -4.44656 
1407 1 0.833333 0.2 0.116605 -4.44663 
1410 1 0.833333 0.1 0.116587 -4.44664 
1411 1 0.866667 0.1 0.0578022 -4.40905 
1412 1 0.883333 0.05 0.116576 -4.44985 
1413 1 0.883333 0.15 0.116593 -4.44993 
1414 1 0.866667 0 0.0577959 -4.40897 
1445 1 0.866667 0.2 0.057836 -4.40915 
1415 1 0.9 0 -0.00112401 -3.90301 
1416 1 0.916667 0.05 0.0579052 -4.40802 
1446 1 0.9 0.2 -0.00106315 -3.90296 
1447 1 0.916667 0.15 0.057932 -4.40703 
1449 1 0.9 0.1 -0.00111595 -3.90301 
1450 1 0.95 0.05 -0.00100478 -3.90355 
1451 1 0.95 0.15 -0.000914014 -3.90407 
1574 1 0.933333 0.1 0.116697 -4.44908 
1577 1 0.933333 0 0.11669 -4.44899 
1578 1 0.966667 0 0.0580093 -4.40714 
1579 1 0.983333 0.05 0.116785 -4.44928 
1605 1 0.933333 0.2 0.116674 -4.43403 
1606 1 0.966667 0.2 0.058256 -4.40765 
1607 1 0.983333 0.15 0.116746 -4.43439 
1609 1 0.966667 0.1 0.0580183 -4.40718 
6 1 0 0.3 -0.000425534 -3.90248 
7 1 0.0166667 0.25 0.0583373 -4.39767 
8 1 0.0166667 0.35 0.0586759 -4.38925 
11 1 0.05 0.25 -0.000803962 -3.90342 
15 1 0 0.4 -0.000419012 -3.90247 
16 1 0.05 0.35 -0.000612429 -3.90398 
53 1 0.0333333 0.4 0.11765 -4.33143 
56 1 0.0333333 0.3 0.117643 -4.33142 
57 1 0.0666667 0.3 0.0582135 -4.40748 
58 1 0.0833333 0.25 0.116648 -4.43452 
59 1 0.0833333 0.35 0.116552 -4.41909 
78 1 0.0666667 0.4 0.058214 -4.40748 
63 1 0.116667 0.25 0.0578833 -4.40729 
79 1 0.1 0.4 -0.00100474 -3.90388 
80 1 0.116667 0.35 0.057873 -4.40621 
82 1 0.1 0.3 -0.00101115 -3.90391 
83 1 0.15 0.25 -0.00117553 -3.90346 
84 1 0.15 0.35 -0.0011812 -3.90331 
174 1 0.133333 0.3 0.116572 -4.4492 
180 1 0.183333 0.25 0.116521 -4.44908 
205 1 0.133333 0.4 0.116578 -4.44922 
206 1 0.166667 0.4 0.0577934 -4.40806 
207 1 0.183333 0.35 0.116516 -4.44911 
209 1 0.166667 0.3 0.0577857 -4.40804 
210 1 0.2 0.3 -0.00123464 -3.90361 
211 1 0.216667 0.25 0.0577475 -4.40793 
212 1 0.216667 0.35 0.0577456 -4.40793 
215 1 0.25 0.25 -0.00126685 -3.90365 
237 1 0.2 0.4 -0.0012334 -3.90363 
238 1 0.25 0.35 -0.0012674 -3.90365 
367 1 0.233333 0.4 0.11649 -4.44905 
370 1 0.233333 0.3 0.116488 -4.44906 
371 1 0.266667 0.3 0.0577205 -4.40795 
372 1 0.283333 0.25 0.11647 -4.44906 
373 1 0.283333 0.35 0.116468 -4.44906 
402 1 0.266667 0.4 0.0577211 -4.40795 
377 1 0.316667 0.25 0.0577071 -4.40795 
403 1 0.3 0.4 -0.00128703 -3.90364 
404 1 0.316667 0.35 0.0577062 -4.40794 
406 1 0.3 0.3 -0.00128617 -3.90365 
407 1 0.35 0.25 -0.0012899 -3.90365 
408 1 0.35 0.35 -0.00129069 -3.90365 
531 1 0.333333 0.3 0.116461 -4.44905 
537 1 0.383333 0.25 0.116467 -4.44904 
565 1 0.333333 0.4 0.11646 -4.44905 
566 1 0.366667 0.4 0.0577071 -4.40794 
567 1 0.383333 0.35 0.116465 -4.44904 
569 1 0.366667 0.3 0.0577081 -4.40794 
570 1 0.4 0.3 -0.00127961 -3.90369 
571 1 0.416667 0.25 0.0577207 -4.40793 
572 1 0.416667 0.35 0.0577194 -4.40793 
575 1 0.45 0.25 -0.00126642 -3.90371 
597 1 0.4 0.4 -0.00128087 -3.90369 
598 1 0.45 0.35 -0.00126794 -3.9037 
727 1 0.433333 0.4 0.116476 -4.44905 
730 1 0.433333 0.3 0.116478 -4.44905 
731 1 0.466667 0.3 0.0577303 -4.40795 
732 1 0.483333 0.25 0.116488 -4.44905 
733 1 0.483333 0.35 0.116487 -4.44905 
762 1 0.466667 0.4 0.0577281 -4.40795 
737 1 0.516667 0.25 0.0577425 -4.40795 
763 1 0.5 0.4 -0.00126162 -3.90367 
764 1 0.516667 0.35 0.0577425 -4.40795 
766 1 0.5 0.3 -0.00126002 -3.90367 
767 1 0.55 0.25 -0.00123377 -3.90368 
768 1 0.55 0.35 -0.00123279 -3.90369 
891 1 0.533333 0.3 0.116503 -4.44907 
897 1 0.583333 0.25 0.116524 -4.44924 
925 1 0.533333 0.4 0.116502 -4.44907 
926 1 0.566667 0.4 0.0577684 -4.40804 
927 1 0.583333 0.35 0.116525 -4.44924 
929 1 0.566667 0.3 0.057768 -4.40804 
930 1 0.6 0.3 -0.00120295 -3.90346 
931 1 0.616667 0.25 0.0578059 -4.4088 
932 1 0.616667 0.35 0.0578059 -4.4088 
935 1 0.65 0.25 -0.00105164 -3.89015 
957 1 0.6 0.4 -0.0012028 -3.90347 
958 1 0.65 0.35 -0.00105282 -3.89015 
1087 1 0.633333 0.4 0.11656 -4.44829 
1090 1 0.633333 0.3 0.116562 -4.44829 
1091 1 0.666667 0.3 0.0579881 -4.37594 
1092 1 0.683333 0.25 0.116473 -4.4493 
1093 1 0.683333 0.35 0.116472 -4.4493 
1120 1 0.666667 0.4 0.0579847 -4.37594 
1097 1 0.716667 0.25 0.0574947 -4.25278 
1121 1 0.7 0.4 -0.000296777 -3.54827 
1122 1 0.716667 0.35 0.0574938 -4.25279 
1124 1 0.7 0.3 -0.000292192 -3.54829 
1242 1 0.733333 0.3 0.116416 -4.42762 
1248 1 0.783333 0.25 0.116147 -4.44075 
1276 1 0.733333 0.4 0.116413 -4.42761 
1277 1 0.766667 0.4 0.0564818 -4.17786 
1278 1 0.783333 0.35 0.116148 -4.44074 
1280 1 0.766667 0.3 0.0564831 -4.17785 
1281 1 0.8 0.3 -0.000371035 -3.54612 
1282 1 0.816667 0.25 0.0580948 -4.34844 
1283 1 0.816667 0.35 0.0581023 -4.34846 
1286 1 0.85 0.25 -0.00105626 -3.89045 
1308 1 0.8 0.4 -0.000373715 -3.54611 
1309 1 0.85 0.35 -0.00103501 -3.89049 
1438 1 0.833333 0.4 0.11662 -4.44666 
1441 1 0.833333 0.3 0.116622 -4.44667 
1442 1 0.866667 0.3 0.0578755 -4.40939 
1443 1 0.883333 0.25 0.116646 -4.45013 
1444 1 0.883333 0.35 0.116689 -4.4504 
1473 1 0.866667 0.4 0.0578762 -4.4094 
1448 1 0.916667 0.25 0.0580245 -4.4059 
1474 1 0.9 0.4 -0.000997937 -3.9029 
1475 1 0.916667 0.35 0.0580975 -4.40636 
1477 1 0.9 0.3 -0.000999823 -3.90291 
1478 1 0.95 0.25 -0.000669518 -3.90449 
1479 1 0.95 0.35 -0.000508161 -3.90386 
1602 1 0.933333 0.3 0.116816 -4.40877 
1608 1 0.983333 0.25 0.117636 -4.3431 
1631 1 0.933333 0.4 0.116821 -4.40877 
1632 1 0.966667 0.4 0.0586756 -4.4 
1633 1 0.983333 0.35 0.119118 -4.26573 
1635 1 0.966667 0.3 0.0586685 -4.39999 
12 1 0 0.5 -0.000744023 -3.90358 
13 1 0.0166667 0.45 0.0583551 -4.3977 
14 1 0.0166667 0.55 0.0581284 -4.40756 
17 1 0.05 0.45 -0.000794456 -3.90339 
21 1 0 0.6 -0.000875115 -3.90372 
22 1 0.05 0.55 -0.000908096 -3.90365 
71 1 0.0333333 0.6 0.116876 -4.44961 
74 1 0.0333333 0.5 0.116877 -4.42423 
75 1 0.0666667 0.5 0.0580508 -4.40755 
76 1 0.0833333 0.45 0.116654 -4.43454 
77 1 0.0833333 0.55 0.11675 -4.44934 
95 1 0.0666667 0.6 0.0580513 -4.40847 
81 1 0.116667 0.45 0.0578857 -4.40726 
96 1 0.1 0.6 -0.00103009 -3.90376 
97 1 0.116667 0.55 0.0579152 -4.40809 
99 1 0.1 0.5 -0.00104681 -3.9036 
100 1 0.15 0.45 -0.00116667 -3.90346 
101 1 0.15 0.55 -0.00115257 -3.90363 
202 1 0.133333 0.5 0.116601 -4.44912 
208 1 0.183333 0.45 0.116526 -4.44907 
229 1 0.133333 0.6 0.116621 -4.44901 
230 1 0.166667 0.6 0.0578167 -4.4079 
231 1 0.183333 0.55 0.116536 -4.44903 
233 1 0.166667 0.5 0.0578041 -4.40796 
234 1 0.2 0.5 -0.00122409 -3.90364 
235 1 0.216667 0.45 0.0577521 -4.40793 
236 1 0.216667 0.55 0.0577566 -4.40793 
239 1 0.25 0.45 -0.00126488 -3.90365 
253 1 0.2 0.6 -0.00122006 -3.90362 
254 1 0.25 0.55 -0.0012633 -3.90364 
395 1 0.233333 0.6 0.116499 -4.44906 
398 1 0.233333 0.5 0.116494 -4.44906 
399 1 0.266667 0.5 0.0577221 -4.40794 
400 1 0.283333 0.45 0.116471 -4.44906 
401 1 0.283333 0.55 0.11647 -4.44905 
422 1 0.266667 0.6 0.0577245 -4.40795 
405 1 0.316667 0.45 0.0577062 -4.40795 
423 1 0.3 0.6 -0.00128397 -3.90364 
424 1 0.316667 0.55 0.0577069 -4.40794 
426 1 0.3 0.5 -0.00128603 -3.90364 
427 1 0.35 0.45 -0.00129175 -3.90365 
428 1 0.35 0.55 -0.00129104 -3.90365 
562 1 0.333333 0.5 0.116459 -4.44905 
568 1 0.383333 0.45 0.116464 -4.44904 
589 1 0.333333 0.6 0.116461 -4.44904 
590 1 0.366667 0.6 0.0577066 -4.40794 
591 1 0.383333 0.55 0.116464 -4.44904 
593 1 0.366667 0.5 0.0577064 -4.40793 
594 1 0.4 0.5 -0.00128251 -3.90369 
595 1 0.416667 0.45 0.0577174 -4.40793 
596 1 0.416667 0.55 0.0577155 -4.40793 
599 1 0.45 0.45 -0.00127078 -3.9037 
613 1 0.4 0.6 -0.00128413 -3.90368 
614 1 0.45 0.55 -0.00127271 -3.90369 
755 1 0.433333 0.6 0.116473 -4.44905 
758 1 0.433333 0.5 0.116474 -4.44905 
759 1 0.466667 0.5 0.0577264 -4.40795 
760 1 0.483333 0.45 0.116485 -4.44905 
761 1 0.483333 0.55 0.116484 -4.44905 
782 1 0.466667 0.6 0.0577253 -4.40795 
765 1 0.516667 0.45 0.0577418 -4.40795 
783 1 0.5 0.6 -0.00126361 -3.90368 
784 1 0.516667 0.55 0.0577393 -4.40795 
786 1 0.5 0.5 -0.00126242 -3.90367 
787 1 0.55 0.45 -0.00123295 -3.9037 
788 1 0.55 0.55 -0.00123838 -3.9037 
922 1 0.533333 0.5 0.116501 -4.44907 
928 1 0.583333 0.45 0.116523 -4.44923 
949 1 0.533333 0.6 0.116496 -4.44907 
950 1 0.566667 0.6 0.0577575 -4.40804 
951 1 0.583333 0.55 0.116518 -4.44924 
953 1 0.566667 0.5 0.0577647 -4.40805 
954 1 0.6 0.5 -0.00120949 -3.90347 
955 1 0.616667 0.45 0.0578028 -4.40879 
956 1 0.616667 0.55 0.0577948 -4.40879 
959 1 0.65 0.45 -0.0010573 -3.89015 
973 1 0.6 0.6 -0.00122032 -3.90352 
974 1 0.65 0.55 -0.00106546 -3.89034 
1113 1 0.633333 0.6 0.116546 -4.44807 
1116 1 0.633333 0.5 0.116554 -4.44829 
1117 1 0.666667 0.5 0.057978 -4.37597 
1118 1 0.683333 0.45 0.116467 -4.44931 
1119 1 0.683333 0.55 0.116461 -4.449 
1138 1 0.666667 0.6 0.0579683 -4.37606 
1123 1 0.716667 0.45 0.0574871 -4.2528 
1139 1 0.7 0.6 -0.000383807 -3.56258 
1140 1 0.716667 0.55 0.0574662 -4.25246 
1142 1 0.7 0.5 -0.000309626 -3.54839 
1273 1 0.733333 0.5 0.116409 -4.42747 
1279 1 0.783333 0.45 0.116143 -4.44061 
1300 1 0.733333 0.6 0.116366 -4.42868 
1301 1 0.766667 0.6 0.0563444 -4.19339 
1302 1 0.783333 0.55 0.116121 -4.44153 
1304 1 0.766667 0.5 0.0564772 -4.17761 
1305 1 0.8 0.5 -0.000382089 -3.5463 
1306 1 0.816667 0.45 0.0580918 -4.34837 
1307 1 0.816667 0.55 0.0580665 -4.34849 
1310 1 0.85 0.45 -0.00105586 -3.89043 
1324 1 0.8 0.6 -0.000479319 -3.55972 
1325 1 0.85 0.55 -0.00108167 -3.89044 
1466 1 0.833333 0.6 0.116598 -4.44751 
1469 1 0.833333 0.5 0.116603 -4.44655 
1470 1 0.866667 0.5 0.0578411 -4.40909 
1471 1 0.883333 0.45 0.116649 -4.45013 
1472 1 0.883333 0.55 0.116608 -4.44987 
1493 1 0.866667 0.6 0.0578307 -4.40889 
1476 1 0.916667 0.45 0.0580336 -4.40592 
1494 1 0.9 0.6 -0.00107543 -3.90294 
1495 1 0.916667 0.55 0.0579565 -4.4071 
1497 1 0.9 0.5 -0.00105437 -3.90292 
1498 1 0.95 0.45 -0.000654233 -3.90449 
1499 1 0.95 0.55 -0.000882053 -3.90392 
1628 1 0.933333 0.5 0.11669 -4.43402 
1634 1 0.983333 0.45 0.117653 -4.34313 
1649 1 0.933333 0.6 0.116735 -4.44906 
1650 1 0.966667 0.6 0.0580754 -4.40631 
1651 1 0.983333 0.55 0.116786 -4.43444 
1653 1 0.966667 0.5 0.058282 -4.40773 
18 1 0 0.7 -0.000732649 -3.90385 
19 1 0.0166667 0.65 0.0581431 -4.40739 
20 1 0.0166667 0.75 0.0583501 -4.39881 
23 1 0.05 0.65 -0.000902537 -3.90366 
27 1 0 0.8 -0.000657763 -3.90249 
28 1 0.05 0.75 -0.000774521 -3.90382 
88 1 0.0333333 0.8 0.117697 -4.35799 
91 1 0.0333333 0.7 0.116918 -4.42392 
92 1 0.0666667 0.7 0.058071 -4.40722 
93 1 0.0833333 0.65 0.116765 -4.44929 
94 1 0.0833333 0.75 0.116691 -4.43426 
107 1 0.0666667 0.8 0.0582257 -4.40883 
98 1 0.116667 0.65 0.057923 -4.40807 
108 1 0.1 0.8 -0.000980967 -3.90415 
109 1 0.116667 0.75 0.0579129 -4.40707 
111 1 0.1 0.7 -0.00102689 -3.90364 
112 1 0.15 0.65 -0.00114296 -3.90364 
113 1 0.15 0.75 -0.00114922 -3.90348 
226 1 0.133333 0.7 0.116622 -4.4491 
232 1 0.183333 0.65 0.116541 -4.44903 
245 1 0.133333 0.8 0.116608 -4.44902 
246 1 0.166667 0.8 0.0578113 -4.40797 
247 1 0.183333 0.75 0.11654 -4.44905 
249 1 0.166667 0.7 0.0578168 -4.40797 
250 1 0.2 0.7 -0.00122059 -3.90361 
251 1 0.216667 0.65 0.0577579 -4.40793 
252 1 0.216667 0.75 0.0577588 -4.40793 
255 1 0.25 0.65 -0.00126166 -3.90363 
261 1 0.2 0.8 -0.00121998 -3.90362 
262 1 0.25 0.75 -0.00125751 -3.90365 
415 1 0.233333 0.8 0.116498 -4.44904 
418 1 0.233333 0.7 0.116497 -4.44905 
419 1 0.266667 0.7 0.0577266 -4.40793 
420 1 0.283333 0.65 0.116472 -4.44905 
421 1 0.283333 0.75 0.116476 -4.44905 
434 1 0.266667 0.8 0.0577303 -4.40793 
425 1 0.316667 0.65 0.0577093 -4.40794 
435 1 0.3 0.8 -0.00127882 -3.90366 
436 1 0.316667 0.75 0.0577116 -4.40795 
438 1 0.3 0.7 -0.00128071 -3.90365 
439 1 0.35 0.65 -0.00129024 -3.90365 
440 1 0.35 0.75 -0.00128981 -3.90365 
586 1 0.333333 0.7 0.116463 -4.44905 
592 1 0.383333 0.65 0.116464 -4.44905 
605 1 0.333333 0.8 0.116464 -4.44905 
606 1 0.366667 0.8 0.0577071 -4.40794 
607 1 0.383333 0.75 0.116463 -4.44905 
609 1 0.366667 0.7 0.0577064 -4.40794 
610 1 0.4 0.7 -0.00128478 -3.90367 
611 1 0.416667 0.65 0.0577147 -4.40793 
612 1 0.416667 0.75 0.0577144 -4.40793 
615 1 0.45 0.65 -0.00127342 -3.9037 
621 1 0.4 0.8 -0.00128483 -3.90367 
622 1 0.45 0.75 -0.00127356 -3.9037 
775 1 0.433333 0.8 0.116472 -4.44904 
778 1 0.433333 0.7 0.116472 -4.44905 
779 1 0.466667 0.7 0.0577243 -4.40794 
780 1 0.483333 0.65 0.116482 -4.44905 
781 1 0.483333 0.75 0.116481 -4.44905 
794 1 0.466667 0.8 0.0577243 -4.40794 
785 1 0.516667 0.65 0.0577361 -4.40794 
795 1 0.5 0.8 -0.00126552 -3.90368 
796 1 0.516667 0.75 0.0577348 -4.40794 
798 1 0.5 0.7 -0.00126556 -3.90368 
799 1 0.55 0.65 -0.00124563 -3.90369 
800 1 0.55 0.75 -0.00124852 -3.90369 
946 1 0.533333 0.7 0.116493 -4.44906 
952 1 0.583333 0.65 0.116509 -4.44917 
965 1 0.533333 0.8 0.116493 -4.44906 
966 1 0.566667 0.8 0.057751 -4.40798 
967 1 0.583333 0.75 0.116503 -4.44913 
969 1 0.566667 0.7 0.0577509 -4.40798 
970 1 0.6 0.7 -0.00123135 -3.90353 
971 1 0.616667 0.65 0.0577775 -4.40852 
972 1 0.616667 0.75 0.0577609 -4.40847 
975 1 0.65 0.65 -0.00111964 -3.8897 
981 1 0.6 0.8 -0.00123124 -3.90353 
982 1 0.65 0.75 -0.00118981 -3.90415 
1131 1 0.633333 0.8 0.116517 -4.44884 
1134 1 0.633333 0.7 0.116517 -4.44884 
1135 1 0.666667 0.7 0.0578307 -4.39246 
1136 1 0.683333 0.65 0.116417 -4.45018 
1137 1 0.683333 0.75 0.116531 -4.44888 
1148 1 0.666667 0.8 0.0578306 -4.39247 
1141 1 0.716667 0.65 0.0573038 -4.28175 
1149 1 0.7 0.8 -0.000772405 -3.72321 
1150 1 0.716667 0.75 0.0579544 -4.35199 
1152 1 0.7 0.7 -0.000772026 -3.7232 
1153 1 0.75 0.75 -0.000363226 -3.57832 
1297 1 0.733333 0.7 0.116511 -4.43843 
1303 1 0.783333 0.65 0.116337 -4.43949 
1316 1 0.733333 0.8 0.116509 -4.43842 
1317 1 0.766667 0.8 0.0574573 -4.27875 
1318 1 0.783333 0.75 0.116386 -4.45004 
1320 1 0.766667 0.7 0.0574612 -4.27876 
1321 1 0.8 0.7 -0.000581171 -3.72439 
1322 1 0.816667 0.65 0.0580194 -4.36453 
1323 1 0.816667 0.75 0.05808 -4.37676 
1326 1 0.85 0.65 -0.00108652 -3.88979 
1332 1 0.8 0.8 -0.000584799 -3.72439 
1333 1 0.85 0.75 -0.00105479 -3.90437 
1486 1 0.833333 0.8 0.116635 -4.44741 
1489 1 0.833333 0.7 0.116635 -4.44737 
1490 1 0.866667 0.7 0.0578801 -4.40884 
1491 1 0.883333 0.65 0.116627 -4.44973 
1492 1 0.883333 0.75 0.116668 -4.44969 
1505 1 0.866667 0.8 0.0578856 -4.40896 
1496 1 0.916667 0.65 0.0579703 -4.4071 
1506 1 0.9 0.8 -0.00102006 -3.90324 
1507 1 0.916667 0.75 0.0580249 -4.4071 
1509 1 0.9 0.7 -0.00103382 -3.90333 
1510 1 0.95 0.65 -0.000878289 -3.90412 
1511 1 0.95 0.75 -0.000775331 -3.90382 
1646 1 0.933333 0.7 0.116724 -4.43422 
1652 1 0.983333 0.65 0.116816 -4.4344 
1659 1 0.933333 0.8 0.116829 -4.42372 
1660 1 0.966667 0.8 0.0583217 -4.39873 
1661 1 0.983333 0.75 0.117739 -4.35817 
1663 1 0.966667 0.7 0.0582904 -4.40899 
24 1 0 0.9 -0.000788541 -3.90377 
25 1 0.0166667 0.85 0.0583156 -4.39874 
26 1 0.0166667 0.95 0.0580646 -4.40724 
29 1 0.05 0.85 -0.000801051 -3.90378 
30 1 0.05 0.95 -0.000971011 -3.90354 
103 1 0.0333333 0.9 0.116849 -4.4238 
104 1 0.0666667 0.9 0.0580261 -4.40719 
105 1 0.0833333 0.85 0.11667 -4.43429 
106 1 0.0833333 0.95 0.116712 -4.44926 
110 1 0.116667 0.85 0.057905 -4.40708 
114 1 0.116667 0.95 0.0578913 -4.40807 
115 1 0.1 0.9 -0.00105575 -3.90362 
116 1 0.15 0.85 -0.00115619 -3.9035 
117 1 0.15 0.95 -0.00115987 -3.90362 
242 1 0.133333 0.9 0.116606 -4.44913 
248 1 0.183333 0.85 0.116534 -4.44904 
256 1 0.183333 0.95 0.116536 -4.44905 
257 1 0.166667 0.9 0.0578082 -4.40798 
258 1 0.2 0.9 -0.00122085 -3.90363 
259 1 0.216667 0.85 0.0577588 -4.40791 
260 1 0.216667 0.95 0.0577572 -4.40793 
263 1 0.25 0.85 -0.00125503 -3.90367 
264 1 0.25 0.95 -0.00125739 -3.90366 
430 1 0.233333 0.9 0.116498 -4.44904 
431 1 0.266667 0.9 0.05773 -4.40793 
432 1 0.283333 0.85 0.116477 -4.44905 
433 1 0.283333 0.95 0.116476 -4.44905 
437 1 0.316667 0.85 0.0577123 -4.40794 
441 1 0.316667 0.95 0.0577122 -4.40795 
442 1 0.3 0.9 -0.00127839 -3.90366 
443 1 0.35 0.85 -0.00128904 -3.90365 
444 1 0.35 0.95 -0.00128874 -3.90365 
602 1 0.333333 0.9 0.116465 -4.44905 
608 1 0.383333 0.85 0.116464 -4.44905 
616 1 0.383333 0.95 0.116465 -4.44905 
617 1 0.366667 0.9 0.0577078 -4.40794 
618 1 0.4 0.9 -0.00128363 -3.90367 
619 1 0.416667 0.85 0.0577148 -4.40793 
620 1 0.416667 0.95 0.0577162 -4.40793 
623 1 0.45 0.85 -0.00127335 -3.90369 
624 1 0.45 0.95 -0.00127252 -3.90369 
790 1 0.433333 0.9 0.116473 -4.44905 
791 1 0.466667 0.9 0.0577254 -4.40794 
792 1 0.483333 0.85 0.116482 -4.44905 
793 1 0.483333 0.95 0.116484 -4.44905 
797 1 0.516667 0.85 0.0577362 -4.40795 
801 1 0.516667 0.95 0.0577395 -4.40795 
802 1 0.5 0.9 -0.00126348 -3.90368 
803 1 0.55 0.85 -0.00124544 -3.90369 
804 1 0.55 0.95 -0.00123817 -3.9037 
962 1 0.533333 0.9 0.116497 -4.44907 
968 1 0.583333 0.85 0.116509 -4.44917 
976 1 0.583333 0.95 0.116518 -4.44924 
977 1 0.566667 0.9 0.0577578 -4.40804 
978 1 0.6 0.9 -0.00122008 -3.90352 
979 1 0.616667 0.85 0.0577776 -4.40852 
980 1 0.616667 0.95 0.057795 -4.40879 
983 1 0.65 0.85 -0.00111965 -3.8897 
984 1 0.65 0.95 -0.00106536 -3.89034 
1144 1 0.633333 0.9 0.116547 -4.44807 
1145 1 0.666667 0.9 0.057968 -4.37607 
1146 1 0.683333 0.85 0.116417 -4.45018 
1147 1 0.683333 0.95 0.11646 -4.449 
1151 1 0.716667 0.85 0.0573027 -4.28175 
1154 1 0.716667 0.95 0.0574629 -4.25244 
1155 1 0.7 0.9 -0.000385338 -3.56259 
1313 1 0.733333 0.9 0.116361 -4.42867 
1319 1 0.783333 0.85 0.11633 -4.43948 
1327 1 0.783333 0.95 0.11611 -4.44151 
1328 1 0.766667 0.9 0.0563345 -4.19341 
1329 1 0.8 0.9 -0.000490052 -3.55971 
1330 1 0.816667 0.85 0.0580168 -4.36456 
1331 1 0.816667 0.95 0.0580546 -4.34849 
1334 1 0.85 0.85 -0.00108443 -3.88983 
1335 1 0.85 0.95 -0.00109984 -3.89047 
1501 1 0.833333 0.9 0.116594 -4.4475 
1502 1 0.866667 0.9 0.0578252 -4.40889 
1503 1 0.883333 0.85 0.116644 -4.44984 
1504 1 0.883333 0.95 0.116586 -4.44986 
1508 1 0.916667 0.85 0.0579997 -4.40714 
1512 1 0.916667 0.95 0.0579225 -4.40707 
1513 1 0.9 0.9 -0.00108147 -3.90317 
1514 1 0.95 0.85 -0.000803854 -3.9038 
1515 1 0.95 0.95 -0.000935221 -3.90422 
1656 1 0.933333 0.9 0.116676 -4.43422 
1662 1 0.983333 0.85 0.117687 -4.35791 
1664 1 0.983333 0.95 0.116734 -4.43428 
1665 1 0.966667 0.9 0.058236 -4.40884 
31 1 0 0.1 0.175636 -4.44993 
32 1 0.0166667 0.05 0.234498 -4.44112 
33 1 0.0166667 0.15 0.234545 -4.42626 
34 1 0 0 0.175603 -4.45118 
36 1 0.05 0.05 0.175586 -4.45001 
39 1 0 0.2 0.17561 -4.35381 
41 1 0.05 0.15 0.175623 -4.43732 
131 1 0.0666667 0.1 0.234438 -4.45081 
134 1 0.0666667 0 0.234303 -4.44943 
148 1 0.0666667 0.2 0.23433 -4.4343 
135 1 0.1 0 0.175455 -4.45017 
136 1 0.116667 0.05 0.234204 -4.44923 
149 1 0.1 0.2 0.175441 -4.45128 
150 1 0.116667 0.15 0.234194 -4.44929 
152 1 0.1 0.1 0.175472 -4.45054 
154 1 0.15 0.05 0.175373 -4.45014 
155 1 0.15 0.15 0.175365 -4.45004 
288 1 0.166667 0 0.23416 -4.45004 
304 1 0.166667 0.2 0.234142 -4.45 
307 1 0.166667 0.1 0.234154 -4.45004 
308 1 0.2 0.1 0.175326 -4.45027 
309 1 0.216667 0.05 0.234128 -4.44999 
310 1 0.216667 0.15 0.234123 -4.44999 
311 1 0.2 0 0.175325 -4.45026 
313 1 0.25 0.05 0.175295 -4.45025 
335 1 0.2 0.2 0.175315 -4.45026 
337 1 0.25 0.15 0.175294 -4.45026 
475 1 0.266667 0.1 0.234104 -4.44999 
478 1 0.266667 0 0.234105 -4.44998 
498 1 0.266667 0.2 0.234105 -4.44999 
479 1 0.3 0 0.175279 -4.45024 
480 1 0.316667 0.05 0.234094 -4.44998 
499 1 0.3 0.2 0.175276 -4.45025 
500 1 0.316667 0.15 0.234091 -4.44998 
502 1 0.3 0.1 0.175276 -4.45024 
504 1 0.35 0.05 0.175275 -4.45024 
505 1 0.35 0.15 0.175274 -4.45024 
648 1 0.366667 0 0.234096 -4.44998 
664 1 0.366667 0.2 0.234095 -4.44997 
667 1 0.366667 0.1 0.234096 -4.44998 
668 1 0.4 0.1 0.175282 -4.45024 
669 1 0.416667 0.05 0.234104 -4.44998 
670 1 0.416667 0.15 0.234105 -4.44998 
671 1 0.4 0 0.175281 -4.45024 
673 1 0.45 0.05 0.17529 -4.45024 
695 1 0.4 0.2 0.175283 -4.45024 
697 1 0.45 0.15 0.175292 -4.45024 
835 1 0.466667 0.1 0.234113 -4.44998 
838 1 0.466667 0 0.234112 -4.44998 
858 1 0.466667 0.2 0.234114 -4.44998 
839 1 0.5 0 0.1753 -4.45025 
840 1 0.516667 0.05 0.234123 -4.44999 
859 1 0.5 0.2 0.175302 -4.45025 
860 1 0.516667 0.15 0.234123 -4.44999 
862 1 0.5 0.1 0.175301 -4.45025 
864 1 0.55 0.05 0.175315 -4.45027 
865 1 0.55 0.15 0.175316 -4.45028 
1008 1 0.566667 0 0.234131 -4.44997 
1024 1 0.566667 0.2 0.234133 -4.44997 
1027 1 0.566667 0.1 0.234133 -4.44997 
1028 1 0.6 0.1 0.175329 -4.4501 
1029 1 0.616667 0.05 0.23413 -4.44994 
1030 1 0.616667 0.15 0.234132 -4.44994 
1031 1 0.6 0 0.175326 -4.4501 
1033 1 0.65 0.05 0.175317 -4.45057 
1055 1 0.6 0.2 0.175329 -4.4501 
1057 1 0.65 0.15 0.175321 -4.45056 
1186 1 0.666667 0.1 0.2341 -4.44986 
1189 1 0.666667 0 0.234098 -4.44984 
1209 1 0.666667 0.2 0.234104 -4.44986 
1190 1 0.7 0 0.175245 -4.4497 
1191 1 0.716667 0.05 0.234042 -4.45009 
1210 1 0.7 0.2 0.175254 -4.44979 
1211 1 0.716667 0.15 0.234047 -4.45012 
1213 1 0.7 0.1 0.175247 -4.44978 
1215 1 0.75 0.05 0.175158 -4.4481 
1216 1 0.75 0.15 0.175163 -4.44815 
1359 1 0.766667 0 0.234003 -4.45001 
1375 1 0.766667 0.2 0.234012 -4.44997 
1378 1 0.766667 0.1 0.234007 -4.44996 
1379 1 0.8 0.1 0.17516 -4.45068 
1380 1 0.816667 0.05 0.234054 -4.45015 
1381 1 0.816667 0.15 0.234057 -4.45011 
1382 1 0.8 0 0.175153 -4.45085 
1384 1 0.85 0.05 0.17535 -4.44977 
1406 1 0.8 0.2 0.175169 -4.45069 
1408 1 0.85 0.15 0.175359 -4.44969 
1546 1 0.866667 0.1 0.234162 -4.44995 
1549 1 0.866667 0 0.234155 -4.44987 
1569 1 0.866667 0.2 0.234168 -4.4499 
1550 1 0.9 0 0.1754 -4.45017 
1551 1 0.916667 0.05 0.234232 -4.44943 
1570 1 0.9 0.2 0.175424 -4.45149 
1571 1 0.916667 0.15 0.234218 -4.44962 
1573 1 0.9 0.1 0.175409 -4.4502 
1575 1 0.95 0.05 0.175546 -4.4498 
1576 1 0.95 0.15 0.175515 -4.43728 
1689 1 0.966667 0 0.234419 -4.45024 
1705 1 0.966667 0.2 0.234384 -4.42583 
1708 1 0.966667 0.1 0.234449 -4.44111 
37 1 0.0166667 0.25 0.233503 -4.34319 
38 1 0.0166667 0.35 0.232005 -4.26648 
42 1 0.05 0.25 0.175546 -4.33967 
54 1 0.05 0.35 0.175349 -4.24351 
145 1 0.0666667 0.3 0.234193 -4.41002 
169 1 0.0666667 0.4 0.234194 -4.41003 
151 1 0.116667 0.25 0.234169 -4.45038 
170 1 0.1 0.4 0.175367 -4.43898 
171 1 0.116667 0.35 0.234133 -4.45059 
173 1 0.1 0.3 0.175365 -4.43899 
175 1 0.15 0.25 0.175352 -4.45014 
176 1 0.15 0.35 0.175342 -4.45018 
328 1 0.166667 0.4 0.234134 -4.44999 
331 1 0.166667 0.3 0.234132 -4.44999 
332 1 0.2 0.3 0.175307 -4.45027 
333 1 0.216667 0.25 0.234113 -4.45 
334 1 0.216667 0.35 0.23411 -4.45 
338 1 0.25 0.25 0.175291 -4.45026 
366 1 0.2 0.4 0.175309 -4.45028 
368 1 0.25 0.35 0.17529 -4.45026 
495 1 0.266667 0.3 0.234103 -4.44999 
526 1 0.266667 0.4 0.234104 -4.44999 
501 1 0.316667 0.25 0.234092 -4.44999 
527 1 0.3 0.4 0.175276 -4.45026 
528 1 0.316667 0.35 0.234094 -4.44999 
530 1 0.3 0.3 0.175276 -4.45026 
532 1 0.35 0.25 0.175273 -4.45024 
533 1 0.35 0.35 0.175273 -4.45024 
688 1 0.366667 0.4 0.234093 -4.44998 
691 1 0.366667 0.3 0.234094 -4.44998 
692 1 0.4 0.3 0.175282 -4.45024 
693 1 0.416667 0.25 0.234106 -4.44997 
694 1 0.416667 0.35 0.234104 -4.44997 
698 1 0.45 0.25 0.175293 -4.45024 
726 1 0.4 0.4 0.17528 -4.45024 
728 1 0.45 0.35 0.175292 -4.45024 
855 1 0.466667 0.3 0.234114 -4.44998 
886 1 0.466667 0.4 0.234113 -4.44998 
861 1 0.516667 0.25 0.234123 -4.44998 
887 1 0.5 0.4 0.175301 -4.45025 
888 1 0.516667 0.35 0.234123 -4.44999 
890 1 0.5 0.3 0.175302 -4.45025 
892 1 0.55 0.25 0.175316 -4.45028 
893 1 0.55 0.35 0.175316 -4.45028 
1048 1 0.566667 0.4 0.234132 -4.44997 
1051 1 0.566667 0.3 0.234133 -4.44997 
1052 1 0.6 0.3 0.175329 -4.4501 
1053 1 0.616667 0.25 0.23413 -4.44995 
1054 1 0.616667 0.35 0.234131 -4.44995 
1058 1 0.65 0.25 0.175321 -4.45057 
1086 1 0.6 0.4 0.175329 -4.4501 
1088 1 0.65 0.35 0.175322 -4.45057 
1206 1 0.666667 0.3 0.234105 -4.44986 
1237 1 0.666667 0.4 0.234103 -4.44986 
1212 1 0.716667 0.25 0.23405 -4.45012 
1238 1 0.7 0.4 0.175252 -4.44979 
1239 1 0.716667 0.35 0.23405 -4.45013 
1241 1 0.7 0.3 0.175256 -4.44979 
1243 1 0.75 0.25 0.175166 -4.44816 
1244 1 0.75 0.35 0.175165 -4.44816 
1399 1 0.766667 0.4 0.23401 -4.44997 
1402 1 0.766667 0.3 0.234012 -4.44997 
1403 1 0.8 0.3 0.175174 -4.45072 
1404 1 0.816667 0.25 0.234063 -4.45012 
1405 1 0.816667 0.35 0.234066 -4.45016 
1409 1 0.85 0.25 0.175378 -4.4496 
1437 1 0.8 0.4 0.17517 -4.45072 
1439 1 0.85 0.35 0.175391 -4.44962 
1566 1 0.866667 0.3 0.234186 -4.44992 
1597 1 0.866667 0.4 0.234185 -4.44989 
1572 1 0.916667 0.25 0.23427 -4.43464 
1598 1 0.9 0.4 0.175507 -4.43894 
1599 1 0.916667 0.35 0.234375 -4.41999 
1601 1 0.9 0.3 0.175505 -4.43895 