ITEM: TIMESTEP
7
ITEM: NUMBER OF ATOMS
3584
ITEM: BOX BOUNDS pp pp ss
0.0000000000000000e+00 4.3111019472983898e+01
0.0000000000000000e+00 2.4890158697766498e+01
-3.6580800000000006e-03 3.4552298188307212e+01
ITEM: ATOMS id type xs ys zs c_peratom 
1 1 0 0.1 3.01337e-06 -3.90293 
2 1 0.0166667 0.05 0.0590823 -4.40994 
3 1 0.0166667 0.15 0.0592149 -4.4094 
4 1 0 0 5.6324e-07 -3.90308 
5 1 0.05 0.05 8.54689e-06 -3.90307 
9 1 0 0.2 0.00033694 -3.90364 
10 1 0.05 0.15 3.66732e-05 -3.90311 
35 1 0.0333333 0 0.11786 -4.44963 
40 1 0.0333333 0.2 0.117948 -4.42379 
43 1 0.0333333 0.1 0.118005 -4.44948 
44 1 0.0666667 0.1 0.0590576 -4.40943 
45 1 0.0833333 0.05 0.117811 -4.44938 
46 1 0.0833333 0.15 0.117829 -4.4495 
47 1 0.0666667 0 0.0589932 -4.40848 
60 1 0.0666667 0.2 0.0591249 -4.40821 
48 1 0.1 0 -1.6049e-05 -3.90333 
49 1 0.116667 0.05 0.0589796 -4.40816 
61 1 0.1 0.2 -1.88128e-06 -3.90322 
62 1 0.116667 0.15 0.0589719 -4.40832 
64 1 0.1 0.1 -1.37942e-05 -3.90343 
65 1 0.15 0.05 -3.50275e-05 -3.90369 
66 1 0.15 0.15 -3.23829e-05 -3.90359 
153 1 0.133333 0.1 0.117718 -4.44896 
156 1 0.133333 0 0.117706 -4.44906 
157 1 0.166667 0 0.0589483 -4.40802 
158 1 0.183333 0.05 0.117695 -4.4489 
177 1 0.133333 0.2 0.1177 -4.44928 
178 1 0.166667 0.2 0.058944 -4.40806 
179 1 0.183333 0.15 0.117694 -4.44892 
181 1 0.166667 0.1 0.0589513 -4.40801 
182 1 0.2 0.1 -3.78017e-05 -3.90373 
183 1 0.216667 0.05 0.0589466 -4.40805 
184 1 0.216667 0.15 0.0589465 -4.40805 
185 1 0.2 0 -3.80009e-05 -3.90374 
186 1 0.25 0.05 -3.83361e-05 -3.90375 
213 1 0.2 0.2 -3.87295e-05 -3.90375 
214 1 0.25 0.15 -3.83429e-05 -3.90376 
312 1 0.233333 0 0.117695 -4.44899 
336 1 0.233333 0.2 0.117695 -4.44898 
339 1 0.233333 0.1 0.117695 -4.44897 
340 1 0.266667 0.1 0.058947 -4.40807 
341 1 0.283333 0.05 0.117695 -4.44899 
342 1 0.283333 0.15 0.117695 -4.44899 
343 1 0.266667 0 0.058947 -4.40807 
374 1 0.266667 0.2 0.0589469 -4.40808 
344 1 0.3 0 -3.8325e-05 -3.90376 
345 1 0.316667 0.05 0.058947 -4.40807 
375 1 0.3 0.2 -3.83265e-05 -3.90376 
376 1 0.316667 0.15 0.058947 -4.40807 
378 1 0.3 0.1 -3.83274e-05 -3.90376 
379 1 0.35 0.05 -3.83253e-05 -3.90376 
380 1 0.35 0.15 -3.83254e-05 -3.90376 
503 1 0.333333 0.1 0.117695 -4.44899 
506 1 0.333333 0 0.117695 -4.44899 
507 1 0.366667 0 0.058947 -4.40807 
508 1 0.383333 0.05 0.117695 -4.44899 
534 1 0.333333 0.2 0.117695 -4.44899 
535 1 0.366667 0.2 0.058947 -4.40807 
536 1 0.383333 0.15 0.117695 -4.44899 
538 1 0.366667 0.1 0.058947 -4.40807 
539 1 0.4 0.1 -3.83246e-05 -3.90376 
540 1 0.416667 0.05 0.058947 -4.40807 
541 1 0.416667 0.15 0.058947 -4.40807 
542 1 0.4 0 -3.83246e-05 -3.90376 
543 1 0.45 0.05 -3.83562e-05 -3.90376 
573 1 0.4 0.2 -3.83246e-05 -3.90376 
574 1 0.45 0.15 -3.83562e-05 -3.90376 
672 1 0.433333 0 0.117695 -4.44899 
696 1 0.433333 0.2 0.117695 -4.44899 
699 1 0.433333 0.1 0.117695 -4.44899 
700 1 0.466667 0.1 0.058947 -4.40807 
701 1 0.483333 0.05 0.117695 -4.44899 
702 1 0.483333 0.15 0.117695 -4.44899 
703 1 0.466667 0 0.058947 -4.40807 
734 1 0.466667 0.2 0.058947 -4.40807 
704 1 0.5 0 -3.83903e-05 -3.90375 
705 1 0.516667 0.05 0.0589455 -4.4081 
735 1 0.5 0.2 -3.84223e-05 -3.90375 
736 1 0.516667 0.15 0.0589454 -4.4081 
738 1 0.5 0.1 -3.84197e-05 -3.90375 
739 1 0.55 0.05 -4.27913e-05 -3.90361 
740 1 0.55 0.15 -4.2886e-05 -3.90361 
863 1 0.533333 0.1 0.117693 -4.44905 
866 1 0.533333 0 0.117693 -4.44906 
867 1 0.566667 0 0.0589505 -4.40831 
868 1 0.583333 0.05 0.117706 -4.44933 
894 1 0.533333 0.2 0.117693 -4.44906 
895 1 0.566667 0.2 0.0589495 -4.4083 
896 1 0.583333 0.15 0.117706 -4.44931 
898 1 0.566667 0.1 0.0589495 -4.40829 
899 1 0.6 0.1 -3.01435e-06 -3.90315 
900 1 0.616667 0.05 0.0590206 -4.40904 
901 1 0.616667 0.15 0.0590185 -4.40899 
902 1 0.6 0 2.31275e-07 -3.90322 
903 1 0.65 0.05 0.00029168 -3.89099 
933 1 0.6 0.2 -3.1675e-06 -3.90314 
934 1 0.65 0.15 0.000287849 -3.89089 
1032 1 0.633333 0 0.117809 -4.44771 
1056 1 0.633333 0.2 0.1178 -4.44778 
1059 1 0.633333 0.1 0.1178 -4.4478 
1060 1 0.666667 0.1 0.0593609 -4.37537 
1061 1 0.683333 0.05 0.117723 -4.44906 
1062 1 0.683333 0.15 0.117717 -4.44911 
1063 1 0.666667 0 0.0593611 -4.37529 
1094 1 0.666667 0.2 0.0593595 -4.37531 
1064 1 0.7 0 0.00114476 -3.55007 
1065 1 0.716667 0.05 0.0587288 -4.2511 
1095 1 0.7 0.2 0.00116665 -3.54988 
1096 1 0.716667 0.15 0.0587321 -4.25113 
1098 1 0.7 0.1 0.00116723 -3.54995 
1214 1 0.733333 0.1 0.117599 -4.42845 
1217 1 0.733333 0 0.117568 -4.42832 
1218 1 0.766667 0 0.0575864 -4.17798 
1219 1 0.783333 0.05 0.117279 -4.44099 
1245 1 0.733333 0.2 0.117599 -4.42848 
1246 1 0.766667 0.2 0.057605 -4.17826 
1247 1 0.783333 0.15 0.117283 -4.44121 
1249 1 0.766667 0.1 0.0576048 -4.1783 
1250 1 0.8 0.1 0.000820387 -3.54631 
1251 1 0.816667 0.05 0.059242 -4.34745 
1252 1 0.816667 0.15 0.0592547 -4.34752 
1253 1 0.8 0 0.000779646 -3.54635 
1254 1 0.85 0.05 0.000209285 -3.89155 
1284 1 0.8 0.2 0.000821165 -3.54622 
1285 1 0.85 0.15 0.000213429 -3.89138 
1383 1 0.833333 0 0.117708 -4.44663 
1407 1 0.833333 0.2 0.117745 -4.44672 
1410 1 0.833333 0.1 0.11774 -4.44659 
1411 1 0.866667 0.1 0.0590274 -4.40869 
1412 1 0.883333 0.05 0.117727 -4.4496 
1413 1 0.883333 0.15 0.117738 -4.44977 
1414 1 0.866667 0 0.059017 -4.40865 
1445 1 0.866667 0.2 0.0590328 -4.40908 
1415 1 0.9 0 -7.27393e-05 -3.90264 
1416 1 0.916667 0.05 0.0589091 -4.40858 
1446 1 0.9 0.2 -5.08645e-05 -3.90224 
1447 1 0.916667 0.15 0.0589298 -4.40759 
1449 1 0.9 0.1 -7.61611e-05 -3.90249 
1450 1 0.95 0.05 -5.73613e-05 -3.90254 
1451 1 0.95 0.15 6.63457e-05 -3.90313 
1574 1 0.933333 0.1 0.117751 -4.44946 
1577 1 0.933333 0 0.117738 -4.44922 
1578 1 0.966667 0 0.0590471 -4.40801 
1579 1 0.983333 0.05 0.117942 -4.44927 
1605 1 0.933333 0.2 0.117707 -4.43395 
1606 1 0.966667 0.2 0.0593877 -4.40791 
1607 1 0.983333 0.15 0.117915 -4.43393 
1609 1 0.966667 0.1 0.0590703 -4.4087 
6 1 0 0.3 0.00122162 -3.90459 
7 1 0.0166667 0.25 0.0595767 -4.39647 
8 1 0.0166667 0.35 0.0600516 -4.38612 
11 1 0.05 0.25 0.000353755 -3.90378 
15 1 0 0.4 0.00122203 -3.9046 
16 1 0.05 0.35 0.000793435 -3.90544 
53 1 0.0333333 0.4 0.118735 -4.33091 
56 1 0.0333333 0.3 0.118735 -4.33092 
57 1 0.0666667 0.3 0.0593837 -4.40644 
58 1 0.0833333 0.25 0.117709 -4.4343 
59 1 0.0833333 0.35 0.117553 -4.41798 
78 1 0.0666667 0.4 0.0593836 -4.40643 
63 1 0.116667 0.25 0.0589563 -4.40752 
79 1 0.1 0.4 9.00495e-05 -3.90372 
80 1 0.116667 0.35 0.0589482 -4.40622 
82 1 0.1 0.3 8.99186e-05 -3.90373 
83 1 0.15 0.25 -4.30414e-05 -3.90331 
84 1 0.15 0.35 -5.56238e-05 -3.90308 
174 1 0.133333 0.3 0.117693 -4.44932 
180 1 0.183333 0.25 0.117685 -4.44904 
205 1 0.133333 0.4 0.117693 -4.44933 
206 1 0.166667 0.4 0.0589281 -4.40824 
207 1 0.183333 0.35 0.117674 -4.44914 
209 1 0.166667 0.3 0.0589281 -4.40824 
210 1 0.2 0.3 -4.36784e-05 -3.90374 
211 1 0.216667 0.25 0.0589464 -4.40805 
212 1 0.216667 0.35 0.0589454 -4.40804 
215 1 0.25 0.25 -3.83757e-05 -3.90377 
237 1 0.2 0.4 -4.3678e-05 -3.90374 
238 1 0.25 0.35 -3.84727e-05 -3.90378 
367 1 0.233333 0.4 0.117696 -4.44898 
370 1 0.233333 0.3 0.117696 -4.44898 
371 1 0.266667 0.3 0.0589468 -4.40809 
372 1 0.283333 0.25 0.117695 -4.44899 
373 1 0.283333 0.35 0.117695 -4.44899 
402 1 0.266667 0.4 0.0589468 -4.40809 
377 1 0.316667 0.25 0.058947 -4.40807 
403 1 0.3 0.4 -3.83407e-05 -3.90376 
404 1 0.316667 0.35 0.058947 -4.40807 
406 1 0.3 0.3 -3.83407e-05 -3.90376 
407 1 0.35 0.25 -3.83261e-05 -3.90376 
408 1 0.35 0.35 -3.83266e-05 -3.90376 
531 1 0.333333 0.3 0.117695 -4.44899 
537 1 0.383333 0.25 0.117695 -4.44899 
565 1 0.333333 0.4 0.117695 -4.44899 
566 1 0.366667 0.4 0.058947 -4.40807 
567 1 0.383333 0.35 0.117695 -4.44899 
569 1 0.366667 0.3 0.058947 -4.40807 
570 1 0.4 0.3 -3.83246e-05 -3.90376 
571 1 0.416667 0.25 0.058947 -4.40807 
572 1 0.416667 0.35 0.058947 -4.40807 
575 1 0.45 0.25 -3.83563e-05 -3.90376 
597 1 0.4 0.4 -3.83246e-05 -3.90376 
598 1 0.45 0.35 -3.83562e-05 -3.90376 
727 1 0.433333 0.4 0.117695 -4.44899 
730 1 0.433333 0.3 0.117695 -4.44899 
731 1 0.466667 0.3 0.058947 -4.40807 
732 1 0.483333 0.25 0.117695 -4.44899 
733 1 0.483333 0.35 0.117695 -4.44899 
762 1 0.466667 0.4 0.058947 -4.40807 
737 1 0.516667 0.25 0.0589454 -4.4081 
763 1 0.5 0.4 -3.84197e-05 -3.90375 
764 1 0.516667 0.35 0.0589454 -4.4081 
766 1 0.5 0.3 -3.84223e-05 -3.90375 
767 1 0.55 0.25 -4.29049e-05 -3.90361 
768 1 0.55 0.35 -4.2886e-05 -3.90361 
891 1 0.533333 0.3 0.117693 -4.44906 
897 1 0.583333 0.25 0.117706 -4.44932 
925 1 0.533333 0.4 0.117693 -4.44905 
926 1 0.566667 0.4 0.0589495 -4.40829 
927 1 0.583333 0.35 0.117706 -4.44931 
929 1 0.566667 0.3 0.0589495 -4.4083 
930 1 0.6 0.3 -3.16752e-06 -3.90314 
931 1 0.616667 0.25 0.0590185 -4.409 
932 1 0.616667 0.35 0.0590185 -4.40899 
935 1 0.65 0.25 0.000287728 -3.89088 
957 1 0.6 0.4 -3.01438e-06 -3.90315 
958 1 0.65 0.35 0.000287849 -3.89089 
1087 1 0.633333 0.4 0.1178 -4.4478 
1090 1 0.633333 0.3 0.1178 -4.44778 
1091 1 0.666667 0.3 0.0593595 -4.37531 
1092 1 0.683333 0.25 0.117717 -4.44909 
1093 1 0.683333 0.35 0.117717 -4.44911 
1120 1 0.666667 0.4 0.0593609 -4.37537 
1097 1 0.716667 0.25 0.058732 -4.25112 
1121 1 0.7 0.4 0.00116722 -3.54994 
1122 1 0.716667 0.35 0.0587322 -4.25113 
1124 1 0.7 0.3 0.00116665 -3.54988 
1242 1 0.733333 0.3 0.117599 -4.42849 
1248 1 0.783333 0.25 0.117284 -4.44119 
1276 1 0.733333 0.4 0.117599 -4.42846 
1277 1 0.766667 0.4 0.0576049 -4.1783 
1278 1 0.783333 0.35 0.117284 -4.44118 
1280 1 0.766667 0.3 0.057605 -4.17826 
1281 1 0.8 0.3 0.000821723 -3.5462 
1282 1 0.816667 0.25 0.0592609 -4.34756 
1283 1 0.816667 0.35 0.0592658 -4.34759 
1286 1 0.85 0.25 0.000229452 -3.89116 
1308 1 0.8 0.4 0.000821735 -3.54628 
1309 1 0.85 0.35 0.000241384 -3.89109 
1438 1 0.833333 0.4 0.117759 -4.44697 
1441 1 0.833333 0.3 0.11776 -4.44699 
1442 1 0.866667 0.3 0.0590475 -4.40967 
1443 1 0.883333 0.25 0.117791 -4.44992 
1444 1 0.883333 0.35 0.117831 -4.45008 
1473 1 0.866667 0.4 0.0590478 -4.40965 
1448 1 0.916667 0.25 0.0591073 -4.40655 
1474 1 0.9 0.4 8.13839e-07 -3.90232 
1475 1 0.916667 0.35 0.0592686 -4.40716 
1477 1 0.9 0.3 1.04831e-06 -3.90229 
1478 1 0.95 0.25 0.000558443 -3.90481 
1479 1 0.95 0.35 0.000922138 -3.90527 
1602 1 0.933333 0.3 0.117932 -4.40791 
1608 1 0.983333 0.25 0.118825 -4.34289 
1631 1 0.933333 0.4 0.117932 -4.4079 
1632 1 0.966667 0.4 0.0600431 -4.3984 
1633 1 0.983333 0.35 0.120519 -4.2678 
1635 1 0.966667 0.3 0.060043 -4.3984 
12 1 0 0.5 0.000340645 -3.9035 
13 1 0.0166667 0.45 0.0595803 -4.3965 
14 1 0.0166667 0.55 0.0592098 -4.40949 
17 1 0.05 0.45 0.000354598 -3.9038 
21 1 0 0.6 1.99469e-05 -3.9027 
22 1 0.05 0.55 5.20171e-05 -3.90285 
71 1 0.0333333 0.6 0.118033 -4.44982 
74 1 0.0333333 0.5 0.117959 -4.4239 
75 1 0.0666667 0.5 0.0591343 -4.40829 
76 1 0.0833333 0.45 0.117709 -4.43426 
77 1 0.0833333 0.55 0.117851 -4.44977 
95 1 0.0666667 0.6 0.0590526 -4.40964 
81 1 0.116667 0.45 0.0589562 -4.40751 
96 1 0.1 0.6 1.26842e-06 -3.90317 
97 1 0.116667 0.55 0.0589815 -4.4084 
99 1 0.1 0.5 -1.02604e-06 -3.90324 
100 1 0.15 0.45 -4.29096e-05 -3.9033 
101 1 0.15 0.55 -3.16296e-05 -3.90361 
202 1 0.133333 0.5 0.117701 -4.44924 
208 1 0.183333 0.45 0.117685 -4.44905 
229 1 0.133333 0.6 0.117729 -4.44908 
230 1 0.166667 0.6 0.0589548 -4.40803 
231 1 0.183333 0.55 0.117695 -4.4489 
233 1 0.166667 0.5 0.0589439 -4.40805 
234 1 0.2 0.5 -3.8689e-05 -3.90374 
235 1 0.216667 0.45 0.0589464 -4.40805 
236 1 0.216667 0.55 0.0589465 -4.40805 
239 1 0.25 0.45 -3.83749e-05 -3.90377 
253 1 0.2 0.6 -3.74546e-05 -3.90375 
254 1 0.25 0.55 -3.83369e-05 -3.90375 
395 1 0.233333 0.6 0.117695 -4.44897 
398 1 0.233333 0.5 0.117695 -4.44898 
399 1 0.266667 0.5 0.0589469 -4.40808 
400 1 0.283333 0.45 0.117695 -4.44899 
401 1 0.283333 0.55 0.117695 -4.44899 
422 1 0.266667 0.6 0.058947 -4.40807 
405 1 0.316667 0.45 0.058947 -4.40807 
423 1 0.3 0.6 -3.83265e-05 -3.90376 
424 1 0.316667 0.55 0.058947 -4.40807 
426 1 0.3 0.5 -3.83265e-05 -3.90376 
427 1 0.35 0.45 -3.83261e-05 -3.90376 
428 1 0.35 0.55 -3.83253e-05 -3.90376 
562 1 0.333333 0.5 0.117695 -4.44899 
568 1 0.383333 0.45 0.117695 -4.44899 
589 1 0.333333 0.6 0.117695 -4.44899 
590 1 0.366667 0.6 0.058947 -4.40807 
591 1 0.383333 0.55 0.117695 -4.44899 
593 1 0.366667 0.5 0.058947 -4.40807 
594 1 0.4 0.5 -3.83246e-05 -3.90376 
595 1 0.416667 0.45 0.058947 -4.40807 
596 1 0.416667 0.55 0.058947 -4.40807 
599 1 0.45 0.45 -3.83562e-05 -3.90376 
613 1 0.4 0.6 -3.83247e-05 -3.90376 
614 1 0.45 0.55 -3.8355e-05 -3.90376 
755 1 0.433333 0.6 0.117695 -4.44899 
758 1 0.433333 0.5 0.117695 -4.44899 
759 1 0.466667 0.5 0.058947 -4.40807 
760 1 0.483333 0.45 0.117695 -4.44899 
761 1 0.483333 0.55 0.117695 -4.44899 
782 1 0.466667 0.6 0.058947 -4.40807 
765 1 0.516667 0.45 0.0589455 -4.4081 
783 1 0.5 0.6 -3.83783e-05 -3.90375 
784 1 0.516667 0.55 0.0589455 -4.4081 
786 1 0.5 0.5 -3.83903e-05 -3.90375 
787 1 0.55 0.45 -4.27913e-05 -3.90361 
788 1 0.55 0.55 -4.26607e-05 -3.90363 
922 1 0.533333 0.5 0.117693 -4.44906 
928 1 0.583333 0.45 0.117706 -4.44933 
949 1 0.533333 0.6 0.117693 -4.44905 
950 1 0.566667 0.6 0.0589503 -4.40827 
951 1 0.583333 0.55 0.117709 -4.44928 
953 1 0.566667 0.5 0.0589505 -4.40831 
954 1 0.6 0.5 2.31264e-07 -3.90322 
955 1 0.616667 0.45 0.0590206 -4.40904 
956 1 0.616667 0.55 0.0590216 -4.40894 
959 1 0.65 0.45 0.00029168 -3.89099 
973 1 0.6 0.6 -4.90305e-06 -3.90336 
974 1 0.65 0.55 0.000278238 -3.8912 
1113 1 0.633333 0.6 0.117774 -4.44765 
1116 1 0.633333 0.5 0.117809 -4.44771 
1117 1 0.666667 0.5 0.0593611 -4.37529 
1118 1 0.683333 0.45 0.117723 -4.44906 
1119 1 0.683333 0.55 0.117666 -4.44883 
1138 1 0.666667 0.6 0.0592978 -4.37552 
1123 1 0.716667 0.45 0.0587288 -4.2511 
1139 1 0.7 0.6 0.00100388 -3.56363 
1140 1 0.716667 0.55 0.0586472 -4.25058 
1142 1 0.7 0.5 0.00114476 -3.55007 
1273 1 0.733333 0.5 0.117568 -4.42833 
1279 1 0.783333 0.45 0.11728 -4.44097 
1300 1 0.733333 0.6 0.117539 -4.42976 
1301 1 0.766667 0.6 0.0573657 -4.19409 
1302 1 0.783333 0.55 0.11721 -4.44231 
1304 1 0.766667 0.5 0.0575864 -4.17798 
1305 1 0.8 0.5 0.000780428 -3.54634 
1306 1 0.816667 0.45 0.0592506 -4.34748 
1307 1 0.816667 0.55 0.0591641 -4.34779 
1310 1 0.85 0.45 0.000229391 -3.89125 
1324 1 0.8 0.6 0.000591188 -3.5586 
1325 1 0.85 0.55 0.000168719 -3.89127 
1466 1 0.833333 0.6 0.117695 -4.44761 
1469 1 0.833333 0.5 0.117714 -4.44673 
1470 1 0.866667 0.5 0.0590219 -4.40892 
1471 1 0.883333 0.45 0.11779 -4.44985 
1472 1 0.883333 0.55 0.11772 -4.44976 
1493 1 0.866667 0.6 0.0589896 -4.40875 
1476 1 0.916667 0.45 0.0591064 -4.4065 
1494 1 0.9 0.6 -8.22343e-05 -3.9022 
1495 1 0.916667 0.55 0.058916 -4.4076 
1497 1 0.9 0.5 -5.54338e-05 -3.90225 
1498 1 0.95 0.45 0.000557755 -3.9048 
1499 1 0.95 0.55 6.02337e-05 -3.90275 
1628 1 0.933333 0.5 0.117695 -4.43394 
1634 1 0.983333 0.45 0.118826 -4.34288 
1649 1 0.933333 0.6 0.11778 -4.44947 
1650 1 0.966667 0.6 0.059104 -4.40792 
1651 1 0.983333 0.55 0.117912 -4.43413 
1653 1 0.966667 0.5 0.0593825 -4.40791 
18 1 0 0.7 0.000372923 -3.90392 
19 1 0.0166667 0.65 0.0592648 -4.4094 
20 1 0.0166667 0.75 0.0595446 -4.39888 
23 1 0.05 0.65 4.41247e-05 -3.90292 
27 1 0 0.8 0.000669542 -3.90325 
28 1 0.05 0.75 0.00036233 -3.90404 
88 1 0.0333333 0.8 0.118889 -4.35807 
91 1 0.0333333 0.7 0.118073 -4.42349 
92 1 0.0666667 0.7 0.0591693 -4.40774 
93 1 0.0833333 0.65 0.117828 -4.44956 
94 1 0.0833333 0.75 0.117761 -4.43399 
107 1 0.0666667 0.8 0.0593558 -4.40888 
98 1 0.116667 0.65 0.058968 -4.40819 
108 1 0.1 0.8 9.48176e-05 -3.90391 
109 1 0.116667 0.75 0.0589696 -4.40713 
111 1 0.1 0.7 -1.14039e-05 -3.90321 
112 1 0.15 0.65 -3.20511e-05 -3.90354 
113 1 0.15 0.75 -4.54001e-05 -3.90328 
226 1 0.133333 0.7 0.117693 -4.44916 
232 1 0.183333 0.65 0.117695 -4.44891 
245 1 0.133333 0.8 0.117713 -4.449 
246 1 0.166667 0.8 0.058933 -4.40808 
247 1 0.183333 0.75 0.117684 -4.44898 
249 1 0.166667 0.7 0.0589394 -4.40801 
250 1 0.2 0.7 -3.91536e-05 -3.90373 
251 1 0.216667 0.65 0.0589467 -4.40805 
252 1 0.216667 0.75 0.0589461 -4.40805 
255 1 0.25 0.65 -3.83314e-05 -3.90376 
261 1 0.2 0.8 -4.29396e-05 -3.90371 
262 1 0.25 0.75 -3.8409e-05 -3.90377 
415 1 0.233333 0.8 0.117695 -4.44897 
418 1 0.233333 0.7 0.117695 -4.44899 
419 1 0.266667 0.7 0.0589469 -4.40808 
420 1 0.283333 0.65 0.117695 -4.44899 
421 1 0.283333 0.75 0.117695 -4.44899 
434 1 0.266667 0.8 0.0589469 -4.40809 
425 1 0.316667 0.65 0.058947 -4.40807 
435 1 0.3 0.8 -3.83422e-05 -3.90376 
436 1 0.316667 0.75 0.058947 -4.40807 
438 1 0.3 0.7 -3.83273e-05 -3.90376 
439 1 0.35 0.65 -3.83254e-05 -3.90376 
440 1 0.35 0.75 -3.83258e-05 -3.90376 
586 1 0.333333 0.7 0.117695 -4.44899 
592 1 0.383333 0.65 0.117695 -4.44899 
605 1 0.333333 0.8 0.117695 -4.44899 
606 1 0.366667 0.8 0.058947 -4.40807 
607 1 0.383333 0.75 0.117695 -4.44899 
609 1 0.366667 0.7 0.058947 -4.40807 
610 1 0.4 0.7 -3.83251e-05 -3.90376 
611 1 0.416667 0.65 0.058947 -4.40807 
612 1 0.416667 0.75 0.058947 -4.40807 
615 1 0.45 0.65 -3.83488e-05 -3.90376 
621 1 0.4 0.8 -3.83251e-05 -3.90376 
622 1 0.45 0.75 -3.83438e-05 -3.90376 
775 1 0.433333 0.8 0.117695 -4.44899 
778 1 0.433333 0.7 0.117695 -4.44899 
779 1 0.466667 0.7 0.0589469 -4.40807 
780 1 0.483333 0.65 0.117695 -4.44899 
781 1 0.483333 0.75 0.117695 -4.44899 
794 1 0.466667 0.8 0.0589469 -4.40807 
785 1 0.516667 0.65 0.0589458 -4.40809 
795 1 0.5 0.8 -3.84607e-05 -3.90376 
796 1 0.516667 0.75 0.058946 -4.40808 
798 1 0.5 0.7 -3.84607e-05 -3.90376 
799 1 0.55 0.65 -4.21228e-05 -3.90367 
800 1 0.55 0.75 -4.15767e-05 -3.90369 
946 1 0.533333 0.7 0.117694 -4.44901 
952 1 0.583333 0.65 0.117702 -4.44921 
965 1 0.533333 0.8 0.117694 -4.44901 
966 1 0.566667 0.8 0.0589452 -4.40816 
967 1 0.583333 0.75 0.117687 -4.44918 
969 1 0.566667 0.7 0.0589452 -4.40816 
970 1 0.6 0.7 -2.92392e-05 -3.90332 
971 1 0.616667 0.65 0.058988 -4.40871 
972 1 0.616667 0.75 0.0589515 -4.40869 
975 1 0.65 0.65 0.000171261 -3.89012 
981 1 0.6 0.8 -2.92392e-05 -3.90332 
982 1 0.65 0.75 5.94908e-05 -3.90437 
1131 1 0.633333 0.8 0.117731 -4.44858 
1134 1 0.633333 0.7 0.117731 -4.44858 
1135 1 0.666667 0.7 0.0591126 -4.39236 
1136 1 0.683333 0.65 0.117654 -4.4501 
1137 1 0.683333 0.75 0.117725 -4.44848 
1148 1 0.666667 0.8 0.0591126 -4.39236 
1141 1 0.716667 0.65 0.0585093 -4.28087 
1149 1 0.7 0.8 0.000571461 -3.72403 
1150 1 0.716667 0.75 0.0592532 -4.3511 
1152 1 0.7 0.7 0.000571464 -3.72403 
1153 1 0.75 0.75 0.00102051 -3.5798 
1297 1 0.733333 0.7 0.117709 -4.43887 
1303 1 0.783333 0.65 0.117505 -4.43996 
1316 1 0.733333 0.8 0.117709 -4.43887 
1317 1 0.766667 0.8 0.058731 -4.27794 
1318 1 0.783333 0.75 0.117652 -4.44986 
1320 1 0.766667 0.7 0.058731 -4.27793 
1321 1 0.8 0.7 0.000810358 -3.7259 
1322 1 0.816667 0.65 0.0591906 -4.36399 
1323 1 0.816667 0.75 0.0594252 -4.37596 
1326 1 0.85 0.65 0.000126932 -3.89027 
1332 1 0.8 0.8 0.000810386 -3.72589 
1333 1 0.85 0.75 0.000155912 -3.90473 
1486 1 0.833333 0.8 0.117817 -4.44708 
1489 1 0.833333 0.7 0.117808 -4.44693 
1490 1 0.866667 0.7 0.0589854 -4.40879 
1491 1 0.883333 0.65 0.117714 -4.44987 
1492 1 0.883333 0.75 0.11775 -4.44974 
1505 1 0.866667 0.8 0.0589939 -4.40906 
1496 1 0.916667 0.65 0.0589588 -4.40767 
1506 1 0.9 0.8 -5.34033e-06 -3.90272 
1507 1 0.916667 0.75 0.0591166 -4.4077 
1509 1 0.9 0.7 -3.70784e-05 -3.90263 
1510 1 0.95 0.65 8.67933e-05 -3.90326 
1511 1 0.95 0.75 0.000350273 -3.90398 
1646 1 0.933333 0.7 0.117796 -4.43397 
1652 1 0.983333 0.65 0.118002 -4.43384 
1659 1 0.933333 0.8 0.117934 -4.42327 
1660 1 0.966667 0.8 0.0595109 -4.39854 
1661 1 0.983333 0.75 0.118978 -4.35797 
1663 1 0.966667 0.7 0.0594372 -4.40989 
24 1 0 0.9 0.00035727 -3.90407 
25 1 0.0166667 0.85 0.0594928 -4.39843 
26 1 0.0166667 0.95 0.0591648 -4.4078 
29 1 0.05 0.85 0.000354255 -3.90406 
30 1 0.05 0.95 2.14172e-05 -3.90318 
103 1 0.0333333 0.9 0.117956 -4.42346 
104 1 0.0666667 0.9 0.0591222 -4.40747 
105 1 0.0833333 0.85 0.11777 -4.43389 
106 1 0.0833333 0.95 0.117736 -4.44947 
110 1 0.116667 0.85 0.0589783 -4.40735 
114 1 0.116667 0.95 0.0589399 -4.40801 
115 1 0.1 0.9 -1.69397e-05 -3.90331 
116 1 0.15 0.85 -4.54216e-05 -3.90336 
117 1 0.15 0.95 -3.42144e-05 -3.90356 
242 1 0.133333 0.9 0.117697 -4.44915 
248 1 0.183333 0.85 0.117683 -4.44897 
256 1 0.183333 0.95 0.117696 -4.44897 
257 1 0.166667 0.9 0.0589425 -4.40808 
258 1 0.2 0.9 -3.90174e-05 -3.90375 
259 1 0.216667 0.85 0.0589458 -4.40804 
260 1 0.216667 0.95 0.0589473 -4.40807 
263 1 0.25 0.85 -3.84196e-05 -3.90377 
264 1 0.25 0.95 -3.83025e-05 -3.90376 
430 1 0.233333 0.9 0.117695 -4.44898 
431 1 0.266667 0.9 0.0589469 -4.40808 
432 1 0.283333 0.85 0.117695 -4.44899 
433 1 0.283333 0.95 0.117695 -4.44899 
437 1 0.316667 0.85 0.058947 -4.40807 
441 1 0.316667 0.95 0.058947 -4.40807 
442 1 0.3 0.9 -3.83261e-05 -3.90376 
443 1 0.35 0.85 -3.83258e-05 -3.90376 
444 1 0.35 0.95 -3.83256e-05 -3.90376 
602 1 0.333333 0.9 0.117695 -4.44899 
608 1 0.383333 0.85 0.117695 -4.44899 
616 1 0.383333 0.95 0.117695 -4.44899 
617 1 0.366667 0.9 0.058947 -4.40807 
618 1 0.4 0.9 -3.83247e-05 -3.90376 
619 1 0.416667 0.85 0.058947 -4.40807 
620 1 0.416667 0.95 0.058947 -4.40807 
623 1 0.45 0.85 -3.83488e-05 -3.90376 
624 1 0.45 0.95 -3.8355e-05 -3.90376 
790 1 0.433333 0.9 0.117695 -4.44899 
791 1 0.466667 0.9 0.058947 -4.40807 
792 1 0.483333 0.85 0.117695 -4.44899 
793 1 0.483333 0.95 0.117695 -4.44899 
797 1 0.516667 0.85 0.0589458 -4.40809 
801 1 0.516667 0.95 0.0589455 -4.4081 
802 1 0.5 0.9 -3.83783e-05 -3.90375 
803 1 0.55 0.85 -4.21228e-05 -3.90367 
804 1 0.55 0.95 -4.26607e-05 -3.90363 
962 1 0.533333 0.9 0.117693 -4.44905 
968 1 0.583333 0.85 0.117702 -4.44921 
976 1 0.583333 0.95 0.117709 -4.44928 
977 1 0.566667 0.9 0.0589503 -4.40827 
978 1 0.6 0.9 -4.90305e-06 -3.90336 
979 1 0.616667 0.85 0.058988 -4.40871 
980 1 0.616667 0.95 0.0590216 -4.40894 
983 1 0.65 0.85 0.000171262 -3.89012 
984 1 0.65 0.95 0.000278238 -3.8912 
1144 1 0.633333 0.9 0.117774 -4.44765 
1145 1 0.666667 0.9 0.0592978 -4.37552 
1146 1 0.683333 0.85 0.117654 -4.4501 
1147 1 0.683333 0.95 0.117666 -4.44883 
1151 1 0.716667 0.85 0.0585093 -4.28087 
1154 1 0.716667 0.95 0.0586472 -4.25058 
1155 1 0.7 0.9 0.00100388 -3.56363 
1313 1 0.733333 0.9 0.117539 -4.42976 
1319 1 0.783333 0.85 0.117505 -4.43996 
1327 1 0.783333 0.95 0.117211 -4.44232 
1328 1 0.766667 0.9 0.0573656 -4.19409 
1329 1 0.8 0.9 0.000591245 -3.5586 
1330 1 0.816667 0.85 0.059195 -4.36403 
1331 1 0.816667 0.95 0.0591641 -4.34781 
1334 1 0.85 0.85 0.00013855 -3.89019 
1335 1 0.85 0.95 0.000169479 -3.89129 
1501 1 0.833333 0.9 0.1177 -4.44771 
1502 1 0.866667 0.9 0.0589994 -4.40895 
1503 1 0.883333 0.85 0.11776 -4.44975 
1504 1 0.883333 0.95 0.117738 -4.4496 
1508 1 0.916667 0.85 0.0590963 -4.4078 
1512 1 0.916667 0.95 0.058948 -4.40762 
1513 1 0.9 0.9 -4.76368e-05 -3.90283 
1514 1 0.95 0.85 0.000341558 -3.904 
1515 1 0.95 0.95 8.31792e-05 -3.90369 
1656 1 0.933333 0.9 0.117737 -4.4339 
1662 1 0.983333 0.85 0.118875 -4.35786 
1664 1 0.983333 0.95 0.117835 -4.4338 
1665 1 0.966667 0.9 0.0593642 -4.40887 
31 1 0 0.1 0.176746 -4.44884 
32 1 0.0166667 0.05 0.235571 -4.44251 
33 1 0.0166667 0.15 0.235607 -4.42754 
34 1 0 0 0.176688 -4.4513 
36 1 0.05 0.05 0.176682 -4.44957 
39 1 0 0.2 0.176633 -4.35332 
41 1 0.05 0.15 0.176724 -4.43731 
131 1 0.0666667 0.1 0.235531 -4.45231 
134 1 0.0666667 0 0.235368 -4.4505 
148 1 0.0666667 0.2 0.235393 -4.43518 
135 1 0.1 0 0.176511 -4.4502 
136 1 0.116667 0.05 0.235263 -4.45048 
149 1 0.1 0.2 0.17651 -4.45153 
150 1 0.116667 0.15 0.235249 -4.45042 
152 1 0.1 0.1 0.176546 -4.45039 
154 1 0.15 0.05 0.176453 -4.44997 
155 1 0.15 0.15 0.17645 -4.44986 
288 1 0.166667 0 0.235225 -4.45117 
304 1 0.166667 0.2 0.235217 -4.45119 
307 1 0.166667 0.1 0.235214 -4.45119 
308 1 0.2 0.1 0.176443 -4.45005 
309 1 0.216667 0.05 0.235224 -4.45111 
310 1 0.216667 0.15 0.235224 -4.45111 
311 1 0.2 0 0.176448 -4.45009 
313 1 0.25 0.05 0.176448 -4.4501 
335 1 0.2 0.2 0.176445 -4.45013 
337 1 0.25 0.15 0.176448 -4.4501 
475 1 0.266667 0.1 0.235225 -4.45114 
478 1 0.266667 0 0.235225 -4.45113 
498 1 0.266667 0.2 0.235225 -4.45113 
479 1 0.3 0 0.176448 -4.4501 
480 1 0.316667 0.05 0.235225 -4.45113 
499 1 0.3 0.2 0.176448 -4.4501 
500 1 0.316667 0.15 0.235225 -4.45113 
502 1 0.3 0.1 0.176448 -4.4501 
504 1 0.35 0.05 0.176448 -4.4501 
505 1 0.35 0.15 0.176448 -4.4501 
648 1 0.366667 0 0.235225 -4.45113 
664 1 0.366667 0.2 0.235225 -4.45113 
667 1 0.366667 0.1 0.235225 -4.45113 
668 1 0.4 0.1 0.176448 -4.4501 
669 1 0.416667 0.05 0.235225 -4.45113 
670 1 0.416667 0.15 0.235225 -4.45113 
671 1 0.4 0 0.176448 -4.4501 
673 1 0.45 0.05 0.176448 -4.4501 
695 1 0.4 0.2 0.176448 -4.4501 
697 1 0.45 0.15 0.176448 -4.4501 
835 1 0.466667 0.1 0.235225 -4.45113 
838 1 0.466667 0 0.235225 -4.45113 
858 1 0.466667 0.2 0.235225 -4.45113 
839 1 0.5 0 0.176447 -4.45012 
840 1 0.516667 0.05 0.235224 -4.45114 
859 1 0.5 0.2 0.176447 -4.45012 
860 1 0.516667 0.15 0.235224 -4.45114 
862 1 0.5 0.1 0.176447 -4.45012 
864 1 0.55 0.05 0.176447 -4.4502 
865 1 0.55 0.15 0.176447 -4.45019 
1008 1 0.566667 0 0.235222 -4.45118 
1024 1 0.566667 0.2 0.235222 -4.45118 
1027 1 0.566667 0.1 0.235222 -4.45118 
1028 1 0.6 0.1 0.176455 -4.4499 
1029 1 0.616667 0.05 0.235224 -4.45124 
1030 1 0.616667 0.15 0.235224 -4.45124 
1031 1 0.6 0 0.176458 -4.44986 
1033 1 0.65 0.05 0.17648 -4.45059 
1055 1 0.6 0.2 0.176455 -4.44989 
1057 1 0.65 0.15 0.176476 -4.45062 
1186 1 0.666667 0.1 0.235217 -4.45062 
1189 1 0.666667 0 0.235224 -4.45054 
1209 1 0.666667 0.2 0.235217 -4.45062 
1190 1 0.7 0 0.176438 -4.4498 
1191 1 0.716667 0.05 0.235087 -4.45009 
1210 1 0.7 0.2 0.176447 -4.44984 
1211 1 0.716667 0.15 0.235083 -4.45014 
1213 1 0.7 0.1 0.176449 -4.44982 
1215 1 0.75 0.05 0.17627 -4.44709 
1216 1 0.75 0.15 0.176275 -4.44713 
1359 1 0.766667 0 0.234897 -4.45019 
1375 1 0.766667 0.2 0.234916 -4.45013 
1378 1 0.766667 0.1 0.234916 -4.4501 
1379 1 0.8 0.1 0.176252 -4.45022 
1380 1 0.816667 0.05 0.235117 -4.45071 
1381 1 0.816667 0.15 0.235122 -4.45069 
1382 1 0.8 0 0.176233 -4.45057 
1384 1 0.85 0.05 0.176499 -4.45032 
1406 1 0.8 0.2 0.176254 -4.45033 
1408 1 0.85 0.15 0.176508 -4.4502 
1546 1 0.866667 0.1 0.235287 -4.45106 
1549 1 0.866667 0 0.235276 -4.45102 
1569 1 0.866667 0.2 0.235286 -4.45114 
1550 1 0.9 0 0.176452 -4.44995 
1551 1 0.916667 0.05 0.235272 -4.45092 
1570 1 0.9 0.2 0.176452 -4.45155 
1571 1 0.916667 0.15 0.23526 -4.45087 
1573 1 0.9 0.1 0.176479 -4.45031 
1575 1 0.95 0.05 0.176596 -4.44942 
1576 1 0.95 0.15 0.176553 -4.43735 
1689 1 0.966667 0 0.23546 -4.45145 
1705 1 0.966667 0.2 0.235365 -4.42681 
1708 1 0.966667 0.1 0.235509 -4.44246 
37 1 0.0166667 0.25 0.234369 -4.34418 
38 1 0.0166667 0.35 0.232426 -4.2691 
42 1 0.05 0.25 0.176531 -4.33973 
54 1 0.05 0.35 0.176139 -4.24044 
145 1 0.0666667 0.3 0.235007 -4.41091 
169 1 0.0666667 0.4 0.235006 -4.41091 
151 1 0.116667 0.25 0.235191 -4.45161 
170 1 0.1 0.4 0.176349 -4.43919 
171 1 0.116667 0.35 0.235157 -4.45207 
173 1 0.1 0.3 0.176349 -4.43918 
175 1 0.15 0.25 0.176431 -4.44995 
176 1 0.15 0.35 0.176419 -4.45007 
328 1 0.166667 0.4 0.235204 -4.45138 
331 1 0.166667 0.3 0.235204 -4.45138 
332 1 0.2 0.3 0.176442 -4.45019 
333 1 0.216667 0.25 0.235224 -4.45111 
334 1 0.216667 0.35 0.235224 -4.45109 
338 1 0.25 0.25 0.176447 -4.4501 
366 1 0.2 0.4 0.176442 -4.45019 
368 1 0.25 0.35 0.176447 -4.4501 
495 1 0.266667 0.3 0.235225 -4.45114 
526 1 0.266667 0.4 0.235225 -4.45114 
501 1 0.316667 0.25 0.235225 -4.45113 
527 1 0.3 0.4 0.176448 -4.4501 
528 1 0.316667 0.35 0.235225 -4.45113 
530 1 0.3 0.3 0.176448 -4.4501 
532 1 0.35 0.25 0.176448 -4.4501 
533 1 0.35 0.35 0.176448 -4.4501 
688 1 0.366667 0.4 0.235225 -4.45113 
691 1 0.366667 0.3 0.235225 -4.45113 
692 1 0.4 0.3 0.176448 -4.4501 
693 1 0.416667 0.25 0.235225 -4.45113 
694 1 0.416667 0.35 0.235225 -4.45113 
698 1 0.45 0.25 0.176448 -4.4501 
726 1 0.4 0.4 0.176448 -4.4501 
728 1 0.45 0.35 0.176448 -4.4501 
855 1 0.466667 0.3 0.235225 -4.45113 
886 1 0.466667 0.4 0.235225 -4.45113 
861 1 0.516667 0.25 0.235224 -4.45114 
887 1 0.5 0.4 0.176447 -4.45012 
888 1 0.516667 0.35 0.235224 -4.45114 
890 1 0.5 0.3 0.176447 -4.45012 
892 1 0.55 0.25 0.176447 -4.45019 
893 1 0.55 0.35 0.176447 -4.45019 
1048 1 0.566667 0.4 0.235222 -4.45118 
1051 1 0.566667 0.3 0.235222 -4.45118 
1052 1 0.6 0.3 0.176455 -4.44989 
1053 1 0.616667 0.25 0.235224 -4.45124 
1054 1 0.616667 0.35 0.235224 -4.45124 
1058 1 0.65 0.25 0.176476 -4.45061 
1086 1 0.6 0.4 0.176455 -4.4499 
1088 1 0.65 0.35 0.176476 -4.45062 
1206 1 0.666667 0.3 0.235217 -4.45062 
1237 1 0.666667 0.4 0.235217 -4.45062 
1212 1 0.716667 0.25 0.235084 -4.45015 
1238 1 0.7 0.4 0.176449 -4.44982 
1239 1 0.716667 0.35 0.235083 -4.45015 
1241 1 0.7 0.3 0.176447 -4.44984 
1243 1 0.75 0.25 0.176275 -4.44714 
1244 1 0.75 0.35 0.176275 -4.44714 
1399 1 0.766667 0.4 0.234916 -4.45012 
1402 1 0.766667 0.3 0.234916 -4.45015 
1403 1 0.8 0.3 0.176257 -4.45039 
1404 1 0.816667 0.25 0.235129 -4.45069 
1405 1 0.816667 0.35 0.235136 -4.45072 
1409 1 0.85 0.25 0.176524 -4.45009 
1437 1 0.8 0.4 0.176257 -4.45033 
1439 1 0.85 0.35 0.176539 -4.45019 
1566 1 0.866667 0.3 0.235291 -4.45112 
1597 1 0.866667 0.4 0.23529 -4.45113 
1572 1 0.916667 0.25 0.235204 -4.43582 
1598 1 0.9 0.4 0.176527 -4.43896 
1599 1 0.916667 0.35 0.235349 -4.4209 
1601 1 0.9 0.3 0.176527 -4.43896 