ITEM: TIMESTEP
0
ITEM: NUMBER OF ATOMS
3584
ITEM: BOX BOUNDS pp pp ss
0.0000000000000000e+00 4.3111019472983898e+01
0.0000000000000000e+00 2.4890158697766498e+01
-3.6580800000000006e-03 3.4552298188307212e+01
ITEM: ATOMS id type xs ys zs c_peratom 
1 1 0 0.1 0.00010586 -3.90398 
2 1 0.0166667 0.05 0.0589169 -4.40682 
3 1 0.0166667 0.15 0.0589169 -4.40682 
4 1 0 0 0.00010586 -3.90398 
5 1 0.05 0.05 0.00010586 -3.90398 
9 1 0 0.2 0.00010586 -3.90398 
10 1 0.05 0.15 0.00010586 -3.90398 
35 1 0.0333333 0 0.117728 -4.45 
40 1 0.0333333 0.2 0.117728 -4.42397 
43 1 0.0333333 0.1 0.117728 -4.45 
44 1 0.0666667 0.1 0.0589169 -4.40682 
45 1 0.0833333 0.05 0.117728 -4.45 
46 1 0.0833333 0.15 0.117728 -4.45 
47 1 0.0666667 0 0.0589169 -4.40682 
60 1 0.0666667 0.2 0.0589169 -4.40682 
48 1 0.1 0 0.00010586 -3.90398 
49 1 0.116667 0.05 0.0589169 -4.40682 
61 1 0.1 0.2 0.00010586 -3.90398 
62 1 0.116667 0.15 0.0589169 -4.40682 
64 1 0.1 0.1 0.00010586 -3.90398 
65 1 0.15 0.05 0.00010586 -3.90398 
66 1 0.15 0.15 0.00010586 -3.90398 
153 1 0.133333 0.1 0.117728 -4.45 
156 1 0.133333 0 0.117728 -4.45 
157 1 0.166667 0 0.0589169 -4.40682 
158 1 0.183333 0.05 0.117728 -4.45 
177 1 0.133333 0.2 0.117728 -4.45 
178 1 0.166667 0.2 0.0589169 -4.40682 
179 1 0.183333 0.15 0.117728 -4.45 
181 1 0.166667 0.1 0.0589169 -4.40682 
182 1 0.2 0.1 0.00010586 -3.90398 
183 1 0.216667 0.05 0.0589169 -4.40682 
184 1 0.216667 0.15 0.0589169 -4.40682 
185 1 0.2 0 0.00010586 -3.90398 
186 1 0.25 0.05 0.00010586 -3.90398 
213 1 0.2 0.2 0.00010586 -3.90398 
214 1 0.25 0.15 0.00010586 -3.90398 
312 1 0.233333 0 0.117728 -4.45 
336 1 0.233333 0.2 0.117728 -4.45 
339 1 0.233333 0.1 0.117728 -4.45 
340 1 0.266667 0.1 0.0589169 -4.40682 
341 1 0.283333 0.05 0.117728 -4.45 
342 1 0.283333 0.15 0.117728 -4.45 
343 1 0.266667 0 0.0589169 -4.40682 
374 1 0.266667 0.2 0.0589169 -4.40682 
344 1 0.3 0 0.00010586 -3.90398 
345 1 0.316667 0.05 0.0589169 -4.40682 
375 1 0.3 0.2 0.00010586 -3.90398 
376 1 0.316667 0.15 0.0589169 -4.40682 
378 1 0.3 0.1 0.00010586 -3.90398 
379 1 0.35 0.05 0.00010586 -3.90398 
380 1 0.35 0.15 0.00010586 -3.90398 
503 1 0.333333 0.1 0.117728 -4.45 
506 1 0.333333 0 0.117728 -4.45 
507 1 0.366667 0 0.0589169 -4.40682 
508 1 0.383333 0.05 0.117728 -4.45 
534 1 0.333333 0.2 0.117728 -4.45 
535 1 0.366667 0.2 0.0589169 -4.40682 
536 1 0.383333 0.15 0.117728 -4.45 
538 1 0.366667 0.1 0.0589169 -4.40682 
539 1 0.4 0.1 0.00010586 -3.90398 
540 1 0.416667 0.05 0.0589169 -4.40682 
541 1 0.416667 0.15 0.0589169 -4.40682 
542 1 0.4 0 0.00010586 -3.90398 
543 1 0.45 0.05 0.00010586 -3.90398 
573 1 0.4 0.2 0.00010586 -3.90398 
574 1 0.45 0.15 0.00010586 -3.90398 
672 1 0.433333 0 0.117728 -4.45 
696 1 0.433333 0.2 0.117728 -4.45 
699 1 0.433333 0.1 0.117728 -4.45 
700 1 0.466667 0.1 0.0589169 -4.40682 
701 1 0.483333 0.05 0.117728 -4.45 
702 1 0.483333 0.15 0.117728 -4.45 
703 1 0.466667 0 0.0589169 -4.40682 
734 1 0.466667 0.2 0.0589169 -4.40682 
704 1 0.5 0 0.00010586 -3.90398 
705 1 0.516667 0.05 0.0589169 -4.40682 
735 1 0.5 0.2 0.00010586 -3.90398 
736 1 0.516667 0.15 0.0589169 -4.40682 
738 1 0.5 0.1 0.00010586 -3.90398 
739 1 0.55 0.05 0.00010586 -3.90398 
740 1 0.55 0.15 0.00010586 -3.90398 
863 1 0.533333 0.1 0.117728 -4.45 
866 1 0.533333 0 0.117728 -4.45 
867 1 0.566667 0 0.0589169 -4.40682 
868 1 0.583333 0.05 0.117728 -4.45 
894 1 0.533333 0.2 0.117728 -4.45 
895 1 0.566667 0.2 0.0589169 -4.40682 
896 1 0.583333 0.15 0.117728 -4.45 
898 1 0.566667 0.1 0.0589169 -4.40682 
899 1 0.6 0.1 0.00010586 -3.90398 
900 1 0.616667 0.05 0.0589169 -4.40682 
901 1 0.616667 0.15 0.0589169 -4.40682 
902 1 0.6 0 0.00010586 -3.90398 
903 1 0.65 0.05 0.00010586 -3.88868 
933 1 0.6 0.2 0.00010586 -3.90398 
934 1 0.65 0.15 0.00010586 -3.88868 
1032 1 0.633333 0 0.117728 -4.45 
1056 1 0.633333 0.2 0.117728 -4.45 
1059 1 0.633333 0.1 0.117728 -4.45 
1060 1 0.666667 0.1 0.0589169 -4.37823 
1061 1 0.683333 0.05 0.117728 -4.4499 
1062 1 0.683333 0.15 0.117728 -4.4499 
1063 1 0.666667 0 0.0589169 -4.37823 
1094 1 0.666667 0.2 0.0589169 -4.37823 
1064 1 0.7 0 0.00010586 -3.53941 
1065 1 0.716667 0.05 0.0589169 -4.25779 
1095 1 0.7 0.2 0.00010586 -3.53941 
1096 1 0.716667 0.15 0.0589169 -4.25779 
1098 1 0.7 0.1 0.00010586 -3.53941 
1214 1 0.733333 0.1 0.117728 -4.42142 
1217 1 0.733333 0 0.117728 -4.42142 
1218 1 0.766667 0 0.0589169 -4.1821 
1219 1 0.783333 0.05 0.117728 -4.43551 
1245 1 0.733333 0.2 0.117728 -4.42142 
1246 1 0.766667 0.2 0.0589169 -4.1821 
1247 1 0.783333 0.15 0.117728 -4.43551 
1249 1 0.766667 0.1 0.0589169 -4.1821 
1250 1 0.8 0.1 0.00010586 -3.53941 
1251 1 0.816667 0.05 0.0589169 -4.35209 
1252 1 0.816667 0.15 0.0589169 -4.35209 
1253 1 0.8 0 0.00010586 -3.53941 
1254 1 0.85 0.05 0.00010586 -3.88868 
1284 1 0.8 0.2 0.00010586 -3.53941 
1285 1 0.85 0.15 0.00010586 -3.88868 
1383 1 0.833333 0 0.117728 -4.45 
1407 1 0.833333 0.2 0.117728 -4.45 
1410 1 0.833333 0.1 0.117728 -4.45 
1411 1 0.866667 0.1 0.0589169 -4.40682 
1412 1 0.883333 0.05 0.117728 -4.45 
1413 1 0.883333 0.15 0.117728 -4.45 
1414 1 0.866667 0 0.0589169 -4.40682 
1445 1 0.866667 0.2 0.0589169 -4.40682 
1415 1 0.9 0 0.00010586 -3.90398 
1416 1 0.916667 0.05 0.0589169 -4.40682 
1446 1 0.9 0.2 0.00010586 -3.90398 
1447 1 0.916667 0.15 0.0589169 -4.40682 
1449 1 0.9 0.1 0.00010586 -3.90398 
1450 1 0.95 0.05 0.00010586 -3.90398 
1451 1 0.95 0.15 0.00010586 -3.90398 
1574 1 0.933333 0.1 0.117728 -4.45 
1577 1 0.933333 0 0.117728 -4.45 
1578 1 0.966667 0 0.0589169 -4.40682 
1579 1 0.983333 0.05 0.117728 -4.45 
1605 1 0.933333 0.2 0.117728 -4.43571 
1606 1 0.966667 0.2 0.0589169 -4.40672 
1607 1 0.983333 0.15 0.117728 -4.43571 
1609 1 0.966667 0.1 0.0589169 -4.40682 
6 1 0 0.3 0.00010586 -3.90398 
7 1 0.0166667 0.25 0.0589169 -4.39252 
8 1 0.0166667 0.35 0.0589169 -4.37823 
11 1 0.05 0.25 0.00010586 -3.90398 
15 1 0 0.4 0.00010586 -3.90398 
16 1 0.05 0.35 0.00010586 -3.90398 
53 1 0.0333333 0.4 0.117728 -4.3292 
56 1 0.0333333 0.3 0.117728 -4.3292 
57 1 0.0666667 0.3 0.0589169 -4.40672 
58 1 0.0833333 0.25 0.117728 -4.43571 
59 1 0.0833333 0.35 0.117728 -4.42142 
78 1 0.0666667 0.4 0.0589169 -4.40672 
63 1 0.116667 0.25 0.0589169 -4.40682 
79 1 0.1 0.4 0.00010586 -3.90398 
80 1 0.116667 0.35 0.0589169 -4.40682 
82 1 0.1 0.3 0.00010586 -3.90398 
83 1 0.15 0.25 0.00010586 -3.90398 
84 1 0.15 0.35 0.00010586 -3.90398 
174 1 0.133333 0.3 0.117728 -4.45 
180 1 0.183333 0.25 0.117728 -4.45 
205 1 0.133333 0.4 0.117728 -4.45 
206 1 0.166667 0.4 0.0589169 -4.40682 
207 1 0.183333 0.35 0.117728 -4.45 
209 1 0.166667 0.3 0.0589169 -4.40682 
210 1 0.2 0.3 0.00010586 -3.90398 
211 1 0.216667 0.25 0.0589169 -4.40682 
212 1 0.216667 0.35 0.0589169 -4.40682 
215 1 0.25 0.25 0.00010586 -3.90398 
237 1 0.2 0.4 0.00010586 -3.90398 
238 1 0.25 0.35 0.00010586 -3.90398 
367 1 0.233333 0.4 0.117728 -4.45 
370 1 0.233333 0.3 0.117728 -4.45 
371 1 0.266667 0.3 0.0589169 -4.40682 
372 1 0.283333 0.25 0.117728 -4.45 
373 1 0.283333 0.35 0.117728 -4.45 
402 1 0.266667 0.4 0.0589169 -4.40682 
377 1 0.316667 0.25 0.0589169 -4.40682 
403 1 0.3 0.4 0.00010586 -3.90398 
404 1 0.316667 0.35 0.0589169 -4.40682 
406 1 0.3 0.3 0.00010586 -3.90398 
407 1 0.35 0.25 0.00010586 -3.90398 
408 1 0.35 0.35 0.00010586 -3.90398 
531 1 0.333333 0.3 0.117728 -4.45 
537 1 0.383333 0.25 0.117728 -4.45 
565 1 0.333333 0.4 0.117728 -4.45 
566 1 0.366667 0.4 0.0589169 -4.40682 
567 1 0.383333 0.35 0.117728 -4.45 
569 1 0.366667 0.3 0.0589169 -4.40682 
570 1 0.4 0.3 0.00010586 -3.90398 
571 1 0.416667 0.25 0.0589169 -4.40682 
572 1 0.416667 0.35 0.0589169 -4.40682 
575 1 0.45 0.25 0.00010586 -3.90398 
597 1 0.4 0.4 0.00010586 -3.90398 
598 1 0.45 0.35 0.00010586 -3.90398 
727 1 0.433333 0.4 0.117728 -4.45 
730 1 0.433333 0.3 0.117728 -4.45 
731 1 0.466667 0.3 0.0589169 -4.40682 
732 1 0.483333 0.25 0.117728 -4.45 
733 1 0.483333 0.35 0.117728 -4.45 
762 1 0.466667 0.4 0.0589169 -4.40682 
737 1 0.516667 0.25 0.0589169 -4.40682 
763 1 0.5 0.4 0.00010586 -3.90398 
764 1 0.516667 0.35 0.0589169 -4.40682 
766 1 0.5 0.3 0.00010586 -3.90398 
767 1 0.55 0.25 0.00010586 -3.90398 
768 1 0.55 0.35 0.00010586 -3.90398 
891 1 0.533333 0.3 0.117728 -4.45 
897 1 0.583333 0.25 0.117728 -4.45 
925 1 0.533333 0.4 0.117728 -4.45 
926 1 0.566667 0.4 0.0589169 -4.40682 
927 1 0.583333 0.35 0.117728 -4.45 
929 1 0.566667 0.3 0.0589169 -4.40682 
930 1 0.6 0.3 0.00010586 -3.90398 
931 1 0.616667 0.25 0.0589169 -4.40682 
932 1 0.616667 0.35 0.0589169 -4.40682 
935 1 0.65 0.25 0.00010586 -3.88868 
957 1 0.6 0.4 0.00010586 -3.90398 
958 1 0.65 0.35 0.00010586 -3.88868 
1087 1 0.633333 0.4 0.117728 -4.45 
1090 1 0.633333 0.3 0.117728 -4.45 
1091 1 0.666667 0.3 0.0589169 -4.37823 
1092 1 0.683333 0.25 0.117728 -4.4499 
1093 1 0.683333 0.35 0.117728 -4.4499 
1120 1 0.666667 0.4 0.0589169 -4.37823 
1097 1 0.716667 0.25 0.0589169 -4.25779 
1121 1 0.7 0.4 0.00010586 -3.53941 
1122 1 0.716667 0.35 0.0589169 -4.25779 
1124 1 0.7 0.3 0.00010586 -3.53941 
1242 1 0.733333 0.3 0.117728 -4.42142 
1248 1 0.783333 0.25 0.117728 -4.43551 
1276 1 0.733333 0.4 0.117728 -4.42142 
1277 1 0.766667 0.4 0.0589169 -4.1821 
1278 1 0.783333 0.35 0.117728 -4.43551 
1280 1 0.766667 0.3 0.0589169 -4.1821 
1281 1 0.8 0.3 0.00010586 -3.53941 
1282 1 0.816667 0.25 0.0589169 -4.35209 
1283 1 0.816667 0.35 0.0589169 -4.35209 
1286 1 0.85 0.25 0.00010586 -3.88868 
1308 1 0.8 0.4 0.00010586 -3.53941 
1309 1 0.85 0.35 0.00010586 -3.88868 
1438 1 0.833333 0.4 0.117728 -4.45 
1441 1 0.833333 0.3 0.117728 -4.45 
1442 1 0.866667 0.3 0.0589169 -4.40682 
1443 1 0.883333 0.25 0.117728 -4.45 
1444 1 0.883333 0.35 0.117728 -4.45 
1473 1 0.866667 0.4 0.0589169 -4.40682 
1448 1 0.916667 0.25 0.0589169 -4.40682 
1474 1 0.9 0.4 0.00010586 -3.90398 
1475 1 0.916667 0.35 0.0589169 -4.40682 
1477 1 0.9 0.3 0.00010586 -3.90398 
1478 1 0.95 0.25 0.00010586 -3.90398 
1479 1 0.95 0.35 0.00010586 -3.90398 
1602 1 0.933333 0.3 0.117728 -4.40966 
1608 1 0.983333 0.25 0.117728 -4.34221 
1631 1 0.933333 0.4 0.117728 -4.40966 
1632 1 0.966667 0.4 0.0589169 -4.39242 
1633 1 0.983333 0.35 0.117728 -4.25523 
1635 1 0.966667 0.3 0.0589169 -4.39242 
12 1 0 0.5 0.00010586 -3.90398 
13 1 0.0166667 0.45 0.0589169 -4.39252 
14 1 0.0166667 0.55 0.0589169 -4.40682 
17 1 0.05 0.45 0.00010586 -3.90398 
21 1 0 0.6 0.00010586 -3.90398 
22 1 0.05 0.55 0.00010586 -3.90398 
71 1 0.0333333 0.6 0.117728 -4.45 
74 1 0.0333333 0.5 0.117728 -4.42397 
75 1 0.0666667 0.5 0.0589169 -4.40682 
76 1 0.0833333 0.45 0.117728 -4.43571 
77 1 0.0833333 0.55 0.117728 -4.45 
95 1 0.0666667 0.6 0.0589169 -4.40682 
81 1 0.116667 0.45 0.0589169 -4.40682 
96 1 0.1 0.6 0.00010586 -3.90398 
97 1 0.116667 0.55 0.0589169 -4.40682 
99 1 0.1 0.5 0.00010586 -3.90398 
100 1 0.15 0.45 0.00010586 -3.90398 
101 1 0.15 0.55 0.00010586 -3.90398 
202 1 0.133333 0.5 0.117728 -4.45 
208 1 0.183333 0.45 0.117728 -4.45 
229 1 0.133333 0.6 0.117728 -4.45 
230 1 0.166667 0.6 0.0589169 -4.40682 
231 1 0.183333 0.55 0.117728 -4.45 
233 1 0.166667 0.5 0.0589169 -4.40682 
234 1 0.2 0.5 0.00010586 -3.90398 
235 1 0.216667 0.45 0.0589169 -4.40682 
236 1 0.216667 0.55 0.0589169 -4.40682 
239 1 0.25 0.45 0.00010586 -3.90398 
253 1 0.2 0.6 0.00010586 -3.90398 
254 1 0.25 0.55 0.00010586 -3.90398 
395 1 0.233333 0.6 0.117728 -4.45 
398 1 0.233333 0.5 0.117728 -4.45 
399 1 0.266667 0.5 0.0589169 -4.40682 
400 1 0.283333 0.45 0.117728 -4.45 
401 1 0.283333 0.55 0.117728 -4.45 
422 1 0.266667 0.6 0.0589169 -4.40682 
405 1 0.316667 0.45 0.0589169 -4.40682 
423 1 0.3 0.6 0.00010586 -3.90398 
424 1 0.316667 0.55 0.0589169 -4.40682 
426 1 0.3 0.5 0.00010586 -3.90398 
427 1 0.35 0.45 0.00010586 -3.90398 
428 1 0.35 0.55 0.00010586 -3.90398 
562 1 0.333333 0.5 0.117728 -4.45 
568 1 0.383333 0.45 0.117728 -4.45 
589 1 0.333333 0.6 0.117728 -4.45 
590 1 0.366667 0.6 0.0589169 -4.40682 
591 1 0.383333 0.55 0.117728 -4.45 
593 1 0.366667 0.5 0.0589169 -4.40682 
594 1 0.4 0.5 0.00010586 -3.90398 
595 1 0.416667 0.45 0.0589169 -4.40682 
596 1 0.416667 0.55 0.0589169 -4.40682 
599 1 0.45 0.45 0.00010586 -3.90398 
613 1 0.4 0.6 0.00010586 -3.90398 
614 1 0.45 0.55 0.00010586 -3.90398 
755 1 0.433333 0.6 0.117728 -4.45 
758 1 0.433333 0.5 0.117728 -4.45 
759 1 0.466667 0.5 0.0589169 -4.40682 
760 1 0.483333 0.45 0.117728 -4.45 
761 1 0.483333 0.55 0.117728 -4.45 
782 1 0.466667 0.6 0.0589169 -4.40682 
765 1 0.516667 0.45 0.0589169 -4.40682 
783 1 0.5 0.6 0.00010586 -3.90398 
784 1 0.516667 0.55 0.0589169 -4.40682 
786 1 0.5 0.5 0.00010586 -3.90398 
787 1 0.55 0.45 0.00010586 -3.90398 
788 1 0.55 0.55 0.00010586 -3.90398 
922 1 0.533333 0.5 0.117728 -4.45 
928 1 0.583333 0.45 0.117728 -4.45 
949 1 0.533333 0.6 0.117728 -4.45 
950 1 0.566667 0.6 0.0589169 -4.40682 
951 1 0.583333 0.55 0.117728 -4.45 
953 1 0.566667 0.5 0.0589169 -4.40682 
954 1 0.6 0.5 0.00010586 -3.90398 
955 1 0.616667 0.45 0.0589169 -4.40682 
956 1 0.616667 0.55 0.0589169 -4.40682 
959 1 0.65 0.45 0.00010586 -3.88868 
973 1 0.6 0.6 0.00010586 -3.90398 
974 1 0.65 0.55 0.00010586 -3.88868 
1113 1 0.633333 0.6 0.117728 -4.45 
1116 1 0.633333 0.5 0.117728 -4.45 
1117 1 0.666667 0.5 0.0589169 -4.37823 
1118 1 0.683333 0.45 0.117728 -4.4499 
1119 1 0.683333 0.55 0.117728 -4.4499 
1138 1 0.666667 0.6 0.0589169 -4.37823 
1123 1 0.716667 0.45 0.0589169 -4.25779 
1139 1 0.7 0.6 0.00010586 -3.55536 
1140 1 0.716667 0.55 0.0589169 -4.25779 
1142 1 0.7 0.5 0.00010586 -3.53941 
1273 1 0.733333 0.5 0.117728 -4.42142 
1279 1 0.783333 0.45 0.117728 -4.43551 
1300 1 0.733333 0.6 0.117728 -4.42142 
1301 1 0.766667 0.6 0.0589169 -4.19667 
1302 1 0.783333 0.55 0.117728 -4.43551 
1304 1 0.766667 0.5 0.0589169 -4.1821 
1305 1 0.8 0.5 0.00010586 -3.53941 
1306 1 0.816667 0.45 0.0589169 -4.35209 
1307 1 0.816667 0.55 0.0589169 -4.35209 
1310 1 0.85 0.45 0.00010586 -3.88868 
1324 1 0.8 0.6 0.00010586 -3.55536 
1325 1 0.85 0.55 0.00010586 -3.88868 
1466 1 0.833333 0.6 0.117728 -4.45 
1469 1 0.833333 0.5 0.117728 -4.45 
1470 1 0.866667 0.5 0.0589169 -4.40682 
1471 1 0.883333 0.45 0.117728 -4.45 
1472 1 0.883333 0.55 0.117728 -4.45 
1493 1 0.866667 0.6 0.0589169 -4.40682 
1476 1 0.916667 0.45 0.0589169 -4.40682 
1494 1 0.9 0.6 0.00010586 -3.90398 
1495 1 0.916667 0.55 0.0589169 -4.40682 
1497 1 0.9 0.5 0.00010586 -3.90398 
1498 1 0.95 0.45 0.00010586 -3.90398 
1499 1 0.95 0.55 0.00010586 -3.90398 
1628 1 0.933333 0.5 0.117728 -4.43571 
1634 1 0.983333 0.45 0.117728 -4.34221 
1649 1 0.933333 0.6 0.117728 -4.45 
1650 1 0.966667 0.6 0.0589169 -4.40682 
1651 1 0.983333 0.55 0.117728 -4.43571 
1653 1 0.966667 0.5 0.0589169 -4.40672 
18 1 0 0.7 0.00010586 -3.90398 
19 1 0.0166667 0.65 0.0589169 -4.40682 
20 1 0.0166667 0.75 0.0589169 -4.39252 
23 1 0.05 0.65 0.00010586 -3.90398 
27 1 0 0.8 0.00010586 -3.90398 
28 1 0.05 0.75 0.00010586 -3.90398 
88 1 0.0333333 0.8 0.117728 -4.35661 
91 1 0.0333333 0.7 0.117728 -4.42397 
92 1 0.0666667 0.7 0.0589169 -4.40682 
93 1 0.0833333 0.65 0.117728 -4.45 
94 1 0.0833333 0.75 0.117728 -4.43571 
107 1 0.0666667 0.8 0.0589169 -4.40672 
98 1 0.116667 0.65 0.0589169 -4.40682 
108 1 0.1 0.8 0.00010586 -3.90398 
109 1 0.116667 0.75 0.0589169 -4.40682 
111 1 0.1 0.7 0.00010586 -3.90398 
112 1 0.15 0.65 0.00010586 -3.90398 
113 1 0.15 0.75 0.00010586 -3.90398 
226 1 0.133333 0.7 0.117728 -4.45 
232 1 0.183333 0.65 0.117728 -4.45 
245 1 0.133333 0.8 0.117728 -4.45 
246 1 0.166667 0.8 0.0589169 -4.40682 
247 1 0.183333 0.75 0.117728 -4.45 
249 1 0.166667 0.7 0.0589169 -4.40682 
250 1 0.2 0.7 0.00010586 -3.90398 
251 1 0.216667 0.65 0.0589169 -4.40682 
252 1 0.216667 0.75 0.0589169 -4.40682 
255 1 0.25 0.65 0.00010586 -3.90398 
261 1 0.2 0.8 0.00010586 -3.90398 
262 1 0.25 0.75 0.00010586 -3.90398 
415 1 0.233333 0.8 0.117728 -4.45 
418 1 0.233333 0.7 0.117728 -4.45 
419 1 0.266667 0.7 0.0589169 -4.40682 
420 1 0.283333 0.65 0.117728 -4.45 
421 1 0.283333 0.75 0.117728 -4.45 
434 1 0.266667 0.8 0.0589169 -4.40682 
425 1 0.316667 0.65 0.0589169 -4.40682 
435 1 0.3 0.8 0.00010586 -3.90398 
436 1 0.316667 0.75 0.0589169 -4.40682 
438 1 0.3 0.7 0.00010586 -3.90398 
439 1 0.35 0.65 0.00010586 -3.90398 
440 1 0.35 0.75 0.00010586 -3.90398 
586 1 0.333333 0.7 0.117728 -4.45 
592 1 0.383333 0.65 0.117728 -4.45 
605 1 0.333333 0.8 0.117728 -4.45 
606 1 0.366667 0.8 0.0589169 -4.40682 
607 1 0.383333 0.75 0.117728 -4.45 
609 1 0.366667 0.7 0.0589169 -4.40682 
610 1 0.4 0.7 0.00010586 -3.90398 
611 1 0.416667 0.65 0.0589169 -4.40682 
612 1 0.416667 0.75 0.0589169 -4.40682 
615 1 0.45 0.65 0.00010586 -3.90398 
621 1 0.4 0.8 0.00010586 -3.90398 
622 1 0.45 0.75 0.00010586 -3.90398 
775 1 0.433333 0.8 0.117728 -4.45 
778 1 0.433333 0.7 0.117728 -4.45 
779 1 0.466667 0.7 0.0589169 -4.40682 
780 1 0.483333 0.65 0.117728 -4.45 
781 1 0.483333 0.75 0.117728 -4.45 
794 1 0.466667 0.8 0.0589169 -4.40682 
785 1 0.516667 0.65 0.0589169 -4.40682 
795 1 0.5 0.8 0.00010586 -3.90398 
796 1 0.516667 0.75 0.0589169 -4.40682 
798 1 0.5 0.7 0.00010586 -3.90398 
799 1 0.55 0.65 0.00010586 -3.90398 
800 1 0.55 0.75 0.00010586 -3.90398 
946 1 0.533333 0.7 0.117728 -4.45 
952 1 0.583333 0.65 0.117728 -4.45 
965 1 0.533333 0.8 0.117728 -4.45 
966 1 0.566667 0.8 0.0589169 -4.40682 
967 1 0.583333 0.75 0.117728 -4.45 
969 1 0.566667 0.7 0.0589169 -4.40682 
970 1 0.6 0.7 0.00010586 -3.90398 
971 1 0.616667 0.65 0.0589169 -4.40682 
972 1 0.616667 0.75 0.0589169 -4.40682 
975 1 0.65 0.65 0.00010586 -3.88879 
981 1 0.6 0.8 0.00010586 -3.90398 
982 1 0.65 0.75 0.00010586 -3.90377 
1131 1 0.633333 0.8 0.117728 -4.45 
1134 1 0.633333 0.7 0.117728 -4.45 
1135 1 0.666667 0.7 0.0589169 -4.39252 
1136 1 0.683333 0.65 0.117728 -4.4499 
1137 1 0.683333 0.75 0.117728 -4.45 
1148 1 0.666667 0.8 0.0589169 -4.39252 
1141 1 0.716667 0.65 0.0589169 -4.28561 
1149 1 0.7 0.8 0.00010586 -3.72012 
1150 1 0.716667 0.75 0.0589169 -4.35437 
1152 1 0.7 0.7 0.00010586 -3.72012 
1153 1 0.75 0.75 0.00010586 -3.57108 
1297 1 0.733333 0.7 0.117728 -4.43571 
1303 1 0.783333 0.65 0.117728 -4.43561 
1316 1 0.733333 0.8 0.117728 -4.43571 
1317 1 0.766667 0.8 0.0589169 -4.28428 
1318 1 0.783333 0.75 0.117728 -4.4498 
1320 1 0.766667 0.7 0.0589169 -4.28428 
1321 1 0.8 0.7 0.00010586 -3.72012 
1322 1 0.816667 0.65 0.0589169 -4.36641 
1323 1 0.816667 0.75 0.0589169 -4.37823 
1326 1 0.85 0.65 0.00010586 -3.88879 
1332 1 0.8 0.8 0.00010586 -3.72012 
1333 1 0.85 0.75 0.00010586 -3.90377 
1486 1 0.833333 0.8 0.117728 -4.45 
1489 1 0.833333 0.7 0.117728 -4.45 
1490 1 0.866667 0.7 0.0589169 -4.40682 
1491 1 0.883333 0.65 0.117728 -4.45 
1492 1 0.883333 0.75 0.117728 -4.45 
1505 1 0.866667 0.8 0.0589169 -4.40682 
1496 1 0.916667 0.65 0.0589169 -4.40682 
1506 1 0.9 0.8 0.00010586 -3.90398 
1507 1 0.916667 0.75 0.0589169 -4.40682 
1509 1 0.9 0.7 0.00010586 -3.90398 
1510 1 0.95 0.65 0.00010586 -3.90398 
1511 1 0.95 0.75 0.00010586 -3.90398 
1646 1 0.933333 0.7 0.117728 -4.43571 
1652 1 0.983333 0.65 0.117728 -4.43571 
1659 1 0.933333 0.8 0.117728 -4.42397 
1660 1 0.966667 0.8 0.0589169 -4.39252 
1661 1 0.983333 0.75 0.117728 -4.35661 
1663 1 0.966667 0.7 0.0589169 -4.40672 
24 1 0 0.9 0.00010586 -3.90398 
25 1 0.0166667 0.85 0.0589169 -4.39252 
26 1 0.0166667 0.95 0.0589169 -4.40682 
29 1 0.05 0.85 0.00010586 -3.90398 
30 1 0.05 0.95 0.00010586 -3.90398 
103 1 0.0333333 0.9 0.117728 -4.42397 
104 1 0.0666667 0.9 0.0589169 -4.40682 
105 1 0.0833333 0.85 0.117728 -4.43571 
106 1 0.0833333 0.95 0.117728 -4.45 
110 1 0.116667 0.85 0.0589169 -4.40682 
114 1 0.116667 0.95 0.0589169 -4.40682 
115 1 0.1 0.9 0.00010586 -3.90398 
116 1 0.15 0.85 0.00010586 -3.90398 
117 1 0.15 0.95 0.00010586 -3.90398 
242 1 0.133333 0.9 0.117728 -4.45 
248 1 0.183333 0.85 0.117728 -4.45 
256 1 0.183333 0.95 0.117728 -4.45 
257 1 0.166667 0.9 0.0589169 -4.40682 
258 1 0.2 0.9 0.00010586 -3.90398 
259 1 0.216667 0.85 0.0589169 -4.40682 
260 1 0.216667 0.95 0.0589169 -4.40682 
263 1 0.25 0.85 0.00010586 -3.90398 
264 1 0.25 0.95 0.00010586 -3.90398 
430 1 0.233333 0.9 0.117728 -4.45 
431 1 0.266667 0.9 0.0589169 -4.40682 
432 1 0.283333 0.85 0.117728 -4.45 
433 1 0.283333 0.95 0.117728 -4.45 
437 1 0.316667 0.85 0.0589169 -4.40682 
441 1 0.316667 0.95 0.0589169 -4.40682 
442 1 0.3 0.9 0.00010586 -3.90398 
443 1 0.35 0.85 0.00010586 -3.90398 
444 1 0.35 0.95 0.00010586 -3.90398 
602 1 0.333333 0.9 0.117728 -4.45 
608 1 0.383333 0.85 0.117728 -4.45 
616 1 0.383333 0.95 0.117728 -4.45 
617 1 0.366667 0.9 0.0589169 -4.40682 
618 1 0.4 0.9 0.00010586 -3.90398 
619 1 0.416667 0.85 0.0589169 -4.40682 
620 1 0.416667 0.95 0.0589169 -4.40682 
623 1 0.45 0.85 0.00010586 -3.90398 
624 1 0.45 0.95 0.00010586 -3.90398 
790 1 0.433333 0.9 0.117728 -4.45 
791 1 0.466667 0.9 0.0589169 -4.40682 
792 1 0.483333 0.85 0.117728 -4.45 
793 1 0.483333 0.95 0.117728 -4.45 
797 1 0.516667 0.85 0.0589169 -4.40682 
801 1 0.516667 0.95 0.0589169 -4.40682 
802 1 0.5 0.9 0.00010586 -3.90398 
803 1 0.55 0.85 0.00010586 -3.90398 
804 1 0.55 0.95 0.00010586 -3.90398 
962 1 0.533333 0.9 0.117728 -4.45 
968 1 0.583333 0.85 0.117728 -4.45 
976 1 0.583333 0.95 0.117728 -4.45 
977 1 0.566667 0.9 0.0589169 -4.40682 
978 1 0.6 0.9 0.00010586 -3.90398 
979 1 0.616667 0.85 0.0589169 -4.40682 
980 1 0.616667 0.95 0.0589169 -4.40682 
983 1 0.65 0.85 0.00010586 -3.88879 
984 1 0.65 0.95 0.00010586 -3.88868 
1144 1 0.633333 0.9 0.117728 -4.45 
1145 1 0.666667 0.9 0.0589169 -4.37823 
1146 1 0.683333 0.85 0.117728 -4.4499 
1147 1 0.683333 0.95 0.117728 -4.4499 
1151 1 0.716667 0.85 0.0589169 -4.28561 
1154 1 0.716667 0.95 0.0589169 -4.25779 
1155 1 0.7 0.9 0.00010586 -3.55536 
1313 1 0.733333 0.9 0.117728 -4.42142 
1319 1 0.783333 0.85 0.117728 -4.43561 
1327 1 0.783333 0.95 0.117728 -4.43551 
1328 1 0.766667 0.9 0.0589169 -4.19667 
1329 1 0.8 0.9 0.00010586 -3.55536 
1330 1 0.816667 0.85 0.0589169 -4.36641 
1331 1 0.816667 0.95 0.0589169 -4.35209 
1334 1 0.85 0.85 0.00010586 -3.88879 
1335 1 0.85 0.95 0.00010586 -3.88868 
1501 1 0.833333 0.9 0.117728 -4.45 
1502 1 0.866667 0.9 0.0589169 -4.40682 
1503 1 0.883333 0.85 0.117728 -4.45 
1504 1 0.883333 0.95 0.117728 -4.45 
1508 1 0.916667 0.85 0.0589169 -4.40682 
1512 1 0.916667 0.95 0.0589169 -4.40682 
1513 1 0.9 0.9 0.00010586 -3.90398 
1514 1 0.95 0.85 0.00010586 -3.90398 
1515 1 0.95 0.95 0.00010586 -3.90398 
1656 1 0.933333 0.9 0.117728 -4.43571 
1662 1 0.983333 0.85 0.117728 -4.35661 
1664 1 0.983333 0.95 0.117728 -4.43571 
1665 1 0.966667 0.9 0.0589169 -4.40672 
31 1 0 0.1 0.176539 -4.4499 
32 1 0.0166667 0.05 0.23535 -4.43571 
33 1 0.0166667 0.15 0.23535 -4.42142 
34 1 0 0 0.176539 -4.4499 
36 1 0.05 0.05 0.176539 -4.45 
39 1 0 0.2 0.176539 -4.35651 
41 1 0.05 0.15 0.176539 -4.43571 
131 1 0.0666667 0.1 0.23535 -4.4499 
134 1 0.0666667 0 0.23535 -4.45 
148 1 0.0666667 0.2 0.23535 -4.43571 
135 1 0.1 0 0.176539 -4.45 
136 1 0.116667 0.05 0.23535 -4.45 
149 1 0.1 0.2 0.176539 -4.4499 
150 1 0.116667 0.15 0.23535 -4.45 
152 1 0.1 0.1 0.176539 -4.45 
154 1 0.15 0.05 0.176539 -4.45 
155 1 0.15 0.15 0.176539 -4.45 
288 1 0.166667 0 0.23535 -4.45 
304 1 0.166667 0.2 0.23535 -4.45 
307 1 0.166667 0.1 0.23535 -4.45 
308 1 0.2 0.1 0.176539 -4.45 
309 1 0.216667 0.05 0.23535 -4.45 
310 1 0.216667 0.15 0.23535 -4.45 
311 1 0.2 0 0.176539 -4.45 
313 1 0.25 0.05 0.176539 -4.45 
335 1 0.2 0.2 0.176539 -4.45 
337 1 0.25 0.15 0.176539 -4.45 
475 1 0.266667 0.1 0.23535 -4.45 
478 1 0.266667 0 0.23535 -4.45 
498 1 0.266667 0.2 0.23535 -4.45 
479 1 0.3 0 0.176539 -4.45 
480 1 0.316667 0.05 0.23535 -4.45 
499 1 0.3 0.2 0.176539 -4.45 
500 1 0.316667 0.15 0.23535 -4.45 
502 1 0.3 0.1 0.176539 -4.45 
504 1 0.35 0.05 0.176539 -4.45 
505 1 0.35 0.15 0.176539 -4.45 
648 1 0.366667 0 0.23535 -4.45 
664 1 0.366667 0.2 0.23535 -4.45 
667 1 0.366667 0.1 0.23535 -4.45 
668 1 0.4 0.1 0.176539 -4.45 
669 1 0.416667 0.05 0.23535 -4.45 
670 1 0.416667 0.15 0.23535 -4.45 
671 1 0.4 0 0.176539 -4.45 
673 1 0.45 0.05 0.176539 -4.45 
695 1 0.4 0.2 0.176539 -4.45 
697 1 0.45 0.15 0.176539 -4.45 
835 1 0.466667 0.1 0.23535 -4.45 
838 1 0.466667 0 0.23535 -4.45 
858 1 0.466667 0.2 0.23535 -4.45 
839 1 0.5 0 0.176539 -4.45 
840 1 0.516667 0.05 0.23535 -4.45 
859 1 0.5 0.2 0.176539 -4.45 
860 1 0.516667 0.15 0.23535 -4.45 
862 1 0.5 0.1 0.176539 -4.45 
864 1 0.55 0.05 0.176539 -4.45 
865 1 0.55 0.15 0.176539 -4.45 
1008 1 0.566667 0 0.23535 -4.45 
1024 1 0.566667 0.2 0.23535 -4.45 
1027 1 0.566667 0.1 0.23535 -4.45 
1028 1 0.6 0.1 0.176539 -4.45 
1029 1 0.616667 0.05 0.23535 -4.45 
1030 1 0.616667 0.15 0.23535 -4.45 
1031 1 0.6 0 0.176539 -4.45 
1033 1 0.65 0.05 0.176539 -4.45 
1055 1 0.6 0.2 0.176539 -4.45 
1057 1 0.65 0.15 0.176539 -4.45 
1186 1 0.666667 0.1 0.23535 -4.45 
1189 1 0.666667 0 0.23535 -4.45 
1209 1 0.666667 0.2 0.23535 -4.45 
1190 1 0.7 0 0.176539 -4.45 
1191 1 0.716667 0.05 0.23535 -4.45 
1210 1 0.7 0.2 0.176539 -4.45 
1211 1 0.716667 0.15 0.23535 -4.45 
1213 1 0.7 0.1 0.176539 -4.45 
1215 1 0.75 0.05 0.176539 -4.45 
1216 1 0.75 0.15 0.176539 -4.45 
1359 1 0.766667 0 0.23535 -4.45 
1375 1 0.766667 0.2 0.23535 -4.45 
1378 1 0.766667 0.1 0.23535 -4.45 
1379 1 0.8 0.1 0.176539 -4.45 
1380 1 0.816667 0.05 0.23535 -4.45 
1381 1 0.816667 0.15 0.23535 -4.45 
1382 1 0.8 0 0.176539 -4.45 
1384 1 0.85 0.05 0.176539 -4.45 
1406 1 0.8 0.2 0.176539 -4.45 
1408 1 0.85 0.15 0.176539 -4.45 
1546 1 0.866667 0.1 0.23535 -4.45 
1549 1 0.866667 0 0.23535 -4.45 
1569 1 0.866667 0.2 0.23535 -4.45 
1550 1 0.9 0 0.176539 -4.45 
1551 1 0.916667 0.05 0.23535 -4.45 
1570 1 0.9 0.2 0.176539 -4.4499 
1571 1 0.916667 0.15 0.23535 -4.45 
1573 1 0.9 0.1 0.176539 -4.45 
1575 1 0.95 0.05 0.176539 -4.45 
1576 1 0.95 0.15 0.176539 -4.43571 
1689 1 0.966667 0 0.23535 -4.4499 
1705 1 0.966667 0.2 0.23535 -4.42386 
1708 1 0.966667 0.1 0.23535 -4.43571 
37 1 0.0166667 0.25 0.23535 -4.34221 
38 1 0.0166667 0.35 0.23535 -4.25523 
42 1 0.05 0.25 0.176539 -4.34221 
54 1 0.05 0.35 0.176539 -4.25523 
145 1 0.0666667 0.3 0.23535 -4.40966 
169 1 0.0666667 0.4 0.23535 -4.40966 
151 1 0.116667 0.25 0.23535 -4.45 
170 1 0.1 0.4 0.176539 -4.43561 
171 1 0.116667 0.35 0.23535 -4.45 
173 1 0.1 0.3 0.176539 -4.43561 
175 1 0.15 0.25 0.176539 -4.45 
176 1 0.15 0.35 0.176539 -4.45 
328 1 0.166667 0.4 0.23535 -4.45 
331 1 0.166667 0.3 0.23535 -4.45 
332 1 0.2 0.3 0.176539 -4.45 
333 1 0.216667 0.25 0.23535 -4.45 
334 1 0.216667 0.35 0.23535 -4.45 
338 1 0.25 0.25 0.176539 -4.45 
366 1 0.2 0.4 0.176539 -4.45 
368 1 0.25 0.35 0.176539 -4.45 
495 1 0.266667 0.3 0.23535 -4.45 
526 1 0.266667 0.4 0.23535 -4.45 
501 1 0.316667 0.25 0.23535 -4.45 
527 1 0.3 0.4 0.176539 -4.45 
528 1 0.316667 0.35 0.23535 -4.45 
530 1 0.3 0.3 0.176539 -4.45 
532 1 0.35 0.25 0.176539 -4.45 
533 1 0.35 0.35 0.176539 -4.45 
688 1 0.366667 0.4 0.23535 -4.45 
691 1 0.366667 0.3 0.23535 -4.45 
692 1 0.4 0.3 0.176539 -4.45 
693 1 0.416667 0.25 0.23535 -4.45 
694 1 0.416667 0.35 0.23535 -4.45 
698 1 0.45 0.25 0.176539 -4.45 
726 1 0.4 0.4 0.176539 -4.45 
728 1 0.45 0.35 0.176539 -4.45 
855 1 0.466667 0.3 0.23535 -4.45 
886 1 0.466667 0.4 0.23535 -4.45 
861 1 0.516667 0.25 0.23535 -4.45 
887 1 0.5 0.4 0.176539 -4.45 
888 1 0.516667 0.35 0.23535 -4.45 
890 1 0.5 0.3 0.176539 -4.45 
892 1 0.55 0.25 0.176539 -4.45 
893 1 0.55 0.35 0.176539 -4.45 
1048 1 0.566667 0.4 0.23535 -4.45 
1051 1 0.566667 0.3 0.23535 -4.45 
1052 1 0.6 0.3 0.176539 -4.45 
1053 1 0.616667 0.25 0.23535 -4.45 
1054 1 0.616667 0.35 0.23535 -4.45 
1058 1 0.65 0.25 0.176539 -4.45 
1086 1 0.6 0.4 0.176539 -4.45 
1088 1 0.65 0.35 0.176539 -4.45 
1206 1 0.666667 0.3 0.23535 -4.45 
1237 1 0.666667 0.4 0.23535 -4.45 
1212 1 0.716667 0.25 0.23535 -4.45 
1238 1 0.7 0.4 0.176539 -4.45 
1239 1 0.716667 0.35 0.23535 -4.45 
1241 1 0.7 0.3 0.176539 -4.45 
1243 1 0.75 0.25 0.176539 -4.45 
1244 1 0.75 0.35 0.176539 -4.45 
1399 1 0.766667 0.4 0.23535 -4.45 
1402 1 0.766667 0.3 0.23535 -4.45 
1403 1 0.8 0.3 0.176539 -4.45 
1404 1 0.816667 0.25 0.23535 -4.45 
1405 1 0.816667 0.35 0.23535 -4.45 
1409 1 0.85 0.25 0.176539 -4.45 
1437 1 0.8 0.4 0.176539 -4.45 
1439 1 0.85 0.35 0.176539 -4.45 
1566 1 0.866667 0.3 0.23535 -4.45 
1597 1 0.866667 0.4 0.23535 -4.45 
1572 1 0.916667 0.25 0.23535 -4.43571 
1598 1 0.9 0.4 0.176539 -4.43561 
1599 1 0.916667 0.35 0.23535 -4.42142 
1601 1 0.9 0.3 0.176539 -4.43561 
1603 1 0.95 0.25 0.176539 -4.34221 
1604 1 0.95 0.35 0.176539 -4.25523 
1723 1 0.966667 0.4 0.23535 -4.3292 
1726 1 0.966667 0.3 0.23535 -4.3292 
50 1 0 0.5 0.176539 -4.35651 
51 1 0.0166667 0.45 0.23535 -4.34221 
52 1 0.0166667 0.55 0.23535 -4.42142 
55 1 0.05 0.45 0.176539 -4.34221 
70 1 0 0.6 0.176539 -4.4498 
72 1 0.05 0.55 0.176539 -4.43571 
166 1 0.0666667 0.5 0.23535 -4.43571 
197 1 0.0666667 0.6 0.23535 -4.4499 
172 1 0.116667 0.45 0.23535 -4.45 
198 1 0.1 0.6 0.176539 -4.45 
199 1 0.116667 0.55 0.23535 -4.45 
201 1 0.1 0.5 0.176539 -4.4499 
203 1 0.15 0.45 0.176539 -4.45 
204 1 0.15 0.55 0.176539 -4.45 
359 1 0.166667 0.6 0.23535 -4.45 
362 1 0.166667 0.5 0.23535 -4.45 
363 1 0.2 0.5 0.176539 -4.45 
364 1 0.216667 0.45 0.23535 -4.45 
365 1 0.216667 0.55 0.23535 -4.45 
369 1 0.25 0.45 0.176539 -4.45 
394 1 0.2 0.6 0.176539 -4.45 
396 1 0.25 0.55 0.176539 -4.45 
523 1 0.266667 0.5 0.23535 -4.45 
557 1 0.266667 0.6 0.23535 -4.45 
529 1 0.316667 0.45 0.23535 -4.45 
558 1 0.3 0.6 0.176539 -4.45 
559 1 0.316667 0.55 0.23535 -4.45 