ITEM: TIMESTEP
1
ITEM: NUMBER OF ATOMS
3584
ITEM: BOX BOUNDS pp pp ss
0.0000000000000000e+00 4.3111019472983898e+01
0.0000000000000000e+00 2.4890158697766498e+01
-3.6580800000000006e-03 3.4552298188307212e+01
ITEM: ATOMS id type xs ys zs c_peratom 
1 1 0 0.1 6.07159e-05 -3.90409 
2 1 0.0166667 0.05 0.0589758 -4.40726 
3 1 0.0166667 0.15 0.0589801 -4.40704 
4 1 0 0 6.07159e-05 -3.90409 
5 1 0.05 0.05 6.07021e-05 -3.90399 
9 1 0 0.2 6.15295e-05 -3.9037 
10 1 0.05 0.15 6.0838e-05 -3.90403 
35 1 0.0333333 0 0.117717 -4.44935 
40 1 0.0333333 0.2 0.117725 -4.42372 
43 1 0.0333333 0.1 0.117717 -4.44945 
44 1 0.0666667 0.1 0.0589761 -4.40731 
45 1 0.0833333 0.05 0.117715 -4.44937 
46 1 0.0833333 0.15 0.117717 -4.44927 
47 1 0.0666667 0 0.0589761 -4.40731 
60 1 0.0666667 0.2 0.0589805 -4.4071 
48 1 0.1 0 6.07021e-05 -3.904 
49 1 0.116667 0.05 0.0589757 -4.40725 
61 1 0.1 0.2 6.07159e-05 -3.90409 
62 1 0.116667 0.15 0.0589758 -4.40726 
64 1 0.1 0.1 6.07021e-05 -3.904 
65 1 0.15 0.05 6.07021e-05 -3.90401 
66 1 0.15 0.15 6.07021e-05 -3.904 
153 1 0.133333 0.1 0.117715 -4.44937 
156 1 0.133333 0 0.117715 -4.44937 
157 1 0.166667 0 0.0589757 -4.40725 
158 1 0.183333 0.05 0.117715 -4.44937 
177 1 0.133333 0.2 0.117715 -4.44937 
178 1 0.166667 0.2 0.0589757 -4.40727 
179 1 0.183333 0.15 0.117715 -4.44937 
181 1 0.166667 0.1 0.0589757 -4.40725 
182 1 0.2 0.1 6.07021e-05 -3.90401 
183 1 0.216667 0.05 0.0589757 -4.40726 
184 1 0.216667 0.15 0.0589757 -4.40726 
185 1 0.2 0 6.07021e-05 -3.90401 
186 1 0.25 0.05 6.07021e-05 -3.90401 
213 1 0.2 0.2 6.07021e-05 -3.90401 
214 1 0.25 0.15 6.07021e-05 -3.90401 
312 1 0.233333 0 0.117715 -4.44937 
336 1 0.233333 0.2 0.117715 -4.44937 
339 1 0.233333 0.1 0.117715 -4.44937 
340 1 0.266667 0.1 0.0589757 -4.40726 
341 1 0.283333 0.05 0.117715 -4.44937 
342 1 0.283333 0.15 0.117715 -4.44937 
343 1 0.266667 0 0.0589757 -4.40726 
374 1 0.266667 0.2 0.0589757 -4.40726 
344 1 0.3 0 6.07021e-05 -3.90401 
345 1 0.316667 0.05 0.0589757 -4.40726 
375 1 0.3 0.2 6.07021e-05 -3.90401 
376 1 0.316667 0.15 0.0589757 -4.40726 
378 1 0.3 0.1 6.07021e-05 -3.90401 
379 1 0.35 0.05 6.07021e-05 -3.90401 
380 1 0.35 0.15 6.07021e-05 -3.90401 
503 1 0.333333 0.1 0.117715 -4.44937 
506 1 0.333333 0 0.117715 -4.44937 
507 1 0.366667 0 0.0589757 -4.40726 
508 1 0.383333 0.05 0.117715 -4.44937 
534 1 0.333333 0.2 0.117715 -4.44937 
535 1 0.366667 0.2 0.0589757 -4.40726 
536 1 0.383333 0.15 0.117715 -4.44937 
538 1 0.366667 0.1 0.0589757 -4.40726 
539 1 0.4 0.1 6.07021e-05 -3.90401 
540 1 0.416667 0.05 0.0589757 -4.40726 
541 1 0.416667 0.15 0.0589757 -4.40726 
542 1 0.4 0 6.07021e-05 -3.90401 
543 1 0.45 0.05 6.07021e-05 -3.90401 
573 1 0.4 0.2 6.07021e-05 -3.90401 
574 1 0.45 0.15 6.07021e-05 -3.90401 
672 1 0.433333 0 0.117715 -4.44937 
696 1 0.433333 0.2 0.117715 -4.44937 
699 1 0.433333 0.1 0.117715 -4.44937 
700 1 0.466667 0.1 0.0589757 -4.40726 
701 1 0.483333 0.05 0.117715 -4.44937 
702 1 0.483333 0.15 0.117715 -4.44937 
703 1 0.466667 0 0.0589757 -4.40726 
734 1 0.466667 0.2 0.0589757 -4.40726 
704 1 0.5 0 6.07021e-05 -3.90401 
705 1 0.516667 0.05 0.0589757 -4.40726 
735 1 0.5 0.2 6.07021e-05 -3.90401 
736 1 0.516667 0.15 0.0589757 -4.40726 
738 1 0.5 0.1 6.07021e-05 -3.90401 
739 1 0.55 0.05 6.07021e-05 -3.90402 
740 1 0.55 0.15 6.07021e-05 -3.90402 
863 1 0.533333 0.1 0.117715 -4.44936 
866 1 0.533333 0 0.117715 -4.44936 
867 1 0.566667 0 0.0589756 -4.40726 
868 1 0.583333 0.05 0.117714 -4.44939 
894 1 0.533333 0.2 0.117715 -4.44936 
895 1 0.566667 0.2 0.0589756 -4.40726 
896 1 0.583333 0.15 0.117714 -4.44939 
898 1 0.566667 0.1 0.0589756 -4.40726 
899 1 0.6 0.1 6.07821e-05 -3.90399 
900 1 0.616667 0.05 0.0589707 -4.40755 
901 1 0.616667 0.15 0.0589707 -4.40756 
902 1 0.6 0 6.07821e-05 -3.90398 
903 1 0.65 0.05 6.67986e-05 -3.88925 
933 1 0.6 0.2 6.07821e-05 -3.90399 
934 1 0.65 0.15 6.67986e-05 -3.88926 
1032 1 0.633333 0 0.117713 -4.4491 
1056 1 0.633333 0.2 0.117713 -4.4491 
1059 1 0.633333 0.1 0.117713 -4.4491 
1060 1 0.666667 0.1 0.058977 -4.37748 
1061 1 0.683333 0.05 0.117692 -4.45037 
1062 1 0.683333 0.15 0.117692 -4.45037 
1063 1 0.666667 0 0.0589771 -4.37748 
1094 1 0.666667 0.2 0.058977 -4.37749 
1064 1 0.7 0 0.000321378 -3.54178 
1065 1 0.716667 0.05 0.0587073 -4.25675 
1095 1 0.7 0.2 0.000321458 -3.54175 
1096 1 0.716667 0.15 0.0587073 -4.25676 
1098 1 0.7 0.1 0.000321458 -3.54175 
1214 1 0.733333 0.1 0.117836 -4.42447 
1217 1 0.733333 0 0.117836 -4.42446 
1218 1 0.766667 0 0.058571 -4.18237 
1219 1 0.783333 0.05 0.117759 -4.43765 
1245 1 0.733333 0.2 0.117836 -4.42447 
1246 1 0.766667 0.2 0.0585709 -4.18238 
1247 1 0.783333 0.15 0.117759 -4.43768 
1249 1 0.766667 0.1 0.0585709 -4.18238 
1250 1 0.8 0.1 0.000324997 -3.54178 
1251 1 0.816667 0.05 0.0589738 -4.35087 
1252 1 0.816667 0.15 0.0589737 -4.35087 
1253 1 0.8 0 0.000324928 -3.54183 
1254 1 0.85 0.05 6.62054e-05 -3.88923 
1284 1 0.8 0.2 0.000324997 -3.54178 
1285 1 0.85 0.15 6.62054e-05 -3.88922 
1383 1 0.833333 0 0.1177 -4.44926 
1407 1 0.833333 0.2 0.1177 -4.44931 
1410 1 0.833333 0.1 0.1177 -4.4493 
1411 1 0.866667 0.1 0.0589541 -4.4074 
1412 1 0.883333 0.05 0.117714 -4.44952 
1413 1 0.883333 0.15 0.117714 -4.44952 
1414 1 0.866667 0 0.0589541 -4.40739 
1445 1 0.866667 0.2 0.0589542 -4.4074 
1415 1 0.9 0 6.08237e-05 -3.90398 
1416 1 0.916667 0.05 0.0589755 -4.40736 
1446 1 0.9 0.2 6.08375e-05 -3.90406 
1447 1 0.916667 0.15 0.058976 -4.40703 
1449 1 0.9 0.1 6.08237e-05 -3.90398 
1450 1 0.95 0.05 6.07023e-05 -3.90403 
1451 1 0.95 0.15 6.07336e-05 -3.9042 
1574 1 0.933333 0.1 0.117715 -4.44942 
1577 1 0.933333 0 0.117715 -4.44934 
1578 1 0.966667 0 0.0589762 -4.40698 
1579 1 0.983333 0.05 0.117715 -4.44954 
1605 1 0.933333 0.2 0.117683 -4.43498 
1606 1 0.966667 0.2 0.0589817 -4.40731 
1607 1 0.983333 0.15 0.117682 -4.43518 
1609 1 0.966667 0.1 0.0589762 -4.407 
6 1 0 0.3 6.37544e-05 -3.90209 
7 1 0.0166667 0.25 0.0589154 -4.39453 
8 1 0.0166667 0.35 0.0588478 -4.38212 
11 1 0.05 0.25 6.16731e-05 -3.90364 
15 1 0 0.4 6.37544e-05 -3.90209 
16 1 0.05 0.35 6.2375e-05 -3.90322 
53 1 0.0333333 0.4 0.117989 -4.33084 
56 1 0.0333333 0.3 0.117989 -4.33084 
57 1 0.0666667 0.3 0.0589861 -4.40738 
58 1 0.0833333 0.25 0.117685 -4.43491 
59 1 0.0833333 0.35 0.117652 -4.42068 
78 1 0.0666667 0.4 0.0589861 -4.40738 
63 1 0.116667 0.25 0.0589762 -4.40698 
79 1 0.1 0.4 6.07475e-05 -3.90426 
80 1 0.116667 0.35 0.0589767 -4.40669 
82 1 0.1 0.3 6.07475e-05 -3.90426 
83 1 0.15 0.25 6.07022e-05 -3.904 
84 1 0.15 0.35 6.07023e-05 -3.904 
174 1 0.133333 0.3 0.117716 -4.44938 
180 1 0.183333 0.25 0.117715 -4.44937 
205 1 0.133333 0.4 0.117716 -4.44938 
206 1 0.166667 0.4 0.0589757 -4.40732 
207 1 0.183333 0.35 0.117715 -4.44937 
209 1 0.166667 0.3 0.0589757 -4.40732 
210 1 0.2 0.3 6.07021e-05 -3.90401 
211 1 0.216667 0.25 0.0589757 -4.40725 
212 1 0.216667 0.35 0.0589757 -4.40725 
215 1 0.25 0.25 6.07021e-05 -3.90401 
237 1 0.2 0.4 6.07021e-05 -3.90401 
238 1 0.25 0.35 6.07021e-05 -3.90401 
367 1 0.233333 0.4 0.117715 -4.44937 
370 1 0.233333 0.3 0.117715 -4.44937 
371 1 0.266667 0.3 0.0589757 -4.40726 
372 1 0.283333 0.25 0.117715 -4.44937 
373 1 0.283333 0.35 0.117715 -4.44937 
402 1 0.266667 0.4 0.0589757 -4.40726 
377 1 0.316667 0.25 0.0589757 -4.40726 
403 1 0.3 0.4 6.07021e-05 -3.90401 
404 1 0.316667 0.35 0.0589757 -4.40726 
406 1 0.3 0.3 6.07021e-05 -3.90401 
407 1 0.35 0.25 6.07021e-05 -3.90401 
408 1 0.35 0.35 6.07021e-05 -3.90401 
531 1 0.333333 0.3 0.117715 -4.44937 
537 1 0.383333 0.25 0.117715 -4.44937 
565 1 0.333333 0.4 0.117715 -4.44937 
566 1 0.366667 0.4 0.0589757 -4.40726 
567 1 0.383333 0.35 0.117715 -4.44937 
569 1 0.366667 0.3 0.0589757 -4.40726 
570 1 0.4 0.3 6.07021e-05 -3.90401 
571 1 0.416667 0.25 0.0589757 -4.40726 
572 1 0.416667 0.35 0.0589757 -4.40726 
575 1 0.45 0.25 6.07021e-05 -3.90401 
597 1 0.4 0.4 6.07021e-05 -3.90401 
598 1 0.45 0.35 6.07021e-05 -3.90401 
727 1 0.433333 0.4 0.117715 -4.44937 
730 1 0.433333 0.3 0.117715 -4.44937 
731 1 0.466667 0.3 0.0589757 -4.40726 
732 1 0.483333 0.25 0.117715 -4.44937 
733 1 0.483333 0.35 0.117715 -4.44937 
762 1 0.466667 0.4 0.0589757 -4.40726 
737 1 0.516667 0.25 0.0589757 -4.40726 
763 1 0.5 0.4 6.07021e-05 -3.90401 
764 1 0.516667 0.35 0.0589757 -4.40726 
766 1 0.5 0.3 6.07021e-05 -3.90401 
767 1 0.55 0.25 6.07021e-05 -3.90402 
768 1 0.55 0.35 6.07021e-05 -3.90402 
891 1 0.533333 0.3 0.117715 -4.44936 
897 1 0.583333 0.25 0.117714 -4.44939 
925 1 0.533333 0.4 0.117715 -4.44936 
926 1 0.566667 0.4 0.0589756 -4.40726 
927 1 0.583333 0.35 0.117714 -4.44939 
929 1 0.566667 0.3 0.0589756 -4.40726 
930 1 0.6 0.3 6.07821e-05 -3.90399 
931 1 0.616667 0.25 0.0589707 -4.40756 
932 1 0.616667 0.35 0.0589707 -4.40756 
935 1 0.65 0.25 6.67986e-05 -3.88926 
957 1 0.6 0.4 6.07821e-05 -3.90399 
958 1 0.65 0.35 6.67986e-05 -3.88926 
1087 1 0.633333 0.4 0.117713 -4.4491 
1090 1 0.633333 0.3 0.117713 -4.4491 
1091 1 0.666667 0.3 0.058977 -4.37749 
1092 1 0.683333 0.25 0.117692 -4.45037 
1093 1 0.683333 0.35 0.117692 -4.45037 
1120 1 0.666667 0.4 0.058977 -4.37748 
1097 1 0.716667 0.25 0.0587073 -4.25676 
1121 1 0.7 0.4 0.000321458 -3.54175 
1122 1 0.716667 0.35 0.0587073 -4.25676 
1124 1 0.7 0.3 0.000321458 -3.54175 
1242 1 0.733333 0.3 0.117836 -4.42447 
1248 1 0.783333 0.25 0.117759 -4.43768 
1276 1 0.733333 0.4 0.117836 -4.42447 
1277 1 0.766667 0.4 0.0585709 -4.18238 
1278 1 0.783333 0.35 0.117759 -4.43768 
1280 1 0.766667 0.3 0.0585709 -4.18238 
1281 1 0.8 0.3 0.000324997 -3.54178 
1282 1 0.816667 0.25 0.0589737 -4.35087 
1283 1 0.816667 0.35 0.0589737 -4.35087 
1286 1 0.85 0.25 6.62054e-05 -3.88921 
1308 1 0.8 0.4 0.000324997 -3.54178 
1309 1 0.85 0.35 6.62054e-05 -3.88921 
1438 1 0.833333 0.4 0.1177 -4.44931 
1441 1 0.833333 0.3 0.1177 -4.44931 
1442 1 0.866667 0.3 0.0589546 -4.40745 
1443 1 0.883333 0.25 0.117717 -4.44943 
1444 1 0.883333 0.35 0.11772 -4.44934 
1473 1 0.866667 0.4 0.0589546 -4.40745 
1448 1 0.916667 0.25 0.0589804 -4.40679 
1474 1 0.9 0.4 6.09733e-05 -3.9041 
1475 1 0.916667 0.35 0.0589852 -4.40687 
1477 1 0.9 0.3 6.09733e-05 -3.9041 
1478 1 0.95 0.25 6.15495e-05 -3.90381 
1479 1 0.95 0.35 6.25659e-05 -3.90327 
1602 1 0.933333 0.3 0.117692 -4.40932 
1608 1 0.983333 0.25 0.11795 -4.34323 
1631 1 0.933333 0.4 0.117692 -4.40932 
1632 1 0.966667 0.4 0.0589186 -4.39495 
1633 1 0.983333 0.35 0.118234 -4.25972 
1635 1 0.966667 0.3 0.0589186 -4.39495 
12 1 0 0.5 6.15295e-05 -3.90369 
13 1 0.0166667 0.45 0.0589154 -4.39453 
14 1 0.0166667 0.55 0.0589801 -4.40705 
17 1 0.05 0.45 6.16731e-05 -3.90364 
21 1 0 0.6 6.07297e-05 -3.90418 
22 1 0.05 0.55 6.0838e-05 -3.90402 
71 1 0.0333333 0.6 0.117719 -4.44935 
74 1 0.0333333 0.5 0.117725 -4.42373 
75 1 0.0666667 0.5 0.0589805 -4.40709 
76 1 0.0833333 0.45 0.117685 -4.43491 
77 1 0.0833333 0.55 0.117717 -4.44928 
95 1 0.0666667 0.6 0.0589765 -4.40737 
81 1 0.116667 0.45 0.0589762 -4.40698 
96 1 0.1 0.6 6.07021e-05 -3.90399 
97 1 0.116667 0.55 0.0589758 -4.40726 
99 1 0.1 0.5 6.07159e-05 -3.90409 
100 1 0.15 0.45 6.07022e-05 -3.904 
101 1 0.15 0.55 6.07021e-05 -3.904 
202 1 0.133333 0.5 0.117715 -4.44937 
208 1 0.183333 0.45 0.117715 -4.44937 
229 1 0.133333 0.6 0.117715 -4.44937 
230 1 0.166667 0.6 0.0589757 -4.40725 
231 1 0.183333 0.55 0.117715 -4.44937 
233 1 0.166667 0.5 0.0589757 -4.40727 
234 1 0.2 0.5 6.07021e-05 -3.90401 
235 1 0.216667 0.45 0.0589757 -4.40725 
236 1 0.216667 0.55 0.0589757 -4.40726 
239 1 0.25 0.45 6.07021e-05 -3.90401 
253 1 0.2 0.6 6.07021e-05 -3.90401 
254 1 0.25 0.55 6.07021e-05 -3.90401 
395 1 0.233333 0.6 0.117715 -4.44937 
398 1 0.233333 0.5 0.117715 -4.44937 
399 1 0.266667 0.5 0.0589757 -4.40726 
400 1 0.283333 0.45 0.117715 -4.44937 
401 1 0.283333 0.55 0.117715 -4.44937 
422 1 0.266667 0.6 0.0589757 -4.40726 
405 1 0.316667 0.45 0.0589757 -4.40726 
423 1 0.3 0.6 6.07021e-05 -3.90401 
424 1 0.316667 0.55 0.0589757 -4.40726 
426 1 0.3 0.5 6.07021e-05 -3.90401 
427 1 0.35 0.45 6.07021e-05 -3.90401 
428 1 0.35 0.55 6.07021e-05 -3.90401 
562 1 0.333333 0.5 0.117715 -4.44937 
568 1 0.383333 0.45 0.117715 -4.44937 
589 1 0.333333 0.6 0.117715 -4.44937 
590 1 0.366667 0.6 0.0589757 -4.40726 
591 1 0.383333 0.55 0.117715 -4.44937 
593 1 0.366667 0.5 0.0589757 -4.40726 
594 1 0.4 0.5 6.07021e-05 -3.90401 
595 1 0.416667 0.45 0.0589757 -4.40726 
596 1 0.416667 0.55 0.0589757 -4.40726 
599 1 0.45 0.45 6.07021e-05 -3.90401 
613 1 0.4 0.6 6.07021e-05 -3.90401 
614 1 0.45 0.55 6.07021e-05 -3.90401 
755 1 0.433333 0.6 0.117715 -4.44937 
758 1 0.433333 0.5 0.117715 -4.44937 
759 1 0.466667 0.5 0.0589757 -4.40726 
760 1 0.483333 0.45 0.117715 -4.44937 
761 1 0.483333 0.55 0.117715 -4.44937 
782 1 0.466667 0.6 0.0589757 -4.40726 
765 1 0.516667 0.45 0.0589757 -4.40726 
783 1 0.5 0.6 6.07021e-05 -3.90401 
784 1 0.516667 0.55 0.0589757 -4.40726 
786 1 0.5 0.5 6.07021e-05 -3.90401 
787 1 0.55 0.45 6.07021e-05 -3.90402 
788 1 0.55 0.55 6.07021e-05 -3.90402 
922 1 0.533333 0.5 0.117715 -4.44936 
928 1 0.583333 0.45 0.117714 -4.44939 
949 1 0.533333 0.6 0.117715 -4.44936 
950 1 0.566667 0.6 0.0589756 -4.40726 
951 1 0.583333 0.55 0.117714 -4.4494 
953 1 0.566667 0.5 0.0589756 -4.40726 
954 1 0.6 0.5 6.07821e-05 -3.90398 
955 1 0.616667 0.45 0.0589707 -4.40755 
956 1 0.616667 0.55 0.0589707 -4.40755 
959 1 0.65 0.45 6.67986e-05 -3.88925 
973 1 0.6 0.6 6.07779e-05 -3.90399 
974 1 0.65 0.55 6.67235e-05 -3.88929 
1113 1 0.633333 0.6 0.117713 -4.44906 
1116 1 0.633333 0.5 0.117713 -4.4491 
1117 1 0.666667 0.5 0.0589771 -4.37748 
1118 1 0.683333 0.45 0.117692 -4.45037 
1119 1 0.683333 0.55 0.117692 -4.45029 
1138 1 0.666667 0.6 0.0589854 -4.3776 
1123 1 0.716667 0.45 0.0587073 -4.25675 
1139 1 0.7 0.6 0.000317232 -3.5574 
1140 1 0.716667 0.55 0.0587088 -4.25675 
1142 1 0.7 0.5 0.000321378 -3.54178 
1273 1 0.733333 0.5 0.117836 -4.42446 
1279 1 0.783333 0.45 0.117759 -4.43765 
1300 1 0.733333 0.6 0.117841 -4.42474 
1301 1 0.766667 0.6 0.0585335 -4.1973 
1302 1 0.783333 0.55 0.11776 -4.43789 
1304 1 0.766667 0.5 0.058571 -4.18237 
1305 1 0.8 0.5 0.000324928 -3.54183 
1306 1 0.816667 0.45 0.0589738 -4.35087 
1307 1 0.816667 0.55 0.0589752 -4.35082 
1310 1 0.85 0.45 6.62054e-05 -3.88921 
1324 1 0.8 0.6 0.000319752 -3.55738 
1325 1 0.85 0.55 6.61648e-05 -3.88926 
1466 1 0.833333 0.6 0.117701 -4.44946 
1469 1 0.833333 0.5 0.1177 -4.44927 
1470 1 0.866667 0.5 0.0589542 -4.4074 
1471 1 0.883333 0.45 0.117717 -4.44943 
1472 1 0.883333 0.55 0.117714 -4.44951 
1493 1 0.866667 0.6 0.0589553 -4.40734 
1476 1 0.916667 0.45 0.0589804 -4.40679 
1494 1 0.9 0.6 6.08195e-05 -3.90398 
1495 1 0.916667 0.55 0.058976 -4.40707 
1497 1 0.9 0.5 6.08375e-05 -3.90406 
1498 1 0.95 0.45 6.15495e-05 -3.90381 
1499 1 0.95 0.55 6.07337e-05 -3.90419 
1628 1 0.933333 0.5 0.117683 -4.43498 
1634 1 0.983333 0.45 0.11795 -4.34323 
1649 1 0.933333 0.6 0.117716 -4.44943 
1650 1 0.966667 0.6 0.0589766 -4.40669 
1651 1 0.983333 0.55 0.117683 -4.43518 
1653 1 0.966667 0.5 0.0589817 -4.40733 
18 1 0 0.7 6.15139e-05 -3.9036 
19 1 0.0166667 0.65 0.05898 -4.40704 
20 1 0.0166667 0.75 0.0589105 -4.39478 
23 1 0.05 0.65 6.0838e-05 -3.90403 
27 1 0 0.8 6.26775e-05 -3.90243 
28 1 0.05 0.75 6.15139e-05 -3.9036 
88 1 0.0333333 0.8 0.117989 -4.35814 
91 1 0.0333333 0.7 0.117724 -4.4239 
92 1 0.0666667 0.7 0.05898 -4.40704 
93 1 0.0833333 0.65 0.117717 -4.44927 
94 1 0.0833333 0.75 0.117682 -4.435 
107 1 0.0666667 0.8 0.0589811 -4.4076 
98 1 0.116667 0.65 0.0589758 -4.40726 
108 1 0.1 0.8 6.07335e-05 -3.90418 
109 1 0.116667 0.75 0.0589761 -4.40696 
111 1 0.1 0.7 6.07159e-05 -3.90409 
112 1 0.15 0.65 6.07021e-05 -3.904 
113 1 0.15 0.75 6.07022e-05 -3.904 
226 1 0.133333 0.7 0.117715 -4.44937 
232 1 0.183333 0.65 0.117715 -4.44937 
245 1 0.133333 0.8 0.117715 -4.44937 
246 1 0.166667 0.8 0.0589757 -4.4073 
247 1 0.183333 0.75 0.117715 -4.44937 
249 1 0.166667 0.7 0.0589757 -4.40727 
250 1 0.2 0.7 6.07021e-05 -3.90401 
251 1 0.216667 0.65 0.0589757 -4.40726 
252 1 0.216667 0.75 0.0589757 -4.40725 
255 1 0.25 0.65 6.07021e-05 -3.90401 
261 1 0.2 0.8 6.07021e-05 -3.90401 
262 1 0.25 0.75 6.07021e-05 -3.90401 
415 1 0.233333 0.8 0.117715 -4.44937 
418 1 0.233333 0.7 0.117715 -4.44937 
419 1 0.266667 0.7 0.0589757 -4.40726 
420 1 0.283333 0.65 0.117715 -4.44937 
421 1 0.283333 0.75 0.117715 -4.44937 
434 1 0.266667 0.8 0.0589757 -4.40726 
425 1 0.316667 0.65 0.0589757 -4.40726 
435 1 0.3 0.8 6.07021e-05 -3.90401 
436 1 0.316667 0.75 0.0589757 -4.40726 
438 1 0.3 0.7 6.07021e-05 -3.90401 
439 1 0.35 0.65 6.07021e-05 -3.90401 
440 1 0.35 0.75 6.07021e-05 -3.90401 
586 1 0.333333 0.7 0.117715 -4.44937 
592 1 0.383333 0.65 0.117715 -4.44937 
605 1 0.333333 0.8 0.117715 -4.44937 
606 1 0.366667 0.8 0.0589757 -4.40726 
607 1 0.383333 0.75 0.117715 -4.44937 
609 1 0.366667 0.7 0.0589757 -4.40726 
610 1 0.4 0.7 6.07021e-05 -3.90401 
611 1 0.416667 0.65 0.0589757 -4.40726 
612 1 0.416667 0.75 0.0589757 -4.40726 
615 1 0.45 0.65 6.07021e-05 -3.90401 
621 1 0.4 0.8 6.07021e-05 -3.90401 
622 1 0.45 0.75 6.07021e-05 -3.90401 
775 1 0.433333 0.8 0.117715 -4.44937 
778 1 0.433333 0.7 0.117715 -4.44937 
779 1 0.466667 0.7 0.0589757 -4.40726 
780 1 0.483333 0.65 0.117715 -4.44937 
781 1 0.483333 0.75 0.117715 -4.44937 
794 1 0.466667 0.8 0.0589757 -4.40726 
785 1 0.516667 0.65 0.0589757 -4.40726 
795 1 0.5 0.8 6.07021e-05 -3.90401 
796 1 0.516667 0.75 0.0589757 -4.40726 
798 1 0.5 0.7 6.07021e-05 -3.90401 
799 1 0.55 0.65 6.07021e-05 -3.90401 
800 1 0.55 0.75 6.07021e-05 -3.90401 
946 1 0.533333 0.7 0.117715 -4.44936 
952 1 0.583333 0.65 0.117714 -4.44938 
965 1 0.533333 0.8 0.117715 -4.44936 
966 1 0.566667 0.8 0.0589757 -4.40726 
967 1 0.583333 0.75 0.117714 -4.44937 
969 1 0.566667 0.7 0.0589757 -4.40726 
970 1 0.6 0.7 6.07463e-05 -3.90401 
971 1 0.616667 0.65 0.0589719 -4.40748 
972 1 0.616667 0.75 0.0589732 -4.40742 
975 1 0.65 0.65 6.58468e-05 -3.88922 
981 1 0.6 0.8 6.07463e-05 -3.90401 
982 1 0.65 0.75 6.24086e-05 -3.90417 
1131 1 0.633333 0.8 0.117714 -4.44923 
1134 1 0.633333 0.7 0.117714 -4.44923 
1135 1 0.666667 0.7 0.0589654 -4.39244 
1136 1 0.683333 0.65 0.117698 -4.45036 
1137 1 0.683333 0.75 0.117702 -4.44975 
1148 1 0.666667 0.8 0.0589654 -4.39244 
1141 1 0.716667 0.65 0.0586939 -4.28488 
1149 1 0.7 0.8 0.00019434 -3.72094 
1150 1 0.716667 0.75 0.0589057 -4.35321 
1152 1 0.7 0.7 0.00019434 -3.72094 
1153 1 0.75 0.75 0.000313447 -3.57318 
1297 1 0.733333 0.7 0.117769 -4.43745 
1303 1 0.783333 0.65 0.117769 -4.43746 
1316 1 0.733333 0.8 0.117769 -4.43745 
1317 1 0.766667 0.8 0.0587448 -4.28315 
1318 1 0.783333 0.75 0.117696 -4.45059 
1320 1 0.766667 0.7 0.0587448 -4.28315 
1321 1 0.8 0.7 0.000195902 -3.72095 
1322 1 0.816667 0.65 0.0589551 -4.36575 
1323 1 0.816667 0.75 0.0589888 -4.37797 
1326 1 0.85 0.65 6.52832e-05 -3.88919 
1332 1 0.8 0.8 0.000195902 -3.72095 
1333 1 0.85 0.75 6.234e-05 -3.90415 
1486 1 0.833333 0.8 0.117707 -4.4492 
1489 1 0.833333 0.7 0.117707 -4.4492 
1490 1 0.866667 0.7 0.0589637 -4.4074 
1491 1 0.883333 0.65 0.117714 -4.44949 
1492 1 0.883333 0.75 0.117717 -4.44932 
1505 1 0.866667 0.8 0.058964 -4.40746 
1496 1 0.916667 0.65 0.058976 -4.40702 
1506 1 0.9 0.8 6.09029e-05 -3.90403 
1507 1 0.916667 0.75 0.0589799 -4.40705 
1509 1 0.9 0.7 6.07808e-05 -3.90409 
1510 1 0.95 0.65 6.07336e-05 -3.90419 
1511 1 0.95 0.75 6.15139e-05 -3.90361 
1646 1 0.933333 0.7 0.117682 -4.43498 
1652 1 0.983333 0.65 0.117683 -4.43517 
1659 1 0.933333 0.8 0.117724 -4.4238 
1660 1 0.966667 0.8 0.0589105 -4.39479 
1661 1 0.983333 0.75 0.117989 -4.35814 
1663 1 0.966667 0.7 0.0589811 -4.40761 
24 1 0 0.9 6.15139e-05 -3.9036 
25 1 0.0166667 0.85 0.0589105 -4.39479 
26 1 0.0166667 0.95 0.05898 -4.40704 
29 1 0.05 0.85 6.15139e-05 -3.9036 
30 1 0.05 0.95 6.0838e-05 -3.90404 
103 1 0.0333333 0.9 0.117724 -4.42382 
104 1 0.0666667 0.9 0.05898 -4.40704 
105 1 0.0833333 0.85 0.117682 -4.435 
106 1 0.0833333 0.95 0.117717 -4.44927 
110 1 0.116667 0.85 0.0589761 -4.40696 
114 1 0.116667 0.95 0.0589758 -4.40726 
115 1 0.1 0.9 6.07159e-05 -3.90409 
116 1 0.15 0.85 6.07022e-05 -3.904 
117 1 0.15 0.95 6.07021e-05 -3.904 
242 1 0.133333 0.9 0.117715 -4.44937 
248 1 0.183333 0.85 0.117715 -4.44937 
256 1 0.183333 0.95 0.117715 -4.44937 
257 1 0.166667 0.9 0.0589757 -4.40727 
258 1 0.2 0.9 6.07021e-05 -3.90401 
259 1 0.216667 0.85 0.0589757 -4.40725 
260 1 0.216667 0.95 0.0589757 -4.40726 
263 1 0.25 0.85 6.07021e-05 -3.90401 
264 1 0.25 0.95 6.07021e-05 -3.90401 
430 1 0.233333 0.9 0.117715 -4.44937 
431 1 0.266667 0.9 0.0589757 -4.40726 
432 1 0.283333 0.85 0.117715 -4.44937 
433 1 0.283333 0.95 0.117715 -4.44937 
437 1 0.316667 0.85 0.0589757 -4.40726 
441 1 0.316667 0.95 0.0589757 -4.40726 
442 1 0.3 0.9 6.07021e-05 -3.90401 
443 1 0.35 0.85 6.07021e-05 -3.90401 
444 1 0.35 0.95 6.07021e-05 -3.90401 
602 1 0.333333 0.9 0.117715 -4.44937 
608 1 0.383333 0.85 0.117715 -4.44937 
616 1 0.383333 0.95 0.117715 -4.44937 
617 1 0.366667 0.9 0.0589757 -4.40726 
618 1 0.4 0.9 6.07021e-05 -3.90401 
619 1 0.416667 0.85 0.0589757 -4.40726 
620 1 0.416667 0.95 0.0589757 -4.40726 
623 1 0.45 0.85 6.07021e-05 -3.90401 
624 1 0.45 0.95 6.07021e-05 -3.90401 
790 1 0.433333 0.9 0.117715 -4.44937 
791 1 0.466667 0.9 0.0589757 -4.40726 
792 1 0.483333 0.85 0.117715 -4.44937 
793 1 0.483333 0.95 0.117715 -4.44937 
797 1 0.516667 0.85 0.0589757 -4.40726 
801 1 0.516667 0.95 0.0589757 -4.40726 
802 1 0.5 0.9 6.07021e-05 -3.90401 
803 1 0.55 0.85 6.07021e-05 -3.90401 
804 1 0.55 0.95 6.07021e-05 -3.90402 
962 1 0.533333 0.9 0.117715 -4.44936 
968 1 0.583333 0.85 0.117714 -4.44938 
976 1 0.583333 0.95 0.117714 -4.4494 
977 1 0.566667 0.9 0.0589756 -4.40726 
978 1 0.6 0.9 6.07779e-05 -3.90399 
979 1 0.616667 0.85 0.0589719 -4.40748 
980 1 0.616667 0.95 0.0589707 -4.40755 
983 1 0.65 0.85 6.58468e-05 -3.88922 
984 1 0.65 0.95 6.67235e-05 -3.88929 
1144 1 0.633333 0.9 0.117713 -4.44906 
1145 1 0.666667 0.9 0.0589854 -4.3776 
1146 1 0.683333 0.85 0.117698 -4.45036 
1147 1 0.683333 0.95 0.117692 -4.45029 
1151 1 0.716667 0.85 0.0586939 -4.28488 
1154 1 0.716667 0.95 0.0587088 -4.25675 
1155 1 0.7 0.9 0.000317232 -3.5574 
1313 1 0.733333 0.9 0.117841 -4.42474 
1319 1 0.783333 0.85 0.117769 -4.43746 
1327 1 0.783333 0.95 0.11776 -4.43789 
1328 1 0.766667 0.9 0.0585335 -4.1973 
1329 1 0.8 0.9 0.000319752 -3.55738 
1330 1 0.816667 0.85 0.0589551 -4.36575 
1331 1 0.816667 0.95 0.0589752 -4.35082 
1334 1 0.85 0.85 6.52832e-05 -3.88919 
1335 1 0.85 0.95 6.61648e-05 -3.88926 
1501 1 0.833333 0.9 0.117701 -4.44947 
1502 1 0.866667 0.9 0.0589554 -4.40731 
1503 1 0.883333 0.85 0.117716 -4.44939 
1504 1 0.883333 0.95 0.117714 -4.44951 
1508 1 0.916667 0.85 0.0589798 -4.40705 
1512 1 0.916667 0.95 0.058976 -4.40698 
1513 1 0.9 0.9 6.08331e-05 -3.90408 
1514 1 0.95 0.85 6.15139e-05 -3.90362 
1515 1 0.95 0.95 6.07335e-05 -3.9042 
1656 1 0.933333 0.9 0.117682 -4.43498 
1662 1 0.983333 0.85 0.117989 -4.35814 
1664 1 0.983333 0.95 0.117682 -4.435 
1665 1 0.966667 0.9 0.0589811 -4.4076 
31 1 0 0.1 0.176541 -4.44891 
32 1 0.0166667 0.05 0.235284 -4.43788 
33 1 0.0166667 0.15 0.235317 -4.42346 
34 1 0 0 0.17654 -4.45033 
36 1 0.05 0.05 0.17654 -4.44975 
39 1 0 0.2 0.17654 -4.35526 
41 1 0.05 0.15 0.17654 -4.43608 
131 1 0.0666667 0.1 0.235355 -4.45048 
134 1 0.0666667 0 0.235354 -4.45001 
148 1 0.0666667 0.2 0.235386 -4.43558 
135 1 0.1 0 0.176539 -4.45038 
136 1 0.116667 0.05 0.235351 -4.44988 
149 1 0.1 0.2 0.176539 -4.45081 
150 1 0.116667 0.15 0.23535 -4.44988 
152 1 0.1 0.1 0.176539 -4.45047 
154 1 0.15 0.05 0.176539 -4.45034 
155 1 0.15 0.15 0.176539 -4.4503 
288 1 0.166667 0 0.23535 -4.45019 
304 1 0.166667 0.2 0.23535 -4.45019 
307 1 0.166667 0.1 0.23535 -4.45021 
308 1 0.2 0.1 0.176539 -4.45034 
309 1 0.216667 0.05 0.23535 -4.45017 
310 1 0.216667 0.15 0.23535 -4.45017 
311 1 0.2 0 0.176539 -4.45034 
313 1 0.25 0.05 0.176539 -4.45034 
335 1 0.2 0.2 0.176539 -4.45034 
337 1 0.25 0.15 0.176539 -4.45034 
475 1 0.266667 0.1 0.23535 -4.45017 
478 1 0.266667 0 0.23535 -4.45017 
498 1 0.266667 0.2 0.23535 -4.45017 
479 1 0.3 0 0.176539 -4.45034 
480 1 0.316667 0.05 0.23535 -4.45017 
499 1 0.3 0.2 0.176539 -4.45034 
500 1 0.316667 0.15 0.23535 -4.45017 
502 1 0.3 0.1 0.176539 -4.45034 
504 1 0.35 0.05 0.176539 -4.45034 
505 1 0.35 0.15 0.176539 -4.45034 
648 1 0.366667 0 0.23535 -4.45017 
664 1 0.366667 0.2 0.23535 -4.45017 
667 1 0.366667 0.1 0.23535 -4.45017 
668 1 0.4 0.1 0.176539 -4.45034 
669 1 0.416667 0.05 0.23535 -4.45017 
670 1 0.416667 0.15 0.23535 -4.45017 
671 1 0.4 0 0.176539 -4.45034 
673 1 0.45 0.05 0.176539 -4.45034 
695 1 0.4 0.2 0.176539 -4.45034 
697 1 0.45 0.15 0.176539 -4.45034 
835 1 0.466667 0.1 0.23535 -4.45017 
838 1 0.466667 0 0.23535 -4.45017 
858 1 0.466667 0.2 0.23535 -4.45017 
839 1 0.5 0 0.176539 -4.45034 
840 1 0.516667 0.05 0.23535 -4.45017 
859 1 0.5 0.2 0.176539 -4.45034 
860 1 0.516667 0.15 0.23535 -4.45017 
862 1 0.5 0.1 0.176539 -4.45034 
864 1 0.55 0.05 0.176539 -4.45034 
865 1 0.55 0.15 0.176539 -4.45034 
1008 1 0.566667 0 0.23535 -4.45017 
1024 1 0.566667 0.2 0.23535 -4.45017 
1027 1 0.566667 0.1 0.23535 -4.45017 
1028 1 0.6 0.1 0.176539 -4.45031 
1029 1 0.616667 0.05 0.23535 -4.45016 
1030 1 0.616667 0.15 0.23535 -4.45016 
1031 1 0.6 0 0.176539 -4.45031 
1033 1 0.65 0.05 0.176539 -4.45056 
1055 1 0.6 0.2 0.176539 -4.45031 
1057 1 0.65 0.15 0.176539 -4.45056 
1186 1 0.666667 0.1 0.23535 -4.45012 
1189 1 0.666667 0 0.23535 -4.45012 
1209 1 0.666667 0.2 0.23535 -4.45012 
1190 1 0.7 0 0.176537 -4.44942 
1191 1 0.716667 0.05 0.23535 -4.45046 
1210 1 0.7 0.2 0.176537 -4.44941 
1211 1 0.716667 0.15 0.23535 -4.45046 
1213 1 0.7 0.1 0.176537 -4.44941 
1215 1 0.75 0.05 0.176535 -4.44799 
1216 1 0.75 0.15 0.176535 -4.44799 
1359 1 0.766667 0 0.23535 -4.45047 
1375 1 0.766667 0.2 0.23535 -4.45047 
1378 1 0.766667 0.1 0.23535 -4.45047 
1379 1 0.8 0.1 0.176537 -4.44972 
1380 1 0.816667 0.05 0.23535 -4.4502 
1381 1 0.816667 0.15 0.23535 -4.4502 
1382 1 0.8 0 0.176537 -4.44972 
1384 1 0.85 0.05 0.176539 -4.45044 
1406 1 0.8 0.2 0.176537 -4.44972 
1408 1 0.85 0.15 0.176539 -4.45039 
1546 1 0.866667 0.1 0.235351 -4.45021 
1549 1 0.866667 0 0.23535 -4.45018 
1569 1 0.866667 0.2 0.23535 -4.45016 
1550 1 0.9 0 0.176539 -4.45034 
1551 1 0.916667 0.05 0.235354 -4.44999 
1570 1 0.9 0.2 0.176539 -4.45077 
1571 1 0.916667 0.15 0.235352 -4.44985 
1573 1 0.9 0.1 0.176539 -4.45027 
1575 1 0.95 0.05 0.17654 -4.44975 
1576 1 0.95 0.15 0.176539 -4.43607 
1689 1 0.966667 0 0.235354 -4.45009 
1705 1 0.966667 0.2 0.235345 -4.42474 
1708 1 0.966667 0.1 0.235282 -4.4378 
37 1 0.0166667 0.25 0.235119 -4.34372 
38 1 0.0166667 0.35 0.23483 -4.26037 
42 1 0.05 0.25 0.17654 -4.34151 
54 1 0.05 0.35 0.17654 -4.25261 
145 1 0.0666667 0.3 0.235373 -4.41019 
169 1 0.0666667 0.4 0.235373 -4.41019 
151 1 0.116667 0.25 0.235347 -4.45009 
170 1 0.1 0.4 0.176539 -4.437 
171 1 0.116667 0.35 0.235344 -4.44998 
173 1 0.1 0.3 0.176539 -4.437 
175 1 0.15 0.25 0.176539 -4.45025 
176 1 0.15 0.35 0.176539 -4.45025 
328 1 0.166667 0.4 0.23535 -4.45018 
331 1 0.166667 0.3 0.23535 -4.45018 
332 1 0.2 0.3 0.176539 -4.45035 
333 1 0.216667 0.25 0.23535 -4.45017 
334 1 0.216667 0.35 0.23535 -4.45017 
338 1 0.25 0.25 0.176539 -4.45034 
366 1 0.2 0.4 0.176539 -4.45035 
368 1 0.25 0.35 0.176539 -4.45034 
495 1 0.266667 0.3 0.23535 -4.45017 
526 1 0.266667 0.4 0.23535 -4.45017 
501 1 0.316667 0.25 0.23535 -4.45017 
527 1 0.3 0.4 0.176539 -4.45034 
528 1 0.316667 0.35 0.23535 -4.45017 
530 1 0.3 0.3 0.176539 -4.45034 
532 1 0.35 0.25 0.176539 -4.45034 
533 1 0.35 0.35 0.176539 -4.45034 
688 1 0.366667 0.4 0.23535 -4.45017 
691 1 0.366667 0.3 0.23535 -4.45017 
692 1 0.4 0.3 0.176539 -4.45034 
693 1 0.416667 0.25 0.23535 -4.45017 
694 1 0.416667 0.35 0.23535 -4.45017 
698 1 0.45 0.25 0.176539 -4.45034 
726 1 0.4 0.4 0.176539 -4.45034 
728 1 0.45 0.35 0.176539 -4.45034 
855 1 0.466667 0.3 0.23535 -4.45017 
886 1 0.466667 0.4 0.23535 -4.45017 
861 1 0.516667 0.25 0.23535 -4.45017 
887 1 0.5 0.4 0.176539 -4.45034 
888 1 0.516667 0.35 0.23535 -4.45017 
890 1 0.5 0.3 0.176539 -4.45034 
892 1 0.55 0.25 0.176539 -4.45034 
893 1 0.55 0.35 0.176539 -4.45034 
1048 1 0.566667 0.4 0.23535 -4.45017 
1051 1 0.566667 0.3 0.23535 -4.45017 
1052 1 0.6 0.3 0.176539 -4.45031 
1053 1 0.616667 0.25 0.23535 -4.45016 
1054 1 0.616667 0.35 0.23535 -4.45016 
1058 1 0.65 0.25 0.176539 -4.45056 
1086 1 0.6 0.4 0.176539 -4.45031 
1088 1 0.65 0.35 0.176539 -4.45056 
1206 1 0.666667 0.3 0.23535 -4.45012 
1237 1 0.666667 0.4 0.23535 -4.45012 
1212 1 0.716667 0.25 0.23535 -4.45046 
1238 1 0.7 0.4 0.176537 -4.44941 
1239 1 0.716667 0.35 0.23535 -4.45046 
1241 1 0.7 0.3 0.176537 -4.44941 
1243 1 0.75 0.25 0.176535 -4.44799 
1244 1 0.75 0.35 0.176535 -4.44799 
1399 1 0.766667 0.4 0.23535 -4.45047 
1402 1 0.766667 0.3 0.23535 -4.45047 
1403 1 0.8 0.3 0.176537 -4.44972 
1404 1 0.816667 0.25 0.23535 -4.4502 
1405 1 0.816667 0.35 0.23535 -4.4502 
1409 1 0.85 0.25 0.176539 -4.45035 
1437 1 0.8 0.4 0.176537 -4.44972 
1439 1 0.85 0.35 0.176539 -4.45034 
1566 1 0.866667 0.3 0.235349 -4.45018 
1597 1 0.866667 0.4 0.235349 -4.45018 
1572 1 0.916667 0.25 0.23538 -4.43542 
1598 1 0.9 0.4 0.17654 -4.43696 
1599 1 0.916667 0.35 0.235413 -4.42157 
1601 1 0.9 0.3 0.17654 -4.43696 
1603 1 0.95 0.25 0.176538 -4.34165 
1604 1 0.95 0.35 0.176538 -4.25261 
1723 1 0.966667 0.4 0.235076 -4.3313 