ITEM: TIMESTEP
26
ITEM: NUMBER OF ATOMS
3584
ITEM: BOX BOUNDS pp pp ss
0.0000000000000000e+00 4.3111019472983898e+01
0.0000000000000000e+00 2.4890158697766498e+01
-3.6580800000000006e-03 3.4552298188307212e+01
ITEM: ATOMS id type xs ys zs c_peratom 
1 1 0 0.1 -0.00109907 -3.90425 
2 1 0.0166667 0.05 0.0569445 -4.45009 
3 1 0.0166667 0.15 0.0570079 -4.45006 
4 1 0 0 -0.00110151 -3.90428 
5 1 0.05 0.05 -0.00114034 -3.90428 
10 1 0.05 0.15 -0.00109738 -3.90447 
35 1 0.0333333 0 0.115691 -4.45044 
43 1 0.0333333 0.1 0.115702 -4.45044 
44 1 0.0666667 0.1 0.056908 -4.45013 
45 1 0.0833333 0.05 0.115596 -4.44986 
46 1 0.0833333 0.15 0.115634 -4.45041 
47 1 0.0666667 0 0.0569034 -4.45017 
48 1 0.1 0 -0.0012185 -3.90428 
49 1 0.116667 0.05 0.0568036 -4.44987 
62 1 0.116667 0.15 0.056815 -4.44999 
64 1 0.1 0.1 -0.00121681 -3.90428 
65 1 0.15 0.05 -0.00130823 -3.90432 
66 1 0.15 0.15 -0.00130518 -3.90432 
153 1 0.133333 0.1 0.115504 -4.44988 
156 1 0.133333 0 0.115502 -4.44985 
157 1 0.166667 0 0.0567274 -4.44998 
181 1 0.166667 0.1 0.056726 -4.44998 
158 1 0.183333 0.05 0.115438 -4.44985 
179 1 0.183333 0.15 0.115436 -4.44986 
182 1 0.2 0.1 -0.0013654 -3.90435 
183 1 0.216667 0.05 0.0566784 -4.44998 
184 1 0.216667 0.15 0.0566779 -4.44998 
185 1 0.2 0 -0.00136432 -3.90435 
186 1 0.25 0.05 -0.0014002 -3.90436 
214 1 0.25 0.15 -0.00140017 -3.90437 
312 1 0.233333 0 0.115402 -4.44985 
339 1 0.233333 0.1 0.115401 -4.44985 
340 1 0.266667 0.1 0.0566501 -4.44998 
343 1 0.266667 0 0.0566499 -4.44997 
341 1 0.283333 0.05 0.11538 -4.44986 
342 1 0.283333 0.15 0.11538 -4.44986 
344 1 0.3 0 -0.00142003 -3.90438 
345 1 0.316667 0.05 0.0566341 -4.44997 
376 1 0.316667 0.15 0.0566345 -4.44997 
378 1 0.3 0.1 -0.00141911 -3.90438 
379 1 0.35 0.05 -0.00143213 -3.90438 
380 1 0.35 0.15 -0.00143193 -3.90438 
503 1 0.333333 0.1 0.115368 -4.44986 
506 1 0.333333 0 0.115368 -4.44986 
507 1 0.366667 0 0.0566235 -4.44997 
508 1 0.383333 0.05 0.115361 -4.44986 
536 1 0.383333 0.15 0.11536 -4.44986 
538 1 0.366667 0.1 0.0566239 -4.44997 
539 1 0.4 0.1 -0.00143908 -3.90437 
540 1 0.416667 0.05 0.05662 -4.44998 
541 1 0.416667 0.15 0.0566197 -4.44998 
542 1 0.4 0 -0.00143895 -3.90437 
543 1 0.45 0.05 -0.00143661 -3.90437 
574 1 0.45 0.15 -0.00143634 -3.90437 
672 1 0.433333 0 0.115359 -4.44986 
699 1 0.433333 0.1 0.115359 -4.44986 
700 1 0.466667 0.1 0.0566248 -4.44997 
701 1 0.483333 0.05 0.115366 -4.44985 
702 1 0.483333 0.15 0.115367 -4.44985 
703 1 0.466667 0 0.056624 -4.44997 
704 1 0.5 0 -0.00142844 -3.90436 
705 1 0.516667 0.05 0.0566385 -4.44998 
736 1 0.516667 0.15 0.0566409 -4.44998 
738 1 0.5 0.1 -0.00142663 -3.90435 
863 1 0.533333 0.1 0.115386 -4.44986 
866 1 0.533333 0 0.115382 -4.44986 
739 1 0.55 0.05 -0.00139833 -3.90434 
740 1 0.55 0.15 -0.00139417 -3.90435 
867 1 0.566667 0 0.0566699 -4.44998 
868 1 0.583333 0.05 0.11542 -4.44986 
896 1 0.583333 0.15 0.115425 -4.44986 
898 1 0.566667 0.1 0.0566761 -4.44998 
899 1 0.6 0.1 -0.00133809 -3.90419 
900 1 0.616667 0.05 0.0567402 -4.45019 
901 1 0.616667 0.15 0.0567468 -4.45019 
902 1 0.6 0 -0.00134735 -3.90419 
1032 1 0.633333 0 0.115465 -4.44982 
1059 1 0.633333 0.1 0.115475 -4.44979 
903 1 0.65 0.05 -0.00117447 -3.90298 
934 1 0.65 0.15 -0.00116588 -3.90297 
1060 1 0.666667 0.1 0.0569131 -4.44434 
1061 1 0.683333 0.05 0.11543 -4.45346 
1062 1 0.683333 0.15 0.115439 -4.45343 
1063 1 0.666667 0 0.0568983 -4.44426 
1064 1 0.7 0 -0.000581416 -3.46782 
1065 1 0.716667 0.05 0.05722 -4.28688 
1096 1 0.716667 0.15 0.0572313 -4.28689 
1098 1 0.7 0.1 -0.000559473 -3.46778 
1214 1 0.733333 0.1 0.115415 -4.44261 
1217 1 0.733333 0 0.115403 -4.44255 
1218 1 0.766667 0 0.0559687 -4.17112 
1219 1 0.783333 0.05 0.115044 -4.45254 
1247 1 0.783333 0.15 0.115047 -4.45254 
1249 1 0.766667 0.1 0.0559712 -4.17121 
1250 1 0.8 0.1 -0.00103239 -3.46542 
1251 1 0.816667 0.05 0.0569907 -4.42628 
1252 1 0.816667 0.15 0.0569959 -4.42627 
1253 1 0.8 0 -0.00103503 -3.4655 
1254 1 0.85 0.05 -0.00123322 -3.90313 
1285 1 0.85 0.15 -0.00122187 -3.90313 
1383 1 0.833333 0 0.115402 -4.44954 
1410 1 0.833333 0.1 0.115403 -4.44954 
1411 1 0.866667 0.1 0.0567253 -4.45134 
1412 1 0.883333 0.05 0.115475 -4.4503 
1413 1 0.883333 0.15 0.115492 -4.45035 
1414 1 0.866667 0 0.0567239 -4.45134 
1415 1 0.9 0 -0.00125613 -3.90418 
1449 1 0.9 0.1 -0.00125316 -3.90418 
1416 1 0.916667 0.05 0.0568241 -4.45016 
1447 1 0.916667 0.15 0.0568639 -4.45005 
1450 1 0.95 0.05 -0.00116017 -3.90434 
1451 1 0.95 0.15 -0.00108227 -3.90456 
1574 1 0.933333 0.1 0.115599 -4.44994 
1577 1 0.933333 0 0.115594 -4.44992 
1578 1 0.966667 0 0.0569319 -4.44987 
1579 1 0.983333 0.05 0.115668 -4.44992 
1607 1 0.983333 0.15 0.115713 -4.4466 
1609 1 0.966667 0.1 0.0569363 -4.44986 
6 1 0 0.3 -0.000789865 -3.90427 
7 1 0.0166667 0.25 0.057147 -4.44672 
9 1 0 0.2 -0.000957219 -3.90459 
11 1 0.05 0.25 -0.000975566 -3.90485 
40 1 0.0333333 0.2 0.115568 -4.43462 
56 1 0.0333333 0.3 0.115819 -4.30797 
57 1 0.0666667 0.3 0.057111 -4.45266 
58 1 0.0833333 0.25 0.115649 -4.44714 
60 1 0.0666667 0.2 0.0569725 -4.45033 
61 1 0.1 0.2 -0.00118628 -3.90418 
63 1 0.116667 0.25 0.0568371 -4.44996 
82 1 0.1 0.3 -0.00112971 -3.90436 
83 1 0.15 0.25 -0.00129754 -3.90428 
174 1 0.133333 0.3 0.115504 -4.45003 
177 1 0.133333 0.2 0.115503 -4.44988 
178 1 0.166667 0.2 0.0567271 -4.44997 
209 1 0.166667 0.3 0.0567274 -4.45001 
180 1 0.183333 0.25 0.115432 -4.44985 
210 1 0.2 0.3 -0.00136646 -3.90434 
211 1 0.216667 0.25 0.0566764 -4.44997 
213 1 0.2 0.2 -0.00136486 -3.90435 
215 1 0.25 0.25 -0.00140139 -3.90436 
336 1 0.233333 0.2 0.1154 -4.44985 
370 1 0.233333 0.3 0.115398 -4.44985 
371 1 0.266667 0.3 0.0566481 -4.44997 
374 1 0.266667 0.2 0.0566496 -4.44998 
372 1 0.283333 0.25 0.115379 -4.44986 
375 1 0.3 0.2 -0.00141922 -3.90438 
377 1 0.316667 0.25 0.056634 -4.44997 
406 1 0.3 0.3 -0.0014203 -3.90438 
407 1 0.35 0.25 -0.00143236 -3.90438 
531 1 0.333333 0.3 0.115368 -4.44986 
534 1 0.333333 0.2 0.115368 -4.44986 
535 1 0.366667 0.2 0.0566235 -4.44997 
537 1 0.383333 0.25 0.11536 -4.44986 
569 1 0.366667 0.3 0.056623 -4.44997 
570 1 0.4 0.3 -0.00144034 -3.90437 
571 1 0.416667 0.25 0.0566192 -4.44998 
573 1 0.4 0.2 -0.00143985 -3.90437 
575 1 0.45 0.25 -0.00143638 -3.90437 
696 1 0.433333 0.2 0.115359 -4.44986 
730 1 0.433333 0.3 0.115359 -4.44986 
731 1 0.466667 0.3 0.0566249 -4.44997 
732 1 0.483333 0.25 0.115367 -4.44985 
734 1 0.466667 0.2 0.0566252 -4.44997 
735 1 0.5 0.2 -0.00142541 -3.90435 
737 1 0.516667 0.25 0.0566415 -4.44998 
766 1 0.5 0.3 -0.00142552 -3.90435 
891 1 0.533333 0.3 0.115387 -4.44986 
894 1 0.533333 0.2 0.115387 -4.44986 
767 1 0.55 0.25 -0.00139316 -3.90435 
895 1 0.566667 0.2 0.0566792 -4.44998 
897 1 0.583333 0.25 0.115427 -4.44986 
929 1 0.566667 0.3 0.0566791 -4.44998 
930 1 0.6 0.3 -0.00133402 -3.90419 
931 1 0.616667 0.25 0.0567493 -4.45019 
933 1 0.6 0.2 -0.00133381 -3.90419 
1056 1 0.633333 0.2 0.115479 -4.44979 
1090 1 0.633333 0.3 0.115479 -4.44979 
935 1 0.65 0.25 -0.00116268 -3.90297 
1091 1 0.666667 0.3 0.0569188 -4.44434 
1092 1 0.683333 0.25 0.115441 -4.45344 
1094 1 0.666667 0.2 0.0569186 -4.44434 
1095 1 0.7 0.2 -0.000553198 -3.46778 
1097 1 0.716667 0.25 0.0572342 -4.28689 
1124 1 0.7 0.3 -0.000552751 -3.46778 
1242 1 0.733333 0.3 0.11542 -4.44261 
1245 1 0.733333 0.2 0.11542 -4.4426 
1246 1 0.766667 0.2 0.055975 -4.17122 
1248 1 0.783333 0.25 0.115051 -4.45254 
1280 1 0.766667 0.3 0.0559777 -4.17122 
1281 1 0.8 0.3 -0.00102219 -3.46537 
1282 1 0.816667 0.25 0.0570052 -4.42623 
1284 1 0.8 0.2 -0.00102718 -3.4654 
1286 1 0.85 0.25 -0.00119727 -3.90308 
1407 1 0.833333 0.2 0.115412 -4.44955 
1441 1 0.833333 0.3 0.115423 -4.44957 
1442 1 0.866667 0.3 0.0567892 -4.45166 
1443 1 0.883333 0.25 0.115548 -4.45089 
1445 1 0.866667 0.2 0.0567532 -4.4514 
1446 1 0.9 0.2 -0.00120126 -3.90407 
1477 1 0.9 0.3 -0.0011422 -3.90422 
1448 1 0.916667 0.25 0.0569564 -4.45001 
1478 1 0.95 0.25 -0.000923843 -3.90504 
1602 1 0.933333 0.3 0.115556 -4.43071 
1605 1 0.933333 0.2 0.115659 -4.44666 
1606 1 0.966667 0.2 0.0571323 -4.45253 
1608 1 0.983333 0.25 0.116094 -4.32318 
1635 1 0.966667 0.3 0.057299 -4.44963 
8 1 0.0166667 0.35 0.0572511 -4.44368 
12 1 0 0.5 -0.000936819 -3.90457 
13 1 0.0166667 0.45 0.057152 -4.44672 
15 1 0 0.4 -0.000788052 -3.90426 
16 1 0.05 0.35 -0.000885341 -3.90517 
17 1 0.05 0.45 -0.000971317 -3.90482 
53 1 0.0333333 0.4 0.115817 -4.308 
59 1 0.0833333 0.35 0.115627 -4.44321 
74 1 0.0333333 0.5 0.115575 -4.43461 
75 1 0.0666667 0.5 0.0569847 -4.45028 
76 1 0.0833333 0.45 0.115648 -4.44713 
78 1 0.0666667 0.4 0.0571108 -4.45267 
79 1 0.1 0.4 -0.00112963 -3.90435 
80 1 0.116667 0.35 0.0568483 -4.44982 
81 1 0.116667 0.45 0.0568397 -4.44996 
84 1 0.15 0.35 -0.00129308 -3.90425 
99 1 0.1 0.5 -0.00117608 -3.90415 
100 1 0.15 0.45 -0.00129543 -3.90428 
202 1 0.133333 0.5 0.115506 -4.44988 
205 1 0.133333 0.4 0.115503 -4.45003 
206 1 0.166667 0.4 0.056728 -4.45 
233 1 0.166667 0.5 0.0567303 -4.44997 
207 1 0.183333 0.35 0.115429 -4.44983 
208 1 0.183333 0.45 0.115432 -4.44984 
212 1 0.216667 0.35 0.0566749 -4.44997 
234 1 0.2 0.5 -0.00136456 -3.90434 
235 1 0.216667 0.45 0.0566758 -4.44997 
237 1 0.2 0.4 -0.00136589 -3.90434 
238 1 0.25 0.35 -0.00140304 -3.90436 
239 1 0.25 0.45 -0.00140295 -3.90436 
367 1 0.233333 0.4 0.115397 -4.44985 
398 1 0.233333 0.5 0.115398 -4.44985 
399 1 0.266667 0.5 0.0566464 -4.44998 
402 1 0.266667 0.4 0.0566468 -4.44998 
373 1 0.283333 0.35 0.115378 -4.44986 
400 1 0.283333 0.45 0.115377 -4.44986 
403 1 0.3 0.4 -0.00142209 -3.90438 
404 1 0.316667 0.35 0.0566327 -4.44997 
405 1 0.316667 0.45 0.0566314 -4.44998 
408 1 0.35 0.35 -0.00143309 -3.90438 
426 1 0.3 0.5 -0.001423 -3.90438 
427 1 0.35 0.45 -0.00143414 -3.90438 
562 1 0.333333 0.5 0.115365 -4.44986 
565 1 0.333333 0.4 0.115366 -4.44986 
566 1 0.366667 0.4 0.0566225 -4.44997 
567 1 0.383333 0.35 0.115359 -4.44986 
568 1 0.383333 0.45 0.115359 -4.44986 
572 1 0.416667 0.35 0.0566189 -4.44998 
593 1 0.366667 0.5 0.0566219 -4.44997 
594 1 0.4 0.5 -0.0014405 -3.90437 
595 1 0.416667 0.45 0.0566188 -4.44998 
597 1 0.4 0.4 -0.00144019 -3.90437 
598 1 0.45 0.35 -0.00143698 -3.90437 
599 1 0.45 0.45 -0.00143764 -3.90437 
727 1 0.433333 0.4 0.115359 -4.44986 
758 1 0.433333 0.5 0.115358 -4.44986 
733 1 0.483333 0.35 0.115367 -4.44985 
759 1 0.466667 0.5 0.0566232 -4.44997 
760 1 0.483333 0.45 0.115365 -4.44985 
762 1 0.466667 0.4 0.0566241 -4.44998 
763 1 0.5 0.4 -0.00142698 -3.90435 
764 1 0.516667 0.35 0.0566408 -4.44998 
765 1 0.516667 0.45 0.0566382 -4.44998 
786 1 0.5 0.5 -0.00142893 -3.90436 
922 1 0.533333 0.5 0.115381 -4.44986 
925 1 0.533333 0.4 0.115385 -4.44986 
768 1 0.55 0.35 -0.00139425 -3.90435 
787 1 0.55 0.45 -0.0013985 -3.90435 
926 1 0.566667 0.4 0.0566758 -4.44998 
927 1 0.583333 0.35 0.115425 -4.44986 
928 1 0.583333 0.45 0.11542 -4.44986 
932 1 0.616667 0.35 0.0567465 -4.45019 
953 1 0.566667 0.5 0.0566697 -4.44998 
954 1 0.6 0.5 -0.00134777 -3.90419 
955 1 0.616667 0.45 0.0567398 -4.45019 
957 1 0.6 0.4 -0.00133857 -3.90419 
1087 1 0.633333 0.4 0.115475 -4.44979 
1116 1 0.633333 0.5 0.115465 -4.44982 
958 1 0.65 0.35 -0.00116594 -3.90297 
959 1 0.65 0.45 -0.00117475 -3.90298 
1093 1 0.683333 0.35 0.115439 -4.45343 
1117 1 0.666667 0.5 0.0568983 -4.44426 
1118 1 0.683333 0.45 0.115431 -4.45346 
1120 1 0.666667 0.4 0.0569134 -4.44434 
1121 1 0.7 0.4 -0.000558585 -3.46778 
1122 1 0.716667 0.35 0.0572322 -4.28689 
1123 1 0.716667 0.45 0.0572211 -4.28688 
1142 1 0.7 0.5 -0.000580911 -3.46781 
1273 1 0.733333 0.5 0.115404 -4.44255 
1276 1 0.733333 0.4 0.115416 -4.44261 
1277 1 0.766667 0.4 0.0559777 -4.17122 
1278 1 0.783333 0.35 0.115053 -4.45253 
1279 1 0.783333 0.45 0.11505 -4.45252 
1283 1 0.816667 0.35 0.057011 -4.42619 
1304 1 0.766667 0.5 0.0559744 -4.17113 
1305 1 0.8 0.5 -0.00102628 -3.46547 
1306 1 0.816667 0.45 0.0570062 -4.42624 
1308 1 0.8 0.4 -0.00102133 -3.46537 
1309 1 0.85 0.35 -0.00118161 -3.90305 
1310 1 0.85 0.45 -0.00119424 -3.90308 
1438 1 0.833333 0.4 0.115423 -4.44957 
1444 1 0.883333 0.35 0.115588 -4.45136 
1469 1 0.833333 0.5 0.115414 -4.44954 
1470 1 0.866667 0.5 0.0567591 -4.4514 
1471 1 0.883333 0.45 0.115546 -4.45089 
1473 1 0.866667 0.4 0.0567897 -4.45166 
1474 1 0.9 0.4 -0.00114062 -3.90422 
1497 1 0.9 0.5 -0.00119069 -3.90405 
1475 1 0.916667 0.35 0.0570078 -4.44997 
1476 1 0.916667 0.45 0.0569591 -4.45001 
1479 1 0.95 0.35 -0.000842314 -3.90512 
1498 1 0.95 0.45 -0.000917145 -3.90502 
1628 1 0.933333 0.5 0.115659 -4.44663 
1631 1 0.933333 0.4 0.115553 -4.43071 
1632 1 0.966667 0.4 0.0572996 -4.44962 
1633 1 0.983333 0.35 0.116552 -4.18096 
1634 1 0.983333 0.45 0.116091 -4.32322 
1653 1 0.966667 0.5 0.0571461 -4.45253 
14 1 0.0166667 0.55 0.0570468 -4.45012 
19 1 0.0166667 0.65 0.0570591 -4.45004 
21 1 0 0.6 -0.00102383 -3.90416 
22 1 0.05 0.55 -0.00106135 -3.90442 
23 1 0.05 0.65 -0.00105185 -3.90448 
71 1 0.0333333 0.6 0.115774 -4.45097 
77 1 0.0833333 0.55 0.11565 -4.45042 
93 1 0.0833333 0.65 0.115666 -4.45037 
95 1 0.0666667 0.6 0.0569629 -4.45042 
96 1 0.1 0.6 -0.00118159 -3.90424 
97 1 0.116667 0.55 0.0568304 -4.44993 
98 1 0.116667 0.65 0.0568392 -4.44998 
101 1 0.15 0.55 -0.00129499 -3.90431 
112 1 0.15 0.65 -0.00128779 -3.90432 
229 1 0.133333 0.6 0.115517 -4.44989 
230 1 0.166667 0.6 0.0567358 -4.44998 
231 1 0.183333 0.55 0.115439 -4.44986 
232 1 0.183333 0.65 0.115443 -4.44985 
236 1 0.216667 0.55 0.0566776 -4.44998 
251 1 0.216667 0.65 0.056681 -4.44998 
253 1 0.2 0.6 -0.00136145 -3.90435 
254 1 0.25 0.55 -0.00140325 -3.90436 
255 1 0.25 0.65 -0.00140132 -3.90436 
395 1 0.233333 0.6 0.1154 -4.44985 
422 1 0.266667 0.6 0.056647 -4.44998 
401 1 0.283333 0.55 0.115376 -4.44985 
420 1 0.283333 0.65 0.115377 -4.44986 
423 1 0.3 0.6 -0.0014231 -3.90437 
424 1 0.316667 0.55 0.0566308 -4.44997 
425 1 0.316667 0.65 0.0566305 -4.44998 
428 1 0.35 0.55 -0.00143466 -3.90438 
439 1 0.35 0.65 -0.00143533 -3.90438 
589 1 0.333333 0.6 0.115365 -4.44986 
590 1 0.366667 0.6 0.0566212 -4.44997 
591 1 0.383333 0.55 0.115359 -4.44986 
592 1 0.383333 0.65 0.115358 -4.44986 
596 1 0.416667 0.55 0.0566183 -4.44998 
611 1 0.416667 0.65 0.0566177 -4.44998 
613 1 0.4 0.6 -0.00144124 -3.90437 
614 1 0.45 0.55 -0.00143821 -3.90438 
615 1 0.45 0.65 -0.00143905 -3.90438 
755 1 0.433333 0.6 0.115358 -4.44986 
761 1 0.483333 0.55 0.115364 -4.44985 
780 1 0.483333 0.65 0.115362 -4.44985 
782 1 0.466667 0.6 0.0566219 -4.44997 
783 1 0.5 0.6 -0.00143132 -3.90436 
784 1 0.516667 0.55 0.0566349 -4.44998 
785 1 0.516667 0.65 0.0566321 -4.44998 
949 1 0.533333 0.6 0.115377 -4.44985 
788 1 0.55 0.55 -0.00140458 -3.90435 
799 1 0.55 0.65 -0.00141044 -3.90435 
950 1 0.566667 0.6 0.0566619 -4.44997 
951 1 0.583333 0.55 0.115412 -4.44986 
952 1 0.583333 0.65 0.115402 -4.44986 
956 1 0.616667 0.55 0.0567259 -4.45018 
971 1 0.616667 0.65 0.0567054 -4.45015 
973 1 0.6 0.6 -0.0013615 -3.90419 
1113 1 0.633333 0.6 0.115448 -4.44971 
974 1 0.65 0.55 -0.00119768 -3.90307 
975 1 0.65 0.65 -0.00124676 -3.90141 
1119 1 0.683333 0.55 0.115412 -4.45307 
1136 1 0.683333 0.65 0.115366 -4.45337 
1138 1 0.666667 0.6 0.0568642 -4.44376 
1139 1 0.7 0.6 -0.000723253 -3.47252 
1140 1 0.716667 0.55 0.0571858 -4.28638 
1141 1 0.716667 0.65 0.0568514 -4.3072 
1300 1 0.733333 0.6 0.115371 -4.443 
1301 1 0.766667 0.6 0.0559511 -4.17552 
1302 1 0.783333 0.55 0.115053 -4.45259 
1303 1 0.783333 0.65 0.115231 -4.44942 
1307 1 0.816667 0.55 0.0569995 -4.42624 
1322 1 0.816667 0.65 0.057016 -4.42981 
1324 1 0.8 0.6 -0.00106073 -3.46996 
1325 1 0.85 0.55 -0.0012092 -3.90316 
1326 1 0.85 0.65 -0.00119445 -3.90145 
1466 1 0.833333 0.6 0.115429 -4.44962 
1472 1 0.883333 0.55 0.1155 -4.45033 
1491 1 0.883333 0.65 0.115518 -4.45025 
1493 1 0.866667 0.6 0.0567561 -4.45126 
1494 1 0.9 0.6 -0.00121065 -3.90413 
1495 1 0.916667 0.55 0.0568867 -4.45008 
1496 1 0.916667 0.65 0.0568968 -4.45001 
1499 1 0.95 0.55 -0.00104719 -3.90453 
1510 1 0.95 0.65 -0.00104273 -3.90459 
1649 1 0.933333 0.6 0.115637 -4.45012 
1650 1 0.966667 0.6 0.0570036 -4.44979 
1651 1 0.983333 0.55 0.115734 -4.44661 
1652 1 0.983333 0.65 0.115762 -4.44661 
18 1 0 0.7 -0.000933527 -3.90481 
20 1 0.0166667 0.75 0.0571476 -4.44694 
27 1 0 0.8 -0.000899333 -3.90402 
28 1 0.05 0.75 -0.000966254 -3.90481 
88 1 0.0333333 0.8 0.116093 -4.32687 
91 1 0.0333333 0.7 0.11561 -4.43422 
92 1 0.0666667 0.7 0.0569993 -4.44992 
94 1 0.0833333 0.75 0.115668 -4.44656 
107 1 0.0666667 0.8 0.0571028 -4.45257 
108 1 0.1 0.8 -0.00112554 -3.90456 
109 1 0.116667 0.75 0.0568557 -4.44989 
111 1 0.1 0.7 -0.00116234 -3.90423 
113 1 0.15 0.75 -0.00128006 -3.90431 
226 1 0.133333 0.7 0.115523 -4.44987 
245 1 0.133333 0.8 0.115528 -4.45003 
246 1 0.166667 0.8 0.056742 -4.45001 
249 1 0.166667 0.7 0.0567416 -4.44997 
247 1 0.183333 0.75 0.115445 -4.44984 
250 1 0.2 0.7 -0.00135663 -3.90435 
252 1 0.216667 0.75 0.0566829 -4.44997 
261 1 0.2 0.8 -0.00135693 -3.90435 
262 1 0.25 0.75 -0.00139987 -3.90436 
415 1 0.233333 0.8 0.115402 -4.44985 
418 1 0.233333 0.7 0.115402 -4.44985 
419 1 0.266667 0.7 0.0566481 -4.44998 
434 1 0.266667 0.8 0.0566484 -4.44998 
421 1 0.283333 0.75 0.115377 -4.44986 
435 1 0.3 0.8 -0.00142306 -3.90437 
436 1 0.316667 0.75 0.0566304 -4.44998 
438 1 0.3 0.7 -0.00142331 -3.90437 
440 1 0.35 0.75 -0.0014354 -3.90437 
586 1 0.333333 0.7 0.115365 -4.44986 
605 1 0.333333 0.8 0.115365 -4.44986 
606 1 0.366667 0.8 0.0566214 -4.44997 
607 1 0.383333 0.75 0.115358 -4.44986 
609 1 0.366667 0.7 0.0566208 -4.44997 
610 1 0.4 0.7 -0.00144139 -3.90437 
612 1 0.416667 0.75 0.0566178 -4.44998 
621 1 0.4 0.8 -0.00144077 -3.90437 
622 1 0.45 0.75 -0.00143936 -3.90438 
775 1 0.433333 0.8 0.115358 -4.44986 
778 1 0.433333 0.7 0.115357 -4.44986 
779 1 0.466667 0.7 0.0566212 -4.44997 
781 1 0.483333 0.75 0.115362 -4.44985 
794 1 0.466667 0.8 0.0566214 -4.44997 
795 1 0.5 0.8 -0.00143252 -3.90436 
796 1 0.516667 0.75 0.0566308 -4.44998 
798 1 0.5 0.7 -0.00143269 -3.90436 
946 1 0.533333 0.7 0.115374 -4.44986 
965 1 0.533333 0.8 0.115374 -4.44986 
800 1 0.55 0.75 -0.00141325 -3.90436 
966 1 0.566667 0.8 0.0566545 -4.44998 
967 1 0.583333 0.75 0.115396 -4.44985 
969 1 0.566667 0.7 0.0566544 -4.44998 
970 1 0.6 0.7 -0.00137673 -3.90429 
972 1 0.616667 0.75 0.0566888 -4.45014 
981 1 0.6 0.8 -0.00137668 -3.90429 
1131 1 0.633333 0.8 0.115427 -4.44986 
1134 1 0.633333 0.7 0.115427 -4.44986 
982 1 0.65 0.75 -0.00130486 -3.90744 
1135 1 0.666667 0.7 0.0567741 -4.44796 
1137 1 0.683333 0.75 0.115451 -4.45068 
1148 1 0.666667 0.8 0.0567742 -4.44796 
1149 1 0.7 0.8 -0.000893813 -3.6913 
1150 1 0.716667 0.75 0.0572689 -4.41718 
1152 1 0.7 0.7 -0.00089394 -3.6913 
1153 1 0.75 0.75 -0.000923929 -3.47889 
1297 1 0.733333 0.7 0.115434 -4.44647 
1316 1 0.733333 0.8 0.115434 -4.44647 
1317 1 0.766667 0.8 0.0565583 -4.31863 
1318 1 0.783333 0.75 0.115235 -4.45537 
1320 1 0.766667 0.7 0.0565584 -4.31863 
1321 1 0.8 0.7 -0.00101228 -3.69154 
1323 1 0.816667 0.75 0.0568502 -4.44315 
1332 1 0.8 0.8 -0.00101222 -3.69154 
1333 1 0.85 0.75 -0.00123617 -3.90741 
1486 1 0.833333 0.8 0.115466 -4.44977 
1489 1 0.833333 0.7 0.115463 -4.44976 
1490 1 0.866667 0.7 0.0567929 -4.45083 
1492 1 0.883333 0.75 0.115571 -4.45052 
1505 1 0.866667 0.8 0.0568039 -4.45102 
1506 1 0.9 0.8 -0.00116535 -3.90444 
1509 1 0.9 0.7 -0.00117967 -3.90418 
1507 1 0.916667 0.75 0.0569481 -4.45001 
1511 1 0.95 0.75 -0.000977174 -3.9048 
1646 1 0.933333 0.7 0.115683 -4.4465 
1659 1 0.933333 0.8 0.115532 -4.43422 
1660 1 0.966667 0.8 0.0571197 -4.44692 
1661 1 0.983333 0.75 0.116119 -4.32689 
1663 1 0.966667 0.7 0.0571473 -4.4526 
24 1 0 0.9 -0.000974484 -3.90479 
25 1 0.0166667 0.85 0.0571237 -4.44692 
26 1 0.0166667 0.95 0.0570002 -4.44998 
29 1 0.05 0.85 -0.000984797 -3.90478 
30 1 0.05 0.95 -0.00110303 -3.90451 
103 1 0.0333333 0.9 0.115564 -4.43419 
104 1 0.0666667 0.9 0.0569672 -4.44996 
105 1 0.0833333 0.85 0.115654 -4.44657 
106 1 0.0833333 0.95 0.115626 -4.45035 
110 1 0.116667 0.85 0.0568472 -4.44989 
114 1 0.116667 0.95 0.056816 -4.45002 
115 1 0.1 0.9 -0.00118354 -3.90423 
116 1 0.15 0.85 -0.00128568 -3.90431 
117 1 0.15 0.95 -0.00130153 -3.90432 
242 1 0.133333 0.9 0.115512 -4.44988 
257 1 0.166667 0.9 0.0567345 -4.44997 
248 1 0.183333 0.85 0.115443 -4.44984 
256 1 0.183333 0.95 0.11544 -4.44986 
258 1 0.2 0.9 -0.00136078 -3.90435 
259 1 0.216667 0.85 0.0566814 -4.44998 
260 1 0.216667 0.95 0.0566797 -4.44998 
263 1 0.25 0.85 -0.00140043 -3.90436 
264 1 0.25 0.95 -0.00139987 -3.90436 
430 1 0.233333 0.9 0.115402 -4.44985 
431 1 0.266667 0.9 0.056649 -4.44998 
432 1 0.283333 0.85 0.115378 -4.44985 
433 1 0.283333 0.95 0.115379 -4.44986 
437 1 0.316667 0.85 0.0566312 -4.44997 
441 1 0.316667 0.95 0.0566328 -4.44998 
442 1 0.3 0.9 -0.00142177 -3.90437 
443 1 0.35 0.85 -0.00143433 -3.90438 
444 1 0.35 0.95 -0.00143321 -3.90438 
602 1 0.333333 0.9 0.115366 -4.44986 
608 1 0.383333 0.85 0.115359 -4.44986 
616 1 0.383333 0.95 0.11536 -4.44986 
617 1 0.366667 0.9 0.0566225 -4.44997 
618 1 0.4 0.9 -0.00143972 -3.90438 
619 1 0.416667 0.85 0.0566187 -4.44998 
620 1 0.416667 0.95 0.0566197 -4.44998 
623 1 0.45 0.85 -0.00143841 -3.90438 
624 1 0.45 0.95 -0.00143719 -3.90438 
790 1 0.433333 0.9 0.115359 -4.44986 
791 1 0.466667 0.9 0.0566226 -4.44997 
792 1 0.483333 0.85 0.115363 -4.44985 
793 1 0.483333 0.95 0.115364 -4.44985 
797 1 0.516667 0.85 0.0566324 -4.44998 
801 1 0.516667 0.95 0.0566353 -4.44998 
802 1 0.5 0.9 -0.0014309 -3.90436 
962 1 0.533333 0.9 0.115378 -4.44985 
803 1 0.55 0.85 -0.00141025 -3.90435 
804 1 0.55 0.95 -0.00140435 -3.90435 
968 1 0.583333 0.85 0.115402 -4.44986 
976 1 0.583333 0.95 0.115412 -4.44986 
977 1 0.566667 0.9 0.0566621 -4.44998 
978 1 0.6 0.9 -0.0013613 -3.90419 
979 1 0.616667 0.85 0.0567055 -4.45015 
980 1 0.616667 0.95 0.0567262 -4.45017 
1144 1 0.633333 0.9 0.115448 -4.44971 
983 1 0.65 0.85 -0.00124662 -3.90141 
984 1 0.65 0.95 -0.00119737 -3.90307 
1145 1 0.666667 0.9 0.0568644 -4.44376 
1146 1 0.683333 0.85 0.115367 -4.45337 
1147 1 0.683333 0.95 0.115412 -4.45306 
1151 1 0.716667 0.85 0.0568514 -4.3072 
1154 1 0.716667 0.95 0.0571853 -4.28638 
1155 1 0.7 0.9 -0.000723192 -3.47252 
1313 1 0.733333 0.9 0.115371 -4.443 
1319 1 0.783333 0.85 0.115231 -4.44942 
1327 1 0.783333 0.95 0.11505 -4.45259 
1328 1 0.766667 0.9 0.0559492 -4.17552 
1329 1 0.8 0.9 -0.00106333 -3.46997 
1330 1 0.816667 0.85 0.0570168 -4.42977 
1331 1 0.816667 0.95 0.0569929 -4.42623 
1334 1 0.85 0.85 -0.00118944 -3.90142 
1335 1 0.85 0.95 -0.00122301 -3.90318 
1501 1 0.833333 0.9 0.115429 -4.44963 
1502 1 0.866667 0.9 0.0567579 -4.45133 
1503 1 0.883333 0.85 0.115553 -4.45077 
1504 1 0.883333 0.95 0.11549 -4.45037 
1513 1 0.9 0.9 -0.0012094 -3.9041 
1508 1 0.916667 0.85 0.05693 -4.45008 
1512 1 0.916667 0.95 0.0568574 -4.45001 
1514 1 0.95 0.85 -0.000998749 -3.90479 
1515 1 0.95 0.95 -0.00109447 -3.9046 
1656 1 0.933333 0.9 0.115648 -4.44653 
1662 1 0.983333 0.85 0.116081 -4.32687 
1664 1 0.983333 0.95 0.115705 -4.44657 
1665 1 0.966667 0.9 0.0571063 -4.45258 
31 1 0 0.1 0.174492 -4.45121 
32 1 0.0166667 0.05 0.233279 -4.44724 
33 1 0.0166667 0.15 0.233232 -4.44381 
34 1 0 0 0.174476 -4.45181 
36 1 0.05 0.05 0.174462 -4.45002 
41 1 0.05 0.15 0.174443 -4.44752 
131 1 0.0666667 0.1 0.233289 -4.4527 
134 1 0.0666667 0 0.233188 -4.45045 
135 1 0.1 0 0.174353 -4.44982 
136 1 0.116667 0.05 0.233106 -4.44986 
150 1 0.116667 0.15 0.233095 -4.44996 
152 1 0.1 0.1 0.174372 -4.45006 
154 1 0.15 0.05 0.174275 -4.44997 
155 1 0.15 0.15 0.174271 -4.45005 
288 1 0.166667 0 0.233044 -4.44999 
307 1 0.166667 0.1 0.233044 -4.45002 
308 1 0.2 0.1 0.174227 -4.44999 
309 1 0.216667 0.05 0.233016 -4.45 
310 1 0.216667 0.15 0.233015 -4.45 
311 1 0.2 0 0.174228 -4.44999 
313 1 0.25 0.05 0.174202 -4.44999 
337 1 0.25 0.15 0.174202 -4.44999 
475 1 0.266667 0.1 0.233 -4.45 
478 1 0.266667 0 0.233 -4.45 
479 1 0.3 0 0.174187 -4.44999 
480 1 0.316667 0.05 0.232991 -4.45 
500 1 0.316667 0.15 0.232991 -4.45 
502 1 0.3 0.1 0.174188 -4.44999 
504 1 0.35 0.05 0.17418 -4.44999 
505 1 0.35 0.15 0.17418 -4.44999 
648 1 0.366667 0 0.232986 -4.45 
667 1 0.366667 0.1 0.232986 -4.45 
668 1 0.4 0.1 0.174174 -4.44999 
669 1 0.416667 0.05 0.232983 -4.45 
670 1 0.416667 0.15 0.232983 -4.45 
671 1 0.4 0 0.174175 -4.44999 
673 1 0.45 0.05 0.174176 -4.44999 
697 1 0.45 0.15 0.174176 -4.44999 
835 1 0.466667 0.1 0.232986 -4.45 
838 1 0.466667 0 0.232986 -4.45 
839 1 0.5 0 0.174183 -4.44999 
840 1 0.516667 0.05 0.232995 -4.45 
860 1 0.516667 0.15 0.232997 -4.45 
862 1 0.5 0.1 0.174185 -4.44999 
864 1 0.55 0.05 0.174202 -4.44999 
865 1 0.55 0.15 0.174206 -4.44999 
1008 1 0.566667 0 0.233009 -4.45 
1027 1 0.566667 0.1 0.233012 -4.45 
1028 1 0.6 0.1 0.174233 -4.44994 
1029 1 0.616667 0.05 0.233025 -4.45001 
1030 1 0.616667 0.15 0.233029 -4.45001 
1031 1 0.6 0 0.174227 -4.44994 
1033 1 0.65 0.05 0.174243 -4.44982 
1057 1 0.65 0.15 0.174248 -4.44981 
1186 1 0.666667 0.1 0.233017 -4.44996 
1189 1 0.666667 0 0.233011 -4.44995 
1190 1 0.7 0 0.174192 -4.45054 
1191 1 0.716667 0.05 0.232963 -4.45006 
1211 1 0.716667 0.15 0.232967 -4.45007 
1213 1 0.7 0.1 0.174202 -4.45054 
1215 1 0.75 0.05 0.174077 -4.44908 
1216 1 0.75 0.15 0.174082 -4.44908 
1359 1 0.766667 0 0.232896 -4.4499 
1378 1 0.766667 0.1 0.232898 -4.44988 
1379 1 0.8 0.1 0.174038 -4.45056 
1380 1 0.816667 0.05 0.232927 -4.45005 
1381 1 0.816667 0.15 0.232929 -4.45005 
1382 1 0.8 0 0.174039 -4.45059 
1384 1 0.85 0.05 0.174215 -4.44972 
1408 1 0.85 0.15 0.17422 -4.4498 
1546 1 0.866667 0.1 0.233043 -4.45019 
1549 1 0.866667 0 0.23303 -4.45 
1550 1 0.9 0 0.174303 -4.44981 
1573 1 0.9 0.1 0.174312 -4.45002 
1551 1 0.916667 0.05 0.233136 -4.45009 
1571 1 0.916667 0.15 0.233106 -4.45063 
1575 1 0.95 0.05 0.174424 -4.45003 
1576 1 0.95 0.15 0.174443 -4.44752 
1689 1 0.966667 0 0.233271 -4.45313 
1708 1 0.966667 0.1 0.233226 -4.44766 
37 1 0.0166667 0.25 0.232769 -4.32309 
39 1 0 0.2 0.174466 -4.32867 
42 1 0.05 0.25 0.17436 -4.32454 
145 1 0.0666667 0.3 0.233167 -4.43108 
148 1 0.0666667 0.2 0.233114 -4.44694 
149 1 0.1 0.2 0.174339 -4.4515 
151 1 0.116667 0.25 0.233026 -4.45065 
173 1 0.1 0.3 0.174314 -4.449 
175 1 0.15 0.25 0.174256 -4.45003 
304 1 0.166667 0.2 0.233035 -4.45001 
331 1 0.166667 0.3 0.233022 -4.45003 
332 1 0.2 0.3 0.174219 -4.45001 
333 1 0.216667 0.25 0.233011 -4.45 
335 1 0.2 0.2 0.174224 -4.44999 
338 1 0.25 0.25 0.1742 -4.44999 
495 1 0.266667 0.3 0.232998 -4.45 
498 1 0.266667 0.2 0.232999 -4.45 
499 1 0.3 0.2 0.174188 -4.44999 
501 1 0.316667 0.25 0.23299 -4.45 
530 1 0.3 0.3 0.174187 -4.44999 
532 1 0.35 0.25 0.174179 -4.44999 
664 1 0.366667 0.2 0.232985 -4.45 
691 1 0.366667 0.3 0.232985 -4.45 
692 1 0.4 0.3 0.174174 -4.44999 
693 1 0.416667 0.25 0.232983 -4.45 
695 1 0.4 0.2 0.174174 -4.44999 
698 1 0.45 0.25 0.174176 -4.44999 
855 1 0.466667 0.3 0.232986 -4.45 
858 1 0.466667 0.2 0.232986 -4.45 
859 1 0.5 0.2 0.174186 -4.44999 
861 1 0.516667 0.25 0.232997 -4.45 
890 1 0.5 0.3 0.174185 -4.44999 
892 1 0.55 0.25 0.174207 -4.44999 
1024 1 0.566667 0.2 0.233015 -4.45 
1051 1 0.566667 0.3 0.233014 -4.45 
1052 1 0.6 0.3 0.174237 -4.44994 
1053 1 0.616667 0.25 0.23303 -4.45001 
1055 1 0.6 0.2 0.174237 -4.44994 
1058 1 0.65 0.25 0.174251 -4.44982 
1206 1 0.666667 0.3 0.233021 -4.44996 
1209 1 0.666667 0.2 0.233021 -4.44996 
1210 1 0.7 0.2 0.174207 -4.45054 
1212 1 0.716667 0.25 0.232969 -4.45007 
1241 1 0.7 0.3 0.174207 -4.45054 
1243 1 0.75 0.25 0.174084 -4.44908 
1375 1 0.766667 0.2 0.2329 -4.44988 
1402 1 0.766667 0.3 0.2329 -4.44988 
1403 1 0.8 0.3 0.174044 -4.45058 
1404 1 0.816667 0.25 0.23293 -4.45008 
1406 1 0.8 0.2 0.174041 -4.45056 
1409 1 0.85 0.25 0.174228 -4.44979 
1566 1 0.866667 0.3 0.233013 -4.45013 
1569 1 0.866667 0.2 0.233032 -4.45004 
1570 1 0.9 0.2 0.174317 -4.45148 
1601 1 0.9 0.3 0.174309 -4.44902 
1572 1 0.916667 0.25 0.233036 -4.44723 
1603 1 0.95 0.25 0.174439 -4.32441 
1705 1 0.966667 0.2 0.233387 -4.43753 
1726 1 0.966667 0.3 0.232953 -4.30789 
38 1 0.0166667 0.35 0.232219 -4.18064 
50 1 0 0.5 0.174454 -4.32882 
51 1 0.0166667 0.45 0.232741 -4.32314 
54 1 0.05 0.35 0.174277 -4.1808 
55 1 0.05 0.45 0.17435 -4.32455 
166 1 0.0666667 0.5 0.233095 -4.44686 
169 1 0.0666667 0.4 0.233157 -4.43108 
170 1 0.1 0.4 0.174311 -4.449 
171 1 0.116667 0.35 0.232971 -4.45098 
172 1 0.116667 0.45 0.233017 -4.45065 
176 1 0.15 0.35 0.174245 -4.4499 
201 1 0.1 0.5 0.174336 -4.4515 
203 1 0.15 0.45 0.174253 -4.45003 
328 1 0.166667 0.4 0.233018 -4.45003 
362 1 0.166667 0.5 0.233029 -4.45001 
334 1 0.216667 0.35 0.233008 -4.45 
363 1 0.2 0.5 0.174222 -4.44999 
364 1 0.216667 0.45 0.233008 -4.45 
366 1 0.2 0.4 0.174218 -4.45001 
368 1 0.25 0.35 0.174198 -4.44998 
369 1 0.25 0.45 0.174198 -4.44999 
523 1 0.266667 0.5 0.232996 -4.45 
526 1 0.266667 0.4 0.232996 -4.45 
527 1 0.3 0.4 0.174185 -4.44999 
528 1 0.316667 0.35 0.232989 -4.45 
529 1 0.316667 0.45 0.232988 -4.45 
533 1 0.35 0.35 0.174178 -4.44999 
561 1 0.3 0.5 0.174184 -4.44999 
563 1 0.35 0.45 0.174178 -4.44999 
688 1 0.366667 0.4 0.232985 -4.45 
694 1 0.416667 0.35 0.232982 -4.45 
722 1 0.366667 0.5 0.232984 -4.45 
723 1 0.4 0.5 0.174173 -4.44999 
724 1 0.416667 0.45 0.232982 -4.45 
726 1 0.4 0.4 0.174173 -4.44999 
728 1 0.45 0.35 0.174175 -4.44999 
729 1 0.45 0.45 0.174175 -4.44999 
883 1 0.466667 0.5 0.232985 -4.45 