ITEM: TIMESTEP
5
ITEM: NUMBER OF ATOMS
3584
ITEM: BOX BOUNDS pp pp ss
0.0000000000000000e+00 4.3111019472983898e+01
0.0000000000000000e+00 2.4890158697766498e+01
-3.6580800000000006e-03 3.4552298188307212e+01
ITEM: ATOMS id type xs ys zs c_peratom 
1 1 0 0.1 -3.52546e-05 -3.90296 
2 1 0.0166667 0.05 0.0589713 -4.40782 
3 1 0.0166667 0.15 0.0589679 -4.40716 
4 1 0 0 -3.58775e-05 -3.90303 
5 1 0.05 0.05 7.70256e-06 -3.90366 
9 1 0 0.2 0.000247051 -3.90305 
10 1 0.05 0.15 -2.19919e-05 -3.90278 
35 1 0.0333333 0 0.117785 -4.44992 
40 1 0.0333333 0.2 0.117923 -4.42576 
43 1 0.0333333 0.1 0.117822 -4.45143 
44 1 0.0666667 0.1 0.058983 -4.40789 
45 1 0.0833333 0.05 0.117742 -4.44948 
46 1 0.0833333 0.15 0.117768 -4.44997 
47 1 0.0666667 0 0.0589919 -4.40816 
60 1 0.0666667 0.2 0.0589973 -4.40787 
48 1 0.1 0 3.28531e-07 -3.90384 
49 1 0.116667 0.05 0.0589653 -4.40755 
61 1 0.1 0.2 -2.69359e-05 -3.90331 
62 1 0.116667 0.15 0.0589743 -4.40795 
64 1 0.1 0.1 -5.3107e-07 -3.90372 
65 1 0.15 0.05 -9.63814e-06 -3.90378 
66 1 0.15 0.15 -5.55893e-06 -3.90383 
153 1 0.133333 0.1 0.117712 -4.44917 
156 1 0.133333 0 0.117703 -4.44905 
157 1 0.166667 0 0.0589648 -4.40762 
158 1 0.183333 0.05 0.117701 -4.44919 
177 1 0.133333 0.2 0.117697 -4.44908 
178 1 0.166667 0.2 0.0589638 -4.40768 
179 1 0.183333 0.15 0.117701 -4.44919 
181 1 0.166667 0.1 0.0589648 -4.40765 
182 1 0.2 0.1 -9.38884e-06 -3.90383 
183 1 0.216667 0.05 0.0589642 -4.40768 
184 1 0.216667 0.15 0.0589642 -4.40767 
185 1 0.2 0 -9.36514e-06 -3.90383 
186 1 0.25 0.05 -9.38361e-06 -3.90384 
213 1 0.2 0.2 -9.35307e-06 -3.90384 
214 1 0.25 0.15 -9.37273e-06 -3.90384 
312 1 0.233333 0 0.117702 -4.44925 
336 1 0.233333 0.2 0.117702 -4.44926 
339 1 0.233333 0.1 0.117702 -4.44926 
340 1 0.266667 0.1 0.0589642 -4.40768 
341 1 0.283333 0.05 0.117702 -4.44925 
342 1 0.283333 0.15 0.117702 -4.44925 
343 1 0.266667 0 0.0589642 -4.40768 
374 1 0.266667 0.2 0.0589642 -4.40768 
344 1 0.3 0 -9.38934e-06 -3.90384 
345 1 0.316667 0.05 0.0589642 -4.40768 
375 1 0.3 0.2 -9.38931e-06 -3.90384 
376 1 0.316667 0.15 0.0589642 -4.40768 
378 1 0.3 0.1 -9.38912e-06 -3.90384 
379 1 0.35 0.05 -9.38935e-06 -3.90384 
380 1 0.35 0.15 -9.38934e-06 -3.90384 
503 1 0.333333 0.1 0.117702 -4.44925 
506 1 0.333333 0 0.117702 -4.44925 
507 1 0.366667 0 0.0589642 -4.40768 
508 1 0.383333 0.05 0.117702 -4.44925 
534 1 0.333333 0.2 0.117702 -4.44925 
535 1 0.366667 0.2 0.0589642 -4.40768 
536 1 0.383333 0.15 0.117702 -4.44925 
538 1 0.366667 0.1 0.0589642 -4.40768 
539 1 0.4 0.1 -9.38952e-06 -3.90384 
540 1 0.416667 0.05 0.0589642 -4.40768 
541 1 0.416667 0.15 0.0589642 -4.40768 
542 1 0.4 0 -9.38952e-06 -3.90384 
543 1 0.45 0.05 -9.38679e-06 -3.90384 
573 1 0.4 0.2 -9.38952e-06 -3.90384 
574 1 0.45 0.15 -9.38682e-06 -3.90384 
672 1 0.433333 0 0.117702 -4.44925 
696 1 0.433333 0.2 0.117702 -4.44925 
699 1 0.433333 0.1 0.117702 -4.44925 
700 1 0.466667 0.1 0.0589642 -4.40768 
701 1 0.483333 0.05 0.117702 -4.44924 
702 1 0.483333 0.15 0.117702 -4.44924 
703 1 0.466667 0 0.0589642 -4.40768 
734 1 0.466667 0.2 0.0589642 -4.40768 
704 1 0.5 0 -9.45775e-06 -3.90385 
705 1 0.516667 0.05 0.0589642 -4.40767 
735 1 0.5 0.2 -9.45781e-06 -3.90385 
736 1 0.516667 0.15 0.0589642 -4.40767 
738 1 0.5 0.1 -9.45786e-06 -3.90385 
739 1 0.55 0.05 -1.00987e-05 -3.90375 
740 1 0.55 0.15 -1.01201e-05 -3.90376 
863 1 0.533333 0.1 0.117702 -4.4493 
866 1 0.533333 0 0.117702 -4.44931 
867 1 0.566667 0 0.0589579 -4.40797 
868 1 0.583333 0.05 0.117699 -4.44954 
894 1 0.533333 0.2 0.117702 -4.4493 
895 1 0.566667 0.2 0.0589578 -4.40796 
896 1 0.583333 0.15 0.117698 -4.44954 
898 1 0.566667 0.1 0.0589579 -4.40796 
899 1 0.6 0.1 -2.11349e-05 -3.90331 
900 1 0.616667 0.05 0.0589975 -4.40837 
901 1 0.616667 0.15 0.0589976 -4.40838 
902 1 0.6 0 -2.05362e-05 -3.90335 
903 1 0.65 0.05 0.000253124 -3.88994 
933 1 0.6 0.2 -2.12203e-05 -3.90332 
934 1 0.65 0.15 0.000252169 -3.88987 
1032 1 0.633333 0 0.117738 -4.44898 
1056 1 0.633333 0.2 0.117736 -4.44897 
1059 1 0.633333 0.1 0.117736 -4.44896 
1060 1 0.666667 0.1 0.0592514 -4.37594 
1061 1 0.683333 0.05 0.117805 -4.44785 
1062 1 0.683333 0.15 0.117804 -4.44781 
1063 1 0.666667 0 0.059262 -4.3761 
1094 1 0.666667 0.2 0.0592513 -4.37594 
1064 1 0.7 0 0.00111974 -3.55107 
1065 1 0.716667 0.05 0.0590471 -4.25334 
1095 1 0.7 0.2 0.00111775 -3.55074 
1096 1 0.716667 0.15 0.0590455 -4.2533 
1098 1 0.7 0.1 0.0011178 -3.55076 
1214 1 0.733333 0.1 0.117468 -4.42368 
1217 1 0.733333 0 0.11747 -4.42334 
1218 1 0.766667 0 0.0575432 -4.1757 
1219 1 0.783333 0.05 0.117044 -4.43809 
1245 1 0.733333 0.2 0.117468 -4.42365 
1246 1 0.766667 0.2 0.0575476 -4.17611 
1247 1 0.783333 0.15 0.117045 -4.43831 
1249 1 0.766667 0.1 0.0575475 -4.17614 
1250 1 0.8 0.1 0.0010303 -3.54772 
1251 1 0.816667 0.05 0.0595436 -4.34864 
1252 1 0.816667 0.15 0.0595416 -4.34875 
1253 1 0.8 0 0.00102752 -3.54804 
1254 1 0.85 0.05 0.000178731 -3.89091 
1284 1 0.8 0.2 0.00103004 -3.54762 
1285 1 0.85 0.15 0.000183191 -3.89085 
1383 1 0.833333 0 0.118047 -4.44547 
1407 1 0.833333 0.2 0.118058 -4.44544 
1410 1 0.833333 0.1 0.118056 -4.44542 
1411 1 0.866667 0.1 0.0589461 -4.40943 
1412 1 0.883333 0.05 0.117616 -4.45045 
1413 1 0.883333 0.15 0.117611 -4.45066 
1414 1 0.866667 0 0.0589469 -4.40918 
1445 1 0.866667 0.2 0.0589547 -4.40969 
1415 1 0.9 0 -7.91238e-05 -3.90279 
1416 1 0.916667 0.05 0.0589103 -4.40728 
1446 1 0.9 0.2 -0.000106106 -3.90202 
1447 1 0.916667 0.15 0.058906 -4.40644 
1449 1 0.9 0.1 -7.8701e-05 -3.90272 
1450 1 0.95 0.05 -4.19597e-05 -3.90317 
1451 1 0.95 0.15 6.6903e-05 -3.90343 
1574 1 0.933333 0.1 0.11769 -4.44962 
1577 1 0.933333 0 0.117681 -4.44924 
1578 1 0.966667 0 0.0589445 -4.40668 
1579 1 0.983333 0.05 0.117771 -4.45087 
1605 1 0.933333 0.2 0.117656 -4.4345 
1606 1 0.966667 0.2 0.059214 -4.40633 
1607 1 0.983333 0.15 0.117764 -4.4366 
1609 1 0.966667 0.1 0.0589358 -4.4065 
6 1 0 0.3 0.000829473 -3.90436 
7 1 0.0166667 0.25 0.0594274 -4.39675 
8 1 0.0166667 0.35 0.0602018 -4.38927 
11 1 0.05 0.25 0.000261297 -3.90306 
15 1 0 0.4 0.000829466 -3.90435 
16 1 0.05 0.35 0.000597603 -3.90489 
53 1 0.0333333 0.4 0.118656 -4.3299 
56 1 0.0333333 0.3 0.118656 -4.32992 
57 1 0.0666667 0.3 0.0592434 -4.40686 
58 1 0.0833333 0.25 0.117722 -4.43515 
59 1 0.0833333 0.35 0.117641 -4.41908 
78 1 0.0666667 0.4 0.0592434 -4.40687 
63 1 0.116667 0.25 0.0589628 -4.40717 
79 1 0.1 0.4 6.43298e-05 -3.90339 
80 1 0.116667 0.35 0.0589419 -4.40588 
82 1 0.1 0.3 6.42991e-05 -3.90339 
83 1 0.15 0.25 -1.7829e-05 -3.90367 
84 1 0.15 0.35 -3.3655e-05 -3.90345 
174 1 0.133333 0.3 0.117648 -4.44956 
180 1 0.183333 0.25 0.117703 -4.44928 
205 1 0.133333 0.4 0.117648 -4.44956 
206 1 0.166667 0.4 0.0589549 -4.40768 
207 1 0.183333 0.35 0.117703 -4.44926 
209 1 0.166667 0.3 0.0589549 -4.40768 
210 1 0.2 0.3 -8.81417e-06 -3.90384 
211 1 0.216667 0.25 0.0589642 -4.40771 
212 1 0.216667 0.35 0.0589641 -4.40773 
215 1 0.25 0.25 -9.41887e-06 -3.90384 
237 1 0.2 0.4 -8.81474e-06 -3.90384 
238 1 0.25 0.35 -9.46781e-06 -3.90385 
367 1 0.233333 0.4 0.117702 -4.44927 
370 1 0.233333 0.3 0.117702 -4.44927 
371 1 0.266667 0.3 0.0589642 -4.40768 
372 1 0.283333 0.25 0.117702 -4.44925 
373 1 0.283333 0.35 0.117702 -4.44925 
402 1 0.266667 0.4 0.0589642 -4.40768 
377 1 0.316667 0.25 0.0589642 -4.40768 
403 1 0.3 0.4 -9.38789e-06 -3.90384 
404 1 0.316667 0.35 0.0589642 -4.40768 
406 1 0.3 0.3 -9.38789e-06 -3.90384 
407 1 0.35 0.25 -9.38934e-06 -3.90384 
408 1 0.35 0.35 -9.38936e-06 -3.90384 
531 1 0.333333 0.3 0.117702 -4.44925 
537 1 0.383333 0.25 0.117702 -4.44925 
565 1 0.333333 0.4 0.117702 -4.44925 
566 1 0.366667 0.4 0.0589642 -4.40768 
567 1 0.383333 0.35 0.117702 -4.44925 
569 1 0.366667 0.3 0.0589642 -4.40768 
570 1 0.4 0.3 -9.38952e-06 -3.90384 
571 1 0.416667 0.25 0.0589642 -4.40768 
572 1 0.416667 0.35 0.0589642 -4.40768 
575 1 0.45 0.25 -9.38681e-06 -3.90384 
597 1 0.4 0.4 -9.38952e-06 -3.90384 
598 1 0.45 0.35 -9.38682e-06 -3.90384 
727 1 0.433333 0.4 0.117702 -4.44925 
730 1 0.433333 0.3 0.117702 -4.44925 
731 1 0.466667 0.3 0.0589642 -4.40768 
732 1 0.483333 0.25 0.117702 -4.44924 
733 1 0.483333 0.35 0.117702 -4.44924 
762 1 0.466667 0.4 0.0589642 -4.40768 
737 1 0.516667 0.25 0.0589642 -4.40767 
763 1 0.5 0.4 -9.45786e-06 -3.90385 
764 1 0.516667 0.35 0.0589642 -4.40767 
766 1 0.5 0.3 -9.45781e-06 -3.90385 
767 1 0.55 0.25 -1.0119e-05 -3.90376 
768 1 0.55 0.35 -1.01201e-05 -3.90376 
891 1 0.533333 0.3 0.117702 -4.4493 
897 1 0.583333 0.25 0.117698 -4.44954 
925 1 0.533333 0.4 0.117702 -4.4493 
926 1 0.566667 0.4 0.0589579 -4.40796 
927 1 0.583333 0.35 0.117698 -4.44954 
929 1 0.566667 0.3 0.0589578 -4.40796 
930 1 0.6 0.3 -2.12203e-05 -3.90332 
931 1 0.616667 0.25 0.0589976 -4.40839 
932 1 0.616667 0.35 0.0589976 -4.40838 
935 1 0.65 0.25 0.000252123 -3.88988 
957 1 0.6 0.4 -2.11349e-05 -3.90331 
958 1 0.65 0.35 0.000252169 -3.88987 
1087 1 0.633333 0.4 0.117736 -4.44896 
1090 1 0.633333 0.3 0.117736 -4.44897 
1091 1 0.666667 0.3 0.0592513 -4.37594 
1092 1 0.683333 0.25 0.117804 -4.44781 
1093 1 0.683333 0.35 0.117804 -4.44781 
1120 1 0.666667 0.4 0.0592514 -4.37594 
1097 1 0.716667 0.25 0.0590455 -4.2533 
1121 1 0.7 0.4 0.00111779 -3.55076 
1122 1 0.716667 0.35 0.0590455 -4.2533 
1124 1 0.7 0.3 0.00111775 -3.55074 
1242 1 0.733333 0.3 0.117468 -4.42365 
1248 1 0.783333 0.25 0.117045 -4.43832 
1276 1 0.733333 0.4 0.117468 -4.42368 
1277 1 0.766667 0.4 0.0575476 -4.17616 
1278 1 0.783333 0.35 0.117045 -4.43834 
1280 1 0.766667 0.3 0.0575477 -4.17612 
1281 1 0.8 0.3 0.00102988 -3.54759 
1282 1 0.816667 0.25 0.0595421 -4.34868 
1283 1 0.816667 0.35 0.059542 -4.34866 
1286 1 0.85 0.25 0.000193413 -3.8909 
1308 1 0.8 0.4 0.00102999 -3.54765 
1309 1 0.85 0.35 0.000199695 -3.89093 
1438 1 0.833333 0.4 0.118061 -4.44537 
1441 1 0.833333 0.3 0.118061 -4.44543 
1442 1 0.866667 0.3 0.0589809 -4.41023 
1443 1 0.883333 0.25 0.117641 -4.45126 
1444 1 0.883333 0.35 0.117682 -4.45218 
1473 1 0.866667 0.4 0.0589807 -4.41023 
1448 1 0.916667 0.25 0.0589247 -4.40535 
1474 1 0.9 0.4 -0.000107102 -3.90122 
1475 1 0.916667 0.35 0.0589425 -4.40634 
1477 1 0.9 0.3 -0.000107088 -3.90122 
1478 1 0.95 0.25 0.000401795 -3.90432 
1479 1 0.95 0.35 0.000611947 -3.90363 
1602 1 0.933333 0.3 0.117879 -4.40946 
1608 1 0.983333 0.25 0.118604 -4.34291 
1631 1 0.933333 0.4 0.117879 -4.40947 
1632 1 0.966667 0.4 0.0599841 -4.40041 
1633 1 0.983333 0.35 0.120791 -4.26622 
1635 1 0.966667 0.3 0.0599841 -4.40042 
12 1 0 0.5 0.00025115 -3.90309 
13 1 0.0166667 0.45 0.0594278 -4.3967 
14 1 0.0166667 0.55 0.0589783 -4.40753 
17 1 0.05 0.45 0.000261171 -3.90303 
21 1 0 0.6 -6.69264e-05 -3.90231 
22 1 0.05 0.55 -1.19015e-05 -3.90285 
71 1 0.0333333 0.6 0.11785 -4.4516 
74 1 0.0333333 0.5 0.117927 -4.42579 
75 1 0.0666667 0.5 0.0589977 -4.40779 
76 1 0.0833333 0.45 0.117723 -4.43515 
77 1 0.0833333 0.55 0.117773 -4.44998 
95 1 0.0666667 0.6 0.0590095 -4.40854 
81 1 0.116667 0.45 0.0589629 -4.40718 
96 1 0.1 0.6 9.55324e-06 -3.90381 
97 1 0.116667 0.55 0.0589746 -4.40787 
99 1 0.1 0.5 -2.70819e-05 -3.90328 
100 1 0.15 0.45 -1.77988e-05 -3.90367 
101 1 0.15 0.55 -5.7031e-06 -3.90381 
202 1 0.133333 0.5 0.117697 -4.44909 
208 1 0.183333 0.45 0.117703 -4.44928 
229 1 0.133333 0.6 0.117716 -4.44919 
230 1 0.166667 0.6 0.0589651 -4.40759 
231 1 0.183333 0.55 0.117701 -4.44918 
233 1 0.166667 0.5 0.0589638 -4.40769 
234 1 0.2 0.5 -9.34099e-06 -3.90384 
235 1 0.216667 0.45 0.0589642 -4.40771 
236 1 0.216667 0.55 0.0589642 -4.40767 
239 1 0.25 0.45 -9.41895e-06 -3.90384 
253 1 0.2 0.6 -9.40795e-06 -3.90383 
254 1 0.25 0.55 -9.37233e-06 -3.90384 
395 1 0.233333 0.6 0.117702 -4.44926 
398 1 0.233333 0.5 0.117702 -4.44926 
399 1 0.266667 0.5 0.0589642 -4.40768 
400 1 0.283333 0.45 0.117702 -4.44925 
401 1 0.283333 0.55 0.117702 -4.44925 
422 1 0.266667 0.6 0.0589642 -4.40768 
405 1 0.316667 0.45 0.0589642 -4.40768 
423 1 0.3 0.6 -9.38928e-06 -3.90384 
424 1 0.316667 0.55 0.0589642 -4.40768 
426 1 0.3 0.5 -9.38928e-06 -3.90384 
427 1 0.35 0.45 -9.38934e-06 -3.90384 
428 1 0.35 0.55 -9.38934e-06 -3.90384 
562 1 0.333333 0.5 0.117702 -4.44925 
568 1 0.383333 0.45 0.117702 -4.44925 
589 1 0.333333 0.6 0.117702 -4.44925 
590 1 0.366667 0.6 0.0589642 -4.40768 
591 1 0.383333 0.55 0.117702 -4.44925 
593 1 0.366667 0.5 0.0589642 -4.40768 
594 1 0.4 0.5 -9.38952e-06 -3.90384 
595 1 0.416667 0.45 0.0589642 -4.40768 
596 1 0.416667 0.55 0.0589642 -4.40768 
599 1 0.45 0.45 -9.38679e-06 -3.90384 
613 1 0.4 0.6 -9.3895e-06 -3.90384 
614 1 0.45 0.55 -9.38674e-06 -3.90384 
755 1 0.433333 0.6 0.117702 -4.44925 
758 1 0.433333 0.5 0.117702 -4.44925 
759 1 0.466667 0.5 0.0589642 -4.40768 
760 1 0.483333 0.45 0.117702 -4.44924 
761 1 0.483333 0.55 0.117702 -4.44924 
782 1 0.466667 0.6 0.0589642 -4.40768 
765 1 0.516667 0.45 0.0589642 -4.40767 
783 1 0.5 0.6 -9.44882e-06 -3.90385 
784 1 0.516667 0.55 0.0589643 -4.40767 
786 1 0.5 0.5 -9.45775e-06 -3.90385 
787 1 0.55 0.45 -1.00987e-05 -3.90375 
788 1 0.55 0.55 -9.95409e-06 -3.90376 
922 1 0.533333 0.5 0.117702 -4.44931 
928 1 0.583333 0.45 0.117699 -4.44954 
949 1 0.533333 0.6 0.117702 -4.44931 
950 1 0.566667 0.6 0.0589583 -4.40796 
951 1 0.583333 0.55 0.1177 -4.44954 
953 1 0.566667 0.5 0.0589579 -4.40797 
954 1 0.6 0.5 -2.05362e-05 -3.90335 
955 1 0.616667 0.45 0.0589975 -4.40837 
956 1 0.616667 0.55 0.0590062 -4.40839 
959 1 0.65 0.45 0.000253124 -3.88994 
973 1 0.6 0.6 -1.98589e-05 -3.90349 
974 1 0.65 0.55 0.000270916 -3.89025 
1113 1 0.633333 0.6 0.117749 -4.4486 
1116 1 0.633333 0.5 0.117738 -4.44898 
1117 1 0.666667 0.5 0.059262 -4.3761 
1118 1 0.683333 0.45 0.117805 -4.44785 
1119 1 0.683333 0.55 0.117821 -4.44727 
1138 1 0.666667 0.6 0.0592279 -4.37599 
1123 1 0.716667 0.45 0.0590471 -4.25334 
1139 1 0.7 0.6 0.000952568 -3.56459 
1140 1 0.716667 0.55 0.0590053 -4.25254 
1142 1 0.7 0.5 0.00111974 -3.55107 
1273 1 0.733333 0.5 0.11747 -4.42334 
1279 1 0.783333 0.45 0.117045 -4.4381 
1300 1 0.733333 0.6 0.117295 -4.42472 
1301 1 0.766667 0.6 0.0573302 -4.19257 
1302 1 0.783333 0.55 0.116985 -4.43936 
1304 1 0.766667 0.5 0.0575432 -4.17571 
1305 1 0.8 0.5 0.00102739 -3.548 
1306 1 0.816667 0.45 0.0595444 -4.34853 
1307 1 0.816667 0.55 0.0594588 -4.3492 
1310 1 0.85 0.45 0.000192986 -3.89098 
1324 1 0.8 0.6 0.000716246 -3.55933 
1325 1 0.85 0.55 0.000178585 -3.89099 
1466 1 0.833333 0.6 0.117989 -4.44685 
1469 1 0.833333 0.5 0.118049 -4.44544 
1470 1 0.866667 0.5 0.0589561 -4.40951 
1471 1 0.883333 0.45 0.117641 -4.45123 
1472 1 0.883333 0.55 0.117611 -4.45047 
1493 1 0.866667 0.6 0.0589332 -4.40928 
1476 1 0.916667 0.45 0.0589246 -4.40537 
1494 1 0.9 0.6 -9.14175e-05 -3.90266 
1495 1 0.916667 0.55 0.0588981 -4.40633 
1497 1 0.9 0.5 -0.000105626 -3.90207 
1498 1 0.95 0.45 0.000401833 -3.90432 
1499 1 0.95 0.55 5.40671e-05 -3.90321 
1628 1 0.933333 0.5 0.117655 -4.43446 
1634 1 0.983333 0.45 0.118605 -4.34292 
1649 1 0.933333 0.6 0.117649 -4.44955 
1650 1 0.966667 0.6 0.0589246 -4.40557 
1651 1 0.983333 0.55 0.117756 -4.43648 
1653 1 0.966667 0.5 0.0592132 -4.40639 
18 1 0 0.7 0.000290627 -3.90381 
19 1 0.0166667 0.65 0.0589687 -4.407 
20 1 0.0166667 0.75 0.059465 -4.39749 
23 1 0.05 0.65 -2.14131e-05 -3.90267 
27 1 0 0.8 0.00052351 -3.9044 
28 1 0.05 0.75 0.000288902 -3.90395 
88 1 0.0333333 0.8 0.118674 -4.35742 
91 1 0.0333333 0.7 0.117947 -4.42512 
92 1 0.0666667 0.7 0.0589731 -4.40707 
93 1 0.0833333 0.65 0.117769 -4.44961 
94 1 0.0833333 0.75 0.117718 -4.43483 
107 1 0.0666667 0.8 0.0592532 -4.40793 
98 1 0.116667 0.65 0.0589757 -4.40793 
108 1 0.1 0.8 9.09522e-05 -3.90397 
109 1 0.116667 0.75 0.058953 -4.40676 
111 1 0.1 0.7 -3.73122e-05 -3.90317 
112 1 0.15 0.65 -5.4632e-06 -3.90384 
113 1 0.15 0.75 -2.22322e-05 -3.90363 
226 1 0.133333 0.7 0.117691 -4.44889 
232 1 0.183333 0.65 0.117702 -4.44921 
245 1 0.133333 0.8 0.117659 -4.44916 
246 1 0.166667 0.8 0.0589558 -4.40759 
247 1 0.183333 0.75 0.117702 -4.44924 
249 1 0.166667 0.7 0.0589635 -4.40772 
250 1 0.2 0.7 -9.316e-06 -3.90384 
251 1 0.216667 0.65 0.0589642 -4.40767 
252 1 0.216667 0.75 0.0589642 -4.40771 
255 1 0.25 0.65 -9.37337e-06 -3.90384 
261 1 0.2 0.8 -8.91801e-06 -3.90384 
262 1 0.25 0.75 -9.42594e-06 -3.90384 
415 1 0.233333 0.8 0.117702 -4.44928 
418 1 0.233333 0.7 0.117702 -4.44926 
419 1 0.266667 0.7 0.0589642 -4.40768 
420 1 0.283333 0.65 0.117702 -4.44925 
421 1 0.283333 0.75 0.117702 -4.44925 
434 1 0.266667 0.8 0.0589642 -4.40768 
425 1 0.316667 0.65 0.0589642 -4.40768 
435 1 0.3 0.8 -9.38767e-06 -3.90384 
436 1 0.316667 0.75 0.0589642 -4.40768 
438 1 0.3 0.7 -9.38904e-06 -3.90384 
439 1 0.35 0.65 -9.38934e-06 -3.90384 
440 1 0.35 0.75 -9.38935e-06 -3.90384 
586 1 0.333333 0.7 0.117702 -4.44925 
592 1 0.383333 0.65 0.117702 -4.44925 
605 1 0.333333 0.8 0.117702 -4.44925 
606 1 0.366667 0.8 0.0589642 -4.40768 
607 1 0.383333 0.75 0.117702 -4.44925 
609 1 0.366667 0.7 0.0589642 -4.40768 
610 1 0.4 0.7 -9.38944e-06 -3.90384 
611 1 0.416667 0.65 0.0589642 -4.40768 
612 1 0.416667 0.75 0.0589642 -4.40768 
615 1 0.45 0.65 -9.38748e-06 -3.90384 
621 1 0.4 0.8 -9.38944e-06 -3.90384 
622 1 0.45 0.75 -9.38826e-06 -3.90384 
775 1 0.433333 0.8 0.117702 -4.44925 
778 1 0.433333 0.7 0.117702 -4.44925 
779 1 0.466667 0.7 0.0589642 -4.40768 
780 1 0.483333 0.65 0.117702 -4.44925 
781 1 0.483333 0.75 0.117702 -4.44925 
794 1 0.466667 0.8 0.0589642 -4.40768 
785 1 0.516667 0.65 0.0589642 -4.40768 
795 1 0.5 0.8 -9.43348e-06 -3.90385 
796 1 0.516667 0.75 0.0589641 -4.40768 
798 1 0.5 0.7 -9.43348e-06 -3.90385 
799 1 0.55 0.65 -9.9597e-06 -3.90379 
800 1 0.55 0.75 -1.01298e-05 -3.9038 
946 1 0.533333 0.7 0.117702 -4.44927 
952 1 0.583333 0.65 0.1177 -4.4494 
965 1 0.533333 0.8 0.117702 -4.44927 
966 1 0.566667 0.8 0.0589603 -4.40781 
967 1 0.583333 0.75 0.117696 -4.44942 
969 1 0.566667 0.7 0.0589603 -4.40781 
970 1 0.6 0.7 -1.88502e-05 -3.90354 
971 1 0.616667 0.65 0.058991 -4.40809 
972 1 0.616667 0.75 0.0589526 -4.40811 
975 1 0.65 0.65 0.000181182 -3.88967 
981 1 0.6 0.8 -1.88502e-05 -3.90354 
982 1 0.65 0.75 3.5004e-05 -3.90373 
1131 1 0.633333 0.8 0.117689 -4.44945 
1134 1 0.633333 0.7 0.117689 -4.44945 
1135 1 0.666667 0.7 0.0590464 -4.39241 
1136 1 0.683333 0.65 0.117652 -4.44919 
1137 1 0.683333 0.75 0.117828 -4.44946 
1148 1 0.666667 0.8 0.0590464 -4.39241 
1141 1 0.716667 0.65 0.0587505 -4.28219 
1149 1 0.7 0.8 0.000534396 -3.72363 
1150 1 0.716667 0.75 0.0592611 -4.35352 
1152 1 0.7 0.7 0.000534396 -3.72363 
1153 1 0.75 0.75 0.0009512 -3.57952 
1297 1 0.733333 0.7 0.117766 -4.43593 
1303 1 0.783333 0.65 0.117325 -4.43688 
1316 1 0.733333 0.8 0.117766 -4.43593 
1317 1 0.766667 0.8 0.0588887 -4.27856 
1318 1 0.783333 0.75 0.117605 -4.4473 
1320 1 0.766667 0.7 0.0588887 -4.27855 
1321 1 0.8 0.7 0.000857526 -3.72636 
1322 1 0.816667 0.65 0.0593456 -4.36492 
1323 1 0.816667 0.75 0.0593438 -4.3759 
1326 1 0.85 0.65 9.98462e-05 -3.88996 
1332 1 0.8 0.8 0.0008575 -3.72635 
1333 1 0.85 0.75 9.36166e-05 -3.9041 
1486 1 0.833333 0.8 0.117889 -4.4473 
1489 1 0.833333 0.7 0.117889 -4.44731 
1490 1 0.866667 0.7 0.0589608 -4.40907 
1491 1 0.883333 0.65 0.117627 -4.44999 
1492 1 0.883333 0.75 0.117686 -4.45022 
1505 1 0.866667 0.8 0.0589757 -4.40931 
1496 1 0.916667 0.65 0.0589159 -4.40656 
1506 1 0.9 0.8 -5.97575e-05 -3.90238 
1507 1 0.916667 0.75 0.0589518 -4.40708 
1509 1 0.9 0.7 -6.7835e-05 -3.90267 
1510 1 0.95 0.65 7.18892e-05 -3.90353 
1511 1 0.95 0.75 0.000286467 -3.90394 
1646 1 0.933333 0.7 0.117744 -4.43536 
1652 1 0.983333 0.65 0.117798 -4.43696 
1659 1 0.933333 0.8 0.117892 -4.42437 
1660 1 0.966667 0.8 0.0594636 -4.39751 
1661 1 0.983333 0.75 0.118708 -4.35822 
1663 1 0.966667 0.7 0.0592441 -4.40785 
24 1 0 0.9 0.000288882 -3.90404 
25 1 0.0166667 0.85 0.0594658 -4.39748 
26 1 0.0166667 0.95 0.0589726 -4.40711 
29 1 0.05 0.85 0.000289657 -3.90404 
30 1 0.05 0.95 -2.89211e-05 -3.90284 
103 1 0.0333333 0.9 0.117892 -4.42421 
104 1 0.0666667 0.9 0.058974 -4.40716 
105 1 0.0833333 0.85 0.117721 -4.43532 
106 1 0.0833333 0.95 0.117732 -4.449 
110 1 0.116667 0.85 0.0589516 -4.40679 
114 1 0.116667 0.95 0.0589762 -4.40797 
115 1 0.1 0.9 -3.68153e-05 -3.90322 
116 1 0.15 0.85 -2.23287e-05 -3.90362 
117 1 0.15 0.95 -5.22027e-06 -3.90387 
242 1 0.133333 0.9 0.117695 -4.44915 
248 1 0.183333 0.85 0.117702 -4.44921 
256 1 0.183333 0.95 0.117703 -4.44928 
257 1 0.166667 0.9 0.0589633 -4.40774 
258 1 0.2 0.9 -9.34603e-06 -3.90384 
259 1 0.216667 0.85 0.0589642 -4.4077 
260 1 0.216667 0.95 0.0589642 -4.40768 
263 1 0.25 0.85 -9.42493e-06 -3.90384 
264 1 0.25 0.95 -9.3793e-06 -3.90384 
430 1 0.233333 0.9 0.117702 -4.44926 
431 1 0.266667 0.9 0.0589642 -4.40768 
432 1 0.283333 0.85 0.117702 -4.44925 
433 1 0.283333 0.95 0.117702 -4.44925 
437 1 0.316667 0.85 0.0589642 -4.40768 
441 1 0.316667 0.95 0.0589642 -4.40768 
442 1 0.3 0.9 -9.38918e-06 -3.90384 
443 1 0.35 0.85 -9.38935e-06 -3.90384 
444 1 0.35 0.95 -9.38933e-06 -3.90384 
602 1 0.333333 0.9 0.117702 -4.44925 
608 1 0.383333 0.85 0.117702 -4.44925 
616 1 0.383333 0.95 0.117702 -4.44925 
617 1 0.366667 0.9 0.0589642 -4.40768 
618 1 0.4 0.9 -9.3895e-06 -3.90384 
619 1 0.416667 0.85 0.0589642 -4.40768 
620 1 0.416667 0.95 0.0589642 -4.40768 
623 1 0.45 0.85 -9.38748e-06 -3.90384 
624 1 0.45 0.95 -9.38674e-06 -3.90384 
790 1 0.433333 0.9 0.117702 -4.44925 
791 1 0.466667 0.9 0.0589642 -4.40768 
792 1 0.483333 0.85 0.117702 -4.44925 
793 1 0.483333 0.95 0.117702 -4.44924 
797 1 0.516667 0.85 0.0589642 -4.40768 
801 1 0.516667 0.95 0.0589643 -4.40767 
802 1 0.5 0.9 -9.44882e-06 -3.90385 
803 1 0.55 0.85 -9.9597e-06 -3.90379 
804 1 0.55 0.95 -9.95409e-06 -3.90376 
962 1 0.533333 0.9 0.117702 -4.44931 
968 1 0.583333 0.85 0.1177 -4.4494 
976 1 0.583333 0.95 0.1177 -4.44954 
977 1 0.566667 0.9 0.0589583 -4.40796 
978 1 0.6 0.9 -1.98589e-05 -3.90349 
979 1 0.616667 0.85 0.058991 -4.40809 
980 1 0.616667 0.95 0.0590062 -4.40839 
983 1 0.65 0.85 0.000181182 -3.88967 
984 1 0.65 0.95 0.000270916 -3.89025 
1144 1 0.633333 0.9 0.117749 -4.4486 
1145 1 0.666667 0.9 0.0592279 -4.37599 
1146 1 0.683333 0.85 0.117652 -4.44919 
1147 1 0.683333 0.95 0.117821 -4.44727 
1151 1 0.716667 0.85 0.0587505 -4.28219 
1154 1 0.716667 0.95 0.0590053 -4.25254 
1155 1 0.7 0.9 0.000952567 -3.56459 
1313 1 0.733333 0.9 0.117295 -4.42472 
1319 1 0.783333 0.85 0.117326 -4.4369 
1327 1 0.783333 0.95 0.116985 -4.43936 
1328 1 0.766667 0.9 0.0573302 -4.19258 
1329 1 0.8 0.9 0.000716118 -3.55932 
1330 1 0.816667 0.85 0.0593455 -4.3649 
1331 1 0.816667 0.95 0.0594588 -4.34922 
1334 1 0.85 0.85 0.0001056 -3.88997 
1335 1 0.85 0.95 0.000178324 -3.89099 
1501 1 0.833333 0.9 0.117991 -4.44685 
1502 1 0.866667 0.9 0.0589437 -4.40944 
1503 1 0.883333 0.85 0.117666 -4.45057 
1504 1 0.883333 0.95 0.117606 -4.45045 
1508 1 0.916667 0.85 0.058944 -4.40703 
1512 1 0.916667 0.95 0.0589147 -4.4066 
1513 1 0.9 0.9 -9.34813e-05 -3.9025 
1514 1 0.95 0.85 0.000285886 -3.90403 
1515 1 0.95 0.95 8.61755e-05 -3.90388 
1656 1 0.933333 0.9 0.117716 -4.435 
1662 1 0.983333 0.85 0.118665 -4.3573 
1664 1 0.983333 0.95 0.11775 -4.43547 
1665 1 0.966667 0.9 0.0592507 -4.40795 
31 1 0 0.1 0.177011 -4.45296 
32 1 0.0166667 0.05 0.235861 -4.43896 
33 1 0.0166667 0.15 0.235864 -4.42443 
34 1 0 0 0.176733 -4.45169 
36 1 0.05 0.05 0.176793 -4.45164 
39 1 0 0.2 0.176753 -4.35522 
41 1 0.05 0.15 0.176837 -4.43829 
131 1 0.0666667 0.1 0.235649 -4.44962 
134 1 0.0666667 0 0.235393 -4.44967 
148 1 0.0666667 0.2 0.235388 -4.43433 
135 1 0.1 0 0.176525 -4.45057 
136 1 0.116667 0.05 0.235291 -4.44856 
149 1 0.1 0.2 0.176516 -4.45134 
150 1 0.116667 0.15 0.235297 -4.44874 
152 1 0.1 0.1 0.176605 -4.45089 
154 1 0.15 0.05 0.176516 -4.45037 
155 1 0.15 0.15 0.176516 -4.45039 
288 1 0.166667 0 0.235303 -4.44934 
304 1 0.166667 0.2 0.235301 -4.44935 
307 1 0.166667 0.1 0.235296 -4.44923 
308 1 0.2 0.1 0.176524 -4.45063 
309 1 0.216667 0.05 0.235304 -4.44938 
310 1 0.216667 0.15 0.235304 -4.44938 
311 1 0.2 0 0.176524 -4.45063 
313 1 0.25 0.05 0.176524 -4.45064 
335 1 0.2 0.2 0.176524 -4.45061 
337 1 0.25 0.15 0.176524 -4.45064 
475 1 0.266667 0.1 0.235304 -4.44935 
478 1 0.266667 0 0.235304 -4.44935 
498 1 0.266667 0.2 0.235304 -4.44935 
479 1 0.3 0 0.176524 -4.45063 
480 1 0.316667 0.05 0.235304 -4.44935 
499 1 0.3 0.2 0.176524 -4.45063 
500 1 0.316667 0.15 0.235304 -4.44935 
502 1 0.3 0.1 0.176524 -4.45063 
504 1 0.35 0.05 0.176524 -4.45063 
505 1 0.35 0.15 0.176524 -4.45063 
648 1 0.366667 0 0.235304 -4.44935 
664 1 0.366667 0.2 0.235304 -4.44935 
667 1 0.366667 0.1 0.235304 -4.44935 
668 1 0.4 0.1 0.176524 -4.45063 
669 1 0.416667 0.05 0.235304 -4.44935 
670 1 0.416667 0.15 0.235304 -4.44935 
671 1 0.4 0 0.176524 -4.45063 
673 1 0.45 0.05 0.176524 -4.45063 
695 1 0.4 0.2 0.176524 -4.45063 
697 1 0.45 0.15 0.176524 -4.45063 
835 1 0.466667 0.1 0.235304 -4.44935 
838 1 0.466667 0 0.235304 -4.44935 
858 1 0.466667 0.2 0.235304 -4.44935 
839 1 0.5 0 0.176524 -4.45063 
840 1 0.516667 0.05 0.235303 -4.44936 
859 1 0.5 0.2 0.176524 -4.45063 
860 1 0.516667 0.15 0.235303 -4.44936 
862 1 0.5 0.1 0.176524 -4.45063 
864 1 0.55 0.05 0.176522 -4.4507 
865 1 0.55 0.15 0.176522 -4.4507 
1008 1 0.566667 0 0.235302 -4.44934 
1024 1 0.566667 0.2 0.235302 -4.44933 
1027 1 0.566667 0.1 0.235302 -4.44933 
1028 1 0.6 0.1 0.176522 -4.45074 
1029 1 0.616667 0.05 0.235284 -4.44923 
1030 1 0.616667 0.15 0.235284 -4.44921 
1031 1 0.6 0 0.176522 -4.45075 
1033 1 0.65 0.05 0.176499 -4.45012 
1055 1 0.6 0.2 0.176522 -4.45074 
1057 1 0.65 0.15 0.176499 -4.4501 
1186 1 0.666667 0.1 0.235222 -4.44982 
1189 1 0.666667 0 0.235225 -4.44971 
1209 1 0.666667 0.2 0.235222 -4.44981 
1190 1 0.7 0 0.176321 -4.44925 
1191 1 0.716667 0.05 0.235165 -4.45165 
1210 1 0.7 0.2 0.176311 -4.44951 
1211 1 0.716667 0.15 0.235164 -4.45173 
1213 1 0.7 0.1 0.176311 -4.44952 
1215 1 0.75 0.05 0.175995 -4.45009 
1216 1 0.75 0.15 0.175992 -4.45024 
1359 1 0.766667 0 0.235148 -4.45236 
1375 1 0.766667 0.2 0.235153 -4.45219 
1378 1 0.766667 0.1 0.235153 -4.45216 
1379 1 0.8 0.1 0.176142 -4.45099 
1380 1 0.816667 0.05 0.235178 -4.45053 
1381 1 0.816667 0.15 0.235179 -4.45048 
1382 1 0.8 0 0.176128 -4.45119 
1384 1 0.85 0.05 0.176628 -4.44809 
1406 1 0.8 0.2 0.176142 -4.451 
1408 1 0.85 0.15 0.176627 -4.44812 
1546 1 0.866667 0.1 0.2353 -4.44894 
1549 1 0.866667 0 0.235287 -4.44876 
1569 1 0.866667 0.2 0.235293 -4.44878 
1550 1 0.9 0 0.176431 -4.45118 
1551 1 0.916667 0.05 0.235296 -4.44936 
1570 1 0.9 0.2 0.176439 -4.4523 
1571 1 0.916667 0.15 0.235276 -4.45009 
1573 1 0.9 0.1 0.176437 -4.45123 
1575 1 0.95 0.05 0.176719 -4.45122 
1576 1 0.95 0.15 0.176675 -4.43816 
1689 1 0.966667 0 0.235551 -4.44948 
1705 1 0.966667 0.2 0.235415 -4.42527 
1708 1 0.966667 0.1 0.235803 -4.43904 
37 1 0.0166667 0.25 0.23444 -4.34158 
38 1 0.0166667 0.35 0.23225 -4.26667 
42 1 0.05 0.25 0.176584 -4.34001 
54 1 0.05 0.35 0.176159 -4.24014 
145 1 0.0666667 0.3 0.235139 -4.4097 
169 1 0.0666667 0.4 0.235139 -4.40971 
151 1 0.116667 0.25 0.235286 -4.45014 
170 1 0.1 0.4 0.176466 -4.43927 
171 1 0.116667 0.35 0.235238 -4.45057 
173 1 0.1 0.3 0.176465 -4.43927 
175 1 0.15 0.25 0.176513 -4.45084 
176 1 0.15 0.35 0.176493 -4.451 
328 1 0.166667 0.4 0.235298 -4.44929 
331 1 0.166667 0.3 0.235298 -4.44929 
332 1 0.2 0.3 0.176524 -4.45061 
333 1 0.216667 0.25 0.235303 -4.44935 
334 1 0.216667 0.35 0.235303 -4.44937 
338 1 0.25 0.25 0.176524 -4.45064 
366 1 0.2 0.4 0.176524 -4.45061 
368 1 0.25 0.35 0.176524 -4.45064 
495 1 0.266667 0.3 0.235304 -4.44935 
526 1 0.266667 0.4 0.235304 -4.44935 
501 1 0.316667 0.25 0.235304 -4.44935 
527 1 0.3 0.4 0.176524 -4.45063 
528 1 0.316667 0.35 0.235304 -4.44935 
530 1 0.3 0.3 0.176524 -4.45063 
532 1 0.35 0.25 0.176524 -4.45063 
533 1 0.35 0.35 0.176524 -4.45063 
688 1 0.366667 0.4 0.235304 -4.44935 
691 1 0.366667 0.3 0.235304 -4.44935 
692 1 0.4 0.3 0.176524 -4.45063 
693 1 0.416667 0.25 0.235304 -4.44935 
694 1 0.416667 0.35 0.235304 -4.44935 
698 1 0.45 0.25 0.176524 -4.45063 
726 1 0.4 0.4 0.176524 -4.45063 
728 1 0.45 0.35 0.176524 -4.45063 
855 1 0.466667 0.3 0.235304 -4.44935 
886 1 0.466667 0.4 0.235304 -4.44935 
861 1 0.516667 0.25 0.235303 -4.44936 
887 1 0.5 0.4 0.176524 -4.45063 
888 1 0.516667 0.35 0.235303 -4.44936 
890 1 0.5 0.3 0.176524 -4.45063 
892 1 0.55 0.25 0.176522 -4.4507 
893 1 0.55 0.35 0.176522 -4.4507 
1048 1 0.566667 0.4 0.235302 -4.44933 
1051 1 0.566667 0.3 0.235302 -4.44933 
1052 1 0.6 0.3 0.176522 -4.45074 
1053 1 0.616667 0.25 0.235284 -4.44921 
1054 1 0.616667 0.35 0.235284 -4.44921 
1058 1 0.65 0.25 0.176499 -4.45011 
1086 1 0.6 0.4 0.176522 -4.45074 
1088 1 0.65 0.35 0.176499 -4.4501 
1206 1 0.666667 0.3 0.235222 -4.44981 
1237 1 0.666667 0.4 0.235222 -4.44982 
1212 1 0.716667 0.25 0.235164 -4.45173 
1238 1 0.7 0.4 0.176311 -4.44952 
1239 1 0.716667 0.35 0.235164 -4.45173 
1241 1 0.7 0.3 0.176311 -4.44951 
1243 1 0.75 0.25 0.175992 -4.45023 
1244 1 0.75 0.35 0.175992 -4.45024 
1399 1 0.766667 0.4 0.235153 -4.45218 
1402 1 0.766667 0.3 0.235153 -4.45221 
1403 1 0.8 0.3 0.176142 -4.45102 
1404 1 0.816667 0.25 0.235179 -4.45054 
1405 1 0.816667 0.35 0.235179 -4.45059 
1409 1 0.85 0.25 0.176636 -4.44827 
1437 1 0.8 0.4 0.176142 -4.45098 
1439 1 0.85 0.35 0.176649 -4.44849 
1566 1 0.866667 0.3 0.235337 -4.44886 
1597 1 0.866667 0.4 0.235337 -4.44885 
1572 1 0.916667 0.25 0.235256 -4.43506 