ITEM: TIMESTEP
2
ITEM: NUMBER OF ATOMS
3584
ITEM: BOX BOUNDS pp pp ss
0.0000000000000000e+00 4.3111019472983898e+01
0.0000000000000000e+00 2.4890158697766498e+01
-3.6580800000000006e-03 3.4552298188307212e+01
ITEM: ATOMS id type xs ys zs c_peratom 
1 1 0 0.1 5.24747e-06 -3.90391 
2 1 0.0166667 0.05 0.0590254 -4.4081 
3 1 0.0166667 0.15 0.0590297 -4.40737 
4 1 0 0 5.23056e-06 -3.90391 
5 1 0.05 0.05 4.38356e-06 -3.90379 
9 1 0 0.2 -5.01124e-06 -3.90307 
10 1 0.05 0.15 7.62094e-06 -3.90377 
35 1 0.0333333 0 0.117741 -4.44868 
40 1 0.0333333 0.2 0.117742 -4.42352 
43 1 0.0333333 0.1 0.117741 -4.44849 
44 1 0.0666667 0.1 0.0590251 -4.40812 
45 1 0.0833333 0.05 0.117733 -4.44864 
46 1 0.0833333 0.15 0.117741 -4.44862 
47 1 0.0666667 0 0.0590251 -4.40809 
60 1 0.0666667 0.2 0.0590309 -4.40741 
48 1 0.1 0 4.28695e-06 -3.9038 
49 1 0.116667 0.05 0.0590233 -4.40797 
61 1 0.1 0.2 5.34513e-06 -3.90391 
62 1 0.116667 0.15 0.0590243 -4.408 
64 1 0.1 0.1 4.2852e-06 -3.9038 
65 1 0.15 0.05 4.18869e-06 -3.90381 
66 1 0.15 0.15 4.19796e-06 -3.90381 
153 1 0.133333 0.1 0.117732 -4.44873 
156 1 0.133333 0 0.117732 -4.44871 
157 1 0.166667 0 0.0590233 -4.40797 
158 1 0.183333 0.05 0.117732 -4.44872 
177 1 0.133333 0.2 0.117734 -4.44877 
178 1 0.166667 0.2 0.0590233 -4.40802 
179 1 0.183333 0.15 0.117732 -4.44872 
181 1 0.166667 0.1 0.0590233 -4.40797 
182 1 0.2 0.1 4.1891e-06 -3.90381 
183 1 0.216667 0.05 0.0590233 -4.40797 
184 1 0.216667 0.15 0.0590233 -4.40797 
185 1 0.2 0 4.18904e-06 -3.90381 
186 1 0.25 0.05 4.18902e-06 -3.90381 
213 1 0.2 0.2 4.18833e-06 -3.90382 
214 1 0.25 0.15 4.18902e-06 -3.90381 
312 1 0.233333 0 0.117732 -4.44872 
336 1 0.233333 0.2 0.117732 -4.44872 
339 1 0.233333 0.1 0.117732 -4.44872 
340 1 0.266667 0.1 0.0590233 -4.40797 
341 1 0.283333 0.05 0.117732 -4.44872 
342 1 0.283333 0.15 0.117732 -4.44872 
343 1 0.266667 0 0.0590233 -4.40797 
374 1 0.266667 0.2 0.0590233 -4.40797 
344 1 0.3 0 4.18901e-06 -3.90381 
345 1 0.316667 0.05 0.0590233 -4.40797 
375 1 0.3 0.2 4.18901e-06 -3.90381 
376 1 0.316667 0.15 0.0590233 -4.40797 
378 1 0.3 0.1 4.18901e-06 -3.90381 
379 1 0.35 0.05 4.189e-06 -3.90381 
380 1 0.35 0.15 4.189e-06 -3.90381 
503 1 0.333333 0.1 0.117732 -4.44872 
506 1 0.333333 0 0.117732 -4.44872 
507 1 0.366667 0 0.0590233 -4.40797 
508 1 0.383333 0.05 0.117732 -4.44872 
534 1 0.333333 0.2 0.117732 -4.44872 
535 1 0.366667 0.2 0.0590233 -4.40797 
536 1 0.383333 0.15 0.117732 -4.44872 
538 1 0.366667 0.1 0.0590233 -4.40797 
539 1 0.4 0.1 4.189e-06 -3.90381 
540 1 0.416667 0.05 0.0590233 -4.40797 
541 1 0.416667 0.15 0.0590233 -4.40797 
542 1 0.4 0 4.189e-06 -3.90381 
543 1 0.45 0.05 4.189e-06 -3.90381 
573 1 0.4 0.2 4.189e-06 -3.90381 
574 1 0.45 0.15 4.189e-06 -3.90381 
672 1 0.433333 0 0.117732 -4.44872 
696 1 0.433333 0.2 0.117732 -4.44872 
699 1 0.433333 0.1 0.117732 -4.44872 
700 1 0.466667 0.1 0.0590233 -4.40797 
701 1 0.483333 0.05 0.117732 -4.44872 
702 1 0.483333 0.15 0.117732 -4.44872 
703 1 0.466667 0 0.0590233 -4.40797 
734 1 0.466667 0.2 0.0590233 -4.40797 
704 1 0.5 0 4.18904e-06 -3.90381 
705 1 0.516667 0.05 0.0590233 -4.40797 
735 1 0.5 0.2 4.18903e-06 -3.90381 
736 1 0.516667 0.15 0.0590233 -4.40797 
738 1 0.5 0.1 4.18903e-06 -3.90381 
739 1 0.55 0.05 4.18858e-06 -3.90384 
740 1 0.55 0.15 4.18853e-06 -3.90384 
863 1 0.533333 0.1 0.117732 -4.4487 
866 1 0.533333 0 0.117732 -4.4487 
867 1 0.566667 0 0.0590234 -4.408 
868 1 0.583333 0.05 0.117731 -4.44883 
894 1 0.533333 0.2 0.117732 -4.4487 
895 1 0.566667 0.2 0.0590234 -4.408 
896 1 0.583333 0.15 0.117731 -4.44883 
898 1 0.566667 0.1 0.0590234 -4.408 
899 1 0.6 0.1 2.5684e-06 -3.90367 
900 1 0.616667 0.05 0.0590122 -4.40885 
901 1 0.616667 0.15 0.0590122 -4.40885 
902 1 0.6 0 2.58771e-06 -3.90366 
903 1 0.65 0.05 2.17855e-05 -3.8899 
933 1 0.6 0.2 2.56822e-06 -3.90367 
934 1 0.65 0.15 2.17494e-05 -3.88992 
1032 1 0.633333 0 0.117726 -4.44795 
1056 1 0.633333 0.2 0.117726 -4.44795 
1059 1 0.633333 0.1 0.117726 -4.44795 
1060 1 0.666667 0.1 0.0590837 -4.37617 
1061 1 0.683333 0.05 0.117614 -4.45046 
1062 1 0.683333 0.15 0.117614 -4.45045 
1063 1 0.666667 0 0.059084 -4.37617 
1094 1 0.666667 0.2 0.0590837 -4.37617 
1064 1 0.7 0 0.000699964 -3.54567 
1065 1 0.716667 0.05 0.0584879 -4.25338 
1095 1 0.7 0.2 0.000699978 -3.54555 
1096 1 0.716667 0.15 0.0584879 -4.25338 
1098 1 0.7 0.1 0.000699985 -3.54555 
1214 1 0.733333 0.1 0.117837 -4.42865 
1217 1 0.733333 0 0.117838 -4.4286 
1218 1 0.766667 0 0.0579639 -4.17956 
1219 1 0.783333 0.05 0.117664 -4.44091 
1245 1 0.733333 0.2 0.117837 -4.42865 
1246 1 0.766667 0.2 0.057963 -4.17963 
1247 1 0.783333 0.15 0.117664 -4.44098 
1249 1 0.766667 0.1 0.057963 -4.17963 
1250 1 0.8 0.1 0.000745845 -3.54549 
1251 1 0.816667 0.05 0.0591571 -4.34855 
1252 1 0.816667 0.15 0.0591572 -4.34857 
1253 1 0.8 0 0.000746287 -3.54568 
1254 1 0.85 0.05 7.48695e-06 -3.89005 
1284 1 0.8 0.2 0.000745837 -3.54549 
1285 1 0.85 0.15 7.50256e-06 -3.89005 
1383 1 0.833333 0 0.117689 -4.44744 
1407 1 0.833333 0.2 0.117689 -4.44756 
1410 1 0.833333 0.1 0.117689 -4.44757 
1411 1 0.866667 0.1 0.058967 -4.40866 
1412 1 0.883333 0.05 0.117722 -4.44925 
1413 1 0.883333 0.15 0.117723 -4.44928 
1414 1 0.866667 0 0.058967 -4.40865 
1445 1 0.866667 0.2 0.0589681 -4.40869 
1415 1 0.9 0 5.54501e-07 -3.90353 
1416 1 0.916667 0.05 0.0590236 -4.40825 
1446 1 0.9 0.2 1.62033e-06 -3.90363 
1447 1 0.916667 0.15 0.0590182 -4.40739 
1449 1 0.9 0.1 5.5398e-07 -3.90354 
1450 1 0.95 0.05 4.58965e-06 -3.90378 
1451 1 0.95 0.15 4.64819e-06 -3.90418 
1574 1 0.933333 0.1 0.117736 -4.44864 
1577 1 0.933333 0 0.117736 -4.44859 
1578 1 0.966667 0 0.059018 -4.4073 
1579 1 0.983333 0.05 0.117736 -4.44865 
1605 1 0.933333 0.2 0.117652 -4.43385 
1606 1 0.966667 0.2 0.0590798 -4.40841 
1607 1 0.983333 0.15 0.11765 -4.43389 
1609 1 0.966667 0.1 0.0590179 -4.40741 
6 1 0 0.3 -4.23939e-05 -3.89947 
7 1 0.0166667 0.25 0.0589831 -4.39806 
8 1 0.0166667 0.35 0.0589291 -4.38888 
11 1 0.05 0.25 -2.5677e-06 -3.90293 
15 1 0 0.4 -4.2394e-05 -3.89947 
16 1 0.05 0.35 -1.5616e-05 -3.9021 
53 1 0.0333333 0.4 0.11845 -4.33223 
56 1 0.0333333 0.3 0.11845 -4.33223 
57 1 0.0666667 0.3 0.0590926 -4.40838 
58 1 0.0833333 0.25 0.117659 -4.43401 
59 1 0.0833333 0.35 0.117572 -4.41941 
78 1 0.0666667 0.4 0.0590926 -4.40838 
63 1 0.116667 0.25 0.0590192 -4.40726 
79 1 0.1 0.4 5.68792e-06 -3.90426 
80 1 0.116667 0.35 0.0590133 -4.4065 
82 1 0.1 0.3 5.68775e-06 -3.90426 
83 1 0.15 0.25 4.45138e-06 -3.90376 
84 1 0.15 0.35 4.69293e-06 -3.9037 
174 1 0.133333 0.3 0.117737 -4.44875 
180 1 0.183333 0.25 0.117732 -4.44873 
205 1 0.133333 0.4 0.117737 -4.44875 
206 1 0.166667 0.4 0.0590234 -4.40813 
207 1 0.183333 0.35 0.117732 -4.44874 
209 1 0.166667 0.3 0.0590234 -4.40813 
210 1 0.2 0.3 4.18652e-06 -3.90382 
211 1 0.216667 0.25 0.0590233 -4.40797 
212 1 0.216667 0.35 0.0590233 -4.40797 
215 1 0.25 0.25 4.18901e-06 -3.90381 
237 1 0.2 0.4 4.18652e-06 -3.90382 
238 1 0.25 0.35 4.18899e-06 -3.90381 
367 1 0.233333 0.4 0.117732 -4.44872 
370 1 0.233333 0.3 0.117732 -4.44872 
371 1 0.266667 0.3 0.0590233 -4.40797 
372 1 0.283333 0.25 0.117732 -4.44872 
373 1 0.283333 0.35 0.117732 -4.44872 
402 1 0.266667 0.4 0.0590233 -4.40797 
377 1 0.316667 0.25 0.0590233 -4.40797 
403 1 0.3 0.4 4.18901e-06 -3.90381 
404 1 0.316667 0.35 0.0590233 -4.40797 
406 1 0.3 0.3 4.18901e-06 -3.90381 
407 1 0.35 0.25 4.189e-06 -3.90381 
408 1 0.35 0.35 4.189e-06 -3.90381 
531 1 0.333333 0.3 0.117732 -4.44872 
537 1 0.383333 0.25 0.117732 -4.44872 
565 1 0.333333 0.4 0.117732 -4.44872 
566 1 0.366667 0.4 0.0590233 -4.40797 
567 1 0.383333 0.35 0.117732 -4.44872 
569 1 0.366667 0.3 0.0590233 -4.40797 
570 1 0.4 0.3 4.189e-06 -3.90381 
571 1 0.416667 0.25 0.0590233 -4.40797 
572 1 0.416667 0.35 0.0590233 -4.40797 
575 1 0.45 0.25 4.189e-06 -3.90381 
597 1 0.4 0.4 4.189e-06 -3.90381 
598 1 0.45 0.35 4.189e-06 -3.90381 
727 1 0.433333 0.4 0.117732 -4.44872 
730 1 0.433333 0.3 0.117732 -4.44872 
731 1 0.466667 0.3 0.0590233 -4.40797 
732 1 0.483333 0.25 0.117732 -4.44872 
733 1 0.483333 0.35 0.117732 -4.44872 
762 1 0.466667 0.4 0.0590233 -4.40797 
737 1 0.516667 0.25 0.0590233 -4.40797 
763 1 0.5 0.4 4.18903e-06 -3.90381 
764 1 0.516667 0.35 0.0590233 -4.40797 
766 1 0.5 0.3 4.18903e-06 -3.90381 
767 1 0.55 0.25 4.18853e-06 -3.90384 
768 1 0.55 0.35 4.18853e-06 -3.90384 
891 1 0.533333 0.3 0.117732 -4.4487 
897 1 0.583333 0.25 0.117731 -4.44883 
925 1 0.533333 0.4 0.117732 -4.4487 
926 1 0.566667 0.4 0.0590234 -4.408 
927 1 0.583333 0.35 0.117731 -4.44883 
929 1 0.566667 0.3 0.0590234 -4.408 
930 1 0.6 0.3 2.56822e-06 -3.90367 
931 1 0.616667 0.25 0.0590122 -4.40885 
932 1 0.616667 0.35 0.0590122 -4.40885 
935 1 0.65 0.25 2.17492e-05 -3.88992 
957 1 0.6 0.4 2.5684e-06 -3.90367 
958 1 0.65 0.35 2.17494e-05 -3.88992 
1087 1 0.633333 0.4 0.117726 -4.44795 
1090 1 0.633333 0.3 0.117726 -4.44795 
1091 1 0.666667 0.3 0.0590837 -4.37617 
1092 1 0.683333 0.25 0.117614 -4.45045 
1093 1 0.683333 0.35 0.117614 -4.45045 
1120 1 0.666667 0.4 0.0590837 -4.37617 
1097 1 0.716667 0.25 0.0584879 -4.25338 
1121 1 0.7 0.4 0.000699985 -3.54555 
1122 1 0.716667 0.35 0.0584879 -4.25338 
1124 1 0.7 0.3 0.000699978 -3.54555 
1242 1 0.733333 0.3 0.117837 -4.42865 
1248 1 0.783333 0.25 0.117664 -4.44098 
1276 1 0.733333 0.4 0.117837 -4.42865 
1277 1 0.766667 0.4 0.057963 -4.17963 
1278 1 0.783333 0.35 0.117664 -4.44098 
1280 1 0.766667 0.3 0.057963 -4.17963 
1281 1 0.8 0.3 0.000745837 -3.54548 
1282 1 0.816667 0.25 0.0591571 -4.34857 
1283 1 0.816667 0.35 0.0591571 -4.34857 
1286 1 0.85 0.25 7.5996e-06 -3.89004 
1308 1 0.8 0.4 0.000745844 -3.54548 
1309 1 0.85 0.35 7.6849e-06 -3.89003 
1438 1 0.833333 0.4 0.117689 -4.44757 
1441 1 0.833333 0.3 0.117689 -4.44757 
1442 1 0.866667 0.3 0.0589701 -4.40877 
1443 1 0.883333 0.25 0.117731 -4.44925 
1444 1 0.883333 0.35 0.11774 -4.44916 
1473 1 0.866667 0.4 0.0589701 -4.40877 
1448 1 0.916667 0.25 0.0590244 -4.40654 
1474 1 0.9 0.4 4.9288e-06 -3.90366 
1475 1 0.916667 0.35 0.0590389 -4.40671 
1477 1 0.9 0.3 4.92887e-06 -3.90366 
1478 1 0.95 0.25 -5.2455e-06 -3.90339 
1479 1 0.95 0.35 -1.48092e-05 -3.9021 
1602 1 0.933333 0.3 0.117657 -4.40883 
1608 1 0.983333 0.25 0.118362 -4.34357 
1631 1 0.933333 0.4 0.117657 -4.40883 
1632 1 0.966667 0.4 0.059041 -4.39953 
1633 1 0.983333 0.35 0.119244 -4.26391 
1635 1 0.966667 0.3 0.059041 -4.39954 
12 1 0 0.5 -5.00239e-06 -3.90306 
13 1 0.0166667 0.45 0.0589831 -4.39806 
14 1 0.0166667 0.55 0.0590308 -4.4074 
17 1 0.05 0.45 -2.56801e-06 -3.90293 
21 1 0 0.6 6.27225e-06 -3.90401 
22 1 0.05 0.55 7.71915e-06 -3.90377 
71 1 0.0333333 0.6 0.117749 -4.4485 
74 1 0.0333333 0.5 0.117742 -4.4235 
75 1 0.0666667 0.5 0.0590309 -4.4074 
76 1 0.0833333 0.45 0.117659 -4.43401 
77 1 0.0833333 0.55 0.117741 -4.44862 
95 1 0.0666667 0.6 0.0590269 -4.40823 
81 1 0.116667 0.45 0.0590192 -4.40726 
96 1 0.1 0.6 4.38348e-06 -3.90379 
97 1 0.116667 0.55 0.0590243 -4.40799 
99 1 0.1 0.5 5.34467e-06 -3.9039 
100 1 0.15 0.45 4.45155e-06 -3.90376 
101 1 0.15 0.55 4.19753e-06 -3.90381 
202 1 0.133333 0.5 0.117734 -4.44877 
208 1 0.183333 0.45 0.117732 -4.44873 
229 1 0.133333 0.6 0.117732 -4.44871 
230 1 0.166667 0.6 0.0590233 -4.40796 
231 1 0.183333 0.55 0.117732 -4.44872 
233 1 0.166667 0.5 0.0590233 -4.40802 
234 1 0.2 0.5 4.18838e-06 -3.90382 
235 1 0.216667 0.45 0.0590233 -4.40797 
236 1 0.216667 0.55 0.0590233 -4.40797 
239 1 0.25 0.45 4.18901e-06 -3.90381 
253 1 0.2 0.6 4.18903e-06 -3.90381 
254 1 0.25 0.55 4.18903e-06 -3.90381 
395 1 0.233333 0.6 0.117732 -4.44872 
398 1 0.233333 0.5 0.117732 -4.44872 
399 1 0.266667 0.5 0.0590233 -4.40797 
400 1 0.283333 0.45 0.117732 -4.44872 
401 1 0.283333 0.55 0.117732 -4.44872 
422 1 0.266667 0.6 0.0590233 -4.40797 
405 1 0.316667 0.45 0.0590233 -4.40797 
423 1 0.3 0.6 4.18901e-06 -3.90381 
424 1 0.316667 0.55 0.0590233 -4.40797 
426 1 0.3 0.5 4.18901e-06 -3.90381 
427 1 0.35 0.45 4.189e-06 -3.90381 
428 1 0.35 0.55 4.189e-06 -3.90381 
562 1 0.333333 0.5 0.117732 -4.44872 
568 1 0.383333 0.45 0.117732 -4.44872 
589 1 0.333333 0.6 0.117732 -4.44872 
590 1 0.366667 0.6 0.0590233 -4.40797 
591 1 0.383333 0.55 0.117732 -4.44872 
593 1 0.366667 0.5 0.0590233 -4.40797 
594 1 0.4 0.5 4.189e-06 -3.90381 
595 1 0.416667 0.45 0.0590233 -4.40797 
596 1 0.416667 0.55 0.0590233 -4.40797 
599 1 0.45 0.45 4.189e-06 -3.90381 
613 1 0.4 0.6 4.189e-06 -3.90381 
614 1 0.45 0.55 4.189e-06 -3.90381 
755 1 0.433333 0.6 0.117732 -4.44872 
758 1 0.433333 0.5 0.117732 -4.44872 
759 1 0.466667 0.5 0.0590233 -4.40797 
760 1 0.483333 0.45 0.117732 -4.44872 
761 1 0.483333 0.55 0.117732 -4.44872 
782 1 0.466667 0.6 0.0590233 -4.40797 
765 1 0.516667 0.45 0.0590233 -4.40797 
783 1 0.5 0.6 4.18908e-06 -3.90381 
784 1 0.516667 0.55 0.0590233 -4.40797 
786 1 0.5 0.5 4.18904e-06 -3.90381 
787 1 0.55 0.45 4.18858e-06 -3.90384 
788 1 0.55 0.55 4.19071e-06 -3.90383 
922 1 0.533333 0.5 0.117732 -4.4487 
928 1 0.583333 0.45 0.117731 -4.44883 
949 1 0.533333 0.6 0.117732 -4.44871 
950 1 0.566667 0.6 0.0590234 -4.408 
951 1 0.583333 0.55 0.117731 -4.44885 
953 1 0.566667 0.5 0.0590234 -4.408 
954 1 0.6 0.5 2.58771e-06 -3.90366 
955 1 0.616667 0.45 0.0590122 -4.40885 
956 1 0.616667 0.55 0.059012 -4.40884 
959 1 0.65 0.45 2.17855e-05 -3.8899 
973 1 0.6 0.6 2.76607e-06 -3.9037 
974 1 0.65 0.55 2.31488e-05 -3.89006 
1113 1 0.633333 0.6 0.117729 -4.4478 
1116 1 0.633333 0.5 0.117726 -4.44795 
1117 1 0.666667 0.5 0.059084 -4.37617 
1118 1 0.683333 0.45 0.117614 -4.45046 
1119 1 0.683333 0.55 0.117618 -4.45024 
1138 1 0.666667 0.6 0.0591072 -4.37638 
1123 1 0.716667 0.45 0.0584879 -4.25338 
1139 1 0.7 0.6 0.000687488 -3.5606 
1140 1 0.716667 0.55 0.0584928 -4.25327 
1142 1 0.7 0.5 0.000699964 -3.54567 
1273 1 0.733333 0.5 0.117838 -4.4286 
1279 1 0.783333 0.45 0.117664 -4.44091 
1300 1 0.733333 0.6 0.117841 -4.42943 
1301 1 0.766667 0.6 0.0578524 -4.19483 
1302 1 0.783333 0.55 0.117658 -4.44153 
1304 1 0.766667 0.5 0.0579639 -4.17956 
1305 1 0.8 0.5 0.000746287 -3.54567 
1306 1 0.816667 0.45 0.0591571 -4.34854 
1307 1 0.816667 0.55 0.0591608 -4.34845 
1310 1 0.85 0.45 7.59317e-06 -3.89004 
1324 1 0.8 0.6 0.000715389 -3.56018 
1325 1 0.85 0.55 7.81282e-06 -3.89017 
1466 1 0.833333 0.6 0.117688 -4.44812 
1469 1 0.833333 0.5 0.117689 -4.44743 
1470 1 0.866667 0.5 0.0589681 -4.40867 
1471 1 0.883333 0.45 0.117731 -4.44926 
1472 1 0.883333 0.55 0.117723 -4.44925 
1493 1 0.866667 0.6 0.05897 -4.40848 
1476 1 0.916667 0.45 0.0590244 -4.40654 
1494 1 0.9 0.6 9.83591e-07 -3.90352 
1495 1 0.916667 0.55 0.0590182 -4.4075 
1497 1 0.9 0.5 1.61847e-06 -3.90363 
1498 1 0.95 0.45 -5.24625e-06 -3.9034 
1499 1 0.95 0.55 4.90292e-06 -3.90412 
1628 1 0.933333 0.5 0.117652 -4.43387 
1634 1 0.983333 0.45 0.118362 -4.34357 
1649 1 0.933333 0.6 0.117739 -4.44866 
1650 1 0.966667 0.6 0.0590126 -4.4066 
1651 1 0.983333 0.55 0.117651 -4.43396 
1653 1 0.966667 0.5 0.0590799 -4.40846 
18 1 0 0.7 -6.26078e-06 -3.90292 
19 1 0.0166667 0.65 0.0590302 -4.40739 
20 1 0.0166667 0.75 0.0589787 -4.39885 
23 1 0.05 0.65 7.60869e-06 -3.90377 
27 1 0 0.8 -3.38415e-05 -3.90034 
28 1 0.05 0.75 -6.26917e-06 -3.90293 
88 1 0.0333333 0.8 0.118469 -4.35885 
91 1 0.0333333 0.7 0.117738 -4.42356 
92 1 0.0666667 0.7 0.0590291 -4.4073 
93 1 0.0833333 0.65 0.117741 -4.44864 
94 1 0.0833333 0.75 0.117649 -4.43394 
107 1 0.0666667 0.8 0.0590862 -4.40918 
98 1 0.116667 0.65 0.0590243 -4.40799 
108 1 0.1 0.8 4.45147e-06 -3.90416 
109 1 0.116667 0.75 0.059018 -4.40721 
111 1 0.1 0.7 5.22248e-06 -3.90391 
112 1 0.15 0.65 4.19776e-06 -3.90381 
113 1 0.15 0.75 4.44091e-06 -3.90376 
226 1 0.133333 0.7 0.117734 -4.4488 
232 1 0.183333 0.65 0.117732 -4.44872 
245 1 0.133333 0.8 0.117736 -4.44873 
246 1 0.166667 0.8 0.0590233 -4.40809 
247 1 0.183333 0.75 0.117732 -4.44873 
249 1 0.166667 0.7 0.0590233 -4.40802 
250 1 0.2 0.7 4.18829e-06 -3.90382 
251 1 0.216667 0.65 0.0590233 -4.40797 
252 1 0.216667 0.75 0.0590233 -4.40797 
255 1 0.25 0.65 4.18902e-06 -3.90381 
261 1 0.2 0.8 4.18748e-06 -3.90382 
262 1 0.25 0.75 4.18899e-06 -3.90381 
415 1 0.233333 0.8 0.117732 -4.44872 
418 1 0.233333 0.7 0.117732 -4.44872 
419 1 0.266667 0.7 0.0590233 -4.40797 
420 1 0.283333 0.65 0.117732 -4.44872 
421 1 0.283333 0.75 0.117732 -4.44872 
434 1 0.266667 0.8 0.0590233 -4.40797 
425 1 0.316667 0.65 0.0590233 -4.40797 
435 1 0.3 0.8 4.18901e-06 -3.90381 
436 1 0.316667 0.75 0.0590233 -4.40797 
438 1 0.3 0.7 4.18901e-06 -3.90381 
439 1 0.35 0.65 4.189e-06 -3.90381 
440 1 0.35 0.75 4.189e-06 -3.90381 
586 1 0.333333 0.7 0.117732 -4.44872 
592 1 0.383333 0.65 0.117732 -4.44872 
605 1 0.333333 0.8 0.117732 -4.44872 
606 1 0.366667 0.8 0.0590233 -4.40797 
607 1 0.383333 0.75 0.117732 -4.44872 
609 1 0.366667 0.7 0.0590233 -4.40797 
610 1 0.4 0.7 4.189e-06 -3.90381 
611 1 0.416667 0.65 0.0590233 -4.40797 
612 1 0.416667 0.75 0.0590233 -4.40797 
615 1 0.45 0.65 4.189e-06 -3.90381 
621 1 0.4 0.8 4.189e-06 -3.90381 
622 1 0.45 0.75 4.189e-06 -3.90381 
775 1 0.433333 0.8 0.117732 -4.44872 
778 1 0.433333 0.7 0.117732 -4.44872 
779 1 0.466667 0.7 0.0590233 -4.40797 
780 1 0.483333 0.65 0.117732 -4.44872 
781 1 0.483333 0.75 0.117732 -4.44872 
794 1 0.466667 0.8 0.0590233 -4.40797 
785 1 0.516667 0.65 0.0590233 -4.40797 
795 1 0.5 0.8 4.18898e-06 -3.90381 
796 1 0.516667 0.75 0.0590233 -4.40797 
798 1 0.5 0.7 4.18898e-06 -3.90381 
799 1 0.55 0.65 4.19011e-06 -3.90383 
800 1 0.55 0.75 4.18098e-06 -3.90383 
946 1 0.533333 0.7 0.117732 -4.44871 
952 1 0.583333 0.65 0.117732 -4.4488 
965 1 0.533333 0.8 0.117732 -4.44871 
966 1 0.566667 0.8 0.0590234 -4.40799 
967 1 0.583333 0.75 0.117732 -4.44874 
969 1 0.566667 0.7 0.0590234 -4.40799 
970 1 0.6 0.7 3.15325e-06 -3.90375 
971 1 0.616667 0.65 0.0590149 -4.4086 
972 1 0.616667 0.75 0.0590181 -4.40847 
975 1 0.65 0.65 1.90262e-05 -3.88965 
981 1 0.6 0.8 3.15325e-06 -3.90375 
982 1 0.65 0.75 3.48722e-06 -3.90444 
1131 1 0.633333 0.8 0.117727 -4.44837 
1134 1 0.633333 0.7 0.117727 -4.44837 
1135 1 0.666667 0.7 0.059026 -4.39243 
1136 1 0.683333 0.65 0.117628 -4.45073 
1137 1 0.683333 0.75 0.11768 -4.44895 
1148 1 0.666667 0.8 0.059026 -4.39243 
1141 1 0.716667 0.65 0.0583993 -4.28213 
1149 1 0.7 0.8 0.00033816 -3.72239 
1150 1 0.716667 0.75 0.0590017 -4.35146 
1152 1 0.7 0.7 0.00033816 -3.72239 
1153 1 0.75 0.75 0.000677496 -3.57652 
1297 1 0.733333 0.7 0.117744 -4.43955 
1303 1 0.783333 0.65 0.117718 -4.44014 
1316 1 0.733333 0.8 0.117744 -4.43955 
1317 1 0.766667 0.8 0.0585202 -4.2798 
1318 1 0.783333 0.75 0.11758 -4.45144 
1320 1 0.766667 0.7 0.0585202 -4.2798 
1321 1 0.8 0.7 0.000377026 -3.72266 
1322 1 0.816667 0.65 0.0590804 -4.36451 
1323 1 0.816667 0.75 0.0591192 -4.37737 
1326 1 0.85 0.65 3.29126e-06 -3.88972 
1332 1 0.8 0.8 0.000377026 -3.72266 
1333 1 0.85 0.75 5.91206e-06 -3.90443 
1486 1 0.833333 0.8 0.117709 -4.44776 
1489 1 0.833333 0.7 0.117709 -4.44773 
1490 1 0.866667 0.7 0.0589937 -4.40858 
1491 1 0.883333 0.65 0.117726 -4.44918 
1492 1 0.883333 0.75 0.117735 -4.44895 
1505 1 0.866667 0.8 0.0589945 -4.40867 
1496 1 0.916667 0.65 0.0590181 -4.40737 
1506 1 0.9 0.8 5.33492e-06 -3.90366 
1507 1 0.916667 0.75 0.0590294 -4.40731 
1509 1 0.9 0.7 3.04381e-06 -3.90381 
1510 1 0.95 0.65 4.62172e-06 -3.90416 
1511 1 0.95 0.75 -6.31785e-06 -3.90297 
1646 1 0.933333 0.7 0.11765 -4.4338 
1652 1 0.983333 0.65 0.117651 -4.43379 
1659 1 0.933333 0.8 0.117738 -4.42357 
1660 1 0.966667 0.8 0.0589787 -4.39885 
1661 1 0.983333 0.75 0.118469 -4.35874 
1663 1 0.966667 0.7 0.0590862 -4.40928 
24 1 0 0.9 -6.26936e-06 -3.90293 
25 1 0.0166667 0.85 0.0589787 -4.39885 
26 1 0.0166667 0.95 0.0590291 -4.4073 
29 1 0.05 0.85 -6.26884e-06 -3.90293 
30 1 0.05 0.95 7.51204e-06 -3.90378 
103 1 0.0333333 0.9 0.117738 -4.42361 
104 1 0.0666667 0.9 0.0590291 -4.40729 
105 1 0.0833333 0.85 0.117649 -4.43392 
106 1 0.0833333 0.95 0.11774 -4.44873 
110 1 0.116667 0.85 0.059018 -4.40721 
114 1 0.116667 0.95 0.0590243 -4.40799 
115 1 0.1 0.9 5.22276e-06 -3.90392 
116 1 0.15 0.85 4.44073e-06 -3.90376 
117 1 0.15 0.95 4.19799e-06 -3.90381 
242 1 0.133333 0.9 0.117734 -4.44878 
248 1 0.183333 0.85 0.117732 -4.44873 
256 1 0.183333 0.95 0.117732 -4.44871 
257 1 0.166667 0.9 0.0590233 -4.40802 
258 1 0.2 0.9 4.18823e-06 -3.90382 
259 1 0.216667 0.85 0.0590233 -4.40797 
260 1 0.216667 0.95 0.0590233 -4.40797 
263 1 0.25 0.85 4.18899e-06 -3.90381 
264 1 0.25 0.95 4.18902e-06 -3.90381 
430 1 0.233333 0.9 0.117732 -4.44872 
431 1 0.266667 0.9 0.0590233 -4.40797 
432 1 0.283333 0.85 0.117732 -4.44872 
433 1 0.283333 0.95 0.117732 -4.44872 
437 1 0.316667 0.85 0.0590233 -4.40797 
441 1 0.316667 0.95 0.0590233 -4.40797 
442 1 0.3 0.9 4.18901e-06 -3.90381 
443 1 0.35 0.85 4.189e-06 -3.90381 
444 1 0.35 0.95 4.189e-06 -3.90381 
602 1 0.333333 0.9 0.117732 -4.44872 
608 1 0.383333 0.85 0.117732 -4.44872 
616 1 0.383333 0.95 0.117732 -4.44872 
617 1 0.366667 0.9 0.0590233 -4.40797 
618 1 0.4 0.9 4.189e-06 -3.90381 
619 1 0.416667 0.85 0.0590233 -4.40797 
620 1 0.416667 0.95 0.0590233 -4.40797 
623 1 0.45 0.85 4.189e-06 -3.90381 
624 1 0.45 0.95 4.189e-06 -3.90381 
790 1 0.433333 0.9 0.117732 -4.44872 
791 1 0.466667 0.9 0.0590233 -4.40797 
792 1 0.483333 0.85 0.117732 -4.44872 
793 1 0.483333 0.95 0.117732 -4.44872 
797 1 0.516667 0.85 0.0590233 -4.40797 
801 1 0.516667 0.95 0.0590233 -4.40797 
802 1 0.5 0.9 4.18908e-06 -3.90381 
803 1 0.55 0.85 4.19011e-06 -3.90383 
804 1 0.55 0.95 4.19071e-06 -3.90383 
962 1 0.533333 0.9 0.117732 -4.44871 
968 1 0.583333 0.85 0.117732 -4.4488 
976 1 0.583333 0.95 0.117731 -4.44885 
977 1 0.566667 0.9 0.0590234 -4.408 
978 1 0.6 0.9 2.76607e-06 -3.9037 
979 1 0.616667 0.85 0.0590149 -4.4086 
980 1 0.616667 0.95 0.059012 -4.40884 
983 1 0.65 0.85 1.90262e-05 -3.88965 
984 1 0.65 0.95 2.31488e-05 -3.89006 
1144 1 0.633333 0.9 0.117729 -4.4478 
1145 1 0.666667 0.9 0.0591072 -4.37638 
1146 1 0.683333 0.85 0.117628 -4.45073 
1147 1 0.683333 0.95 0.117618 -4.45024 
1151 1 0.716667 0.85 0.0583993 -4.28213 
1154 1 0.716667 0.95 0.0584928 -4.25327 
1155 1 0.7 0.9 0.000687488 -3.5606 
1313 1 0.733333 0.9 0.117841 -4.42943 
1319 1 0.783333 0.85 0.117718 -4.44014 
1327 1 0.783333 0.95 0.117658 -4.44153 
1328 1 0.766667 0.9 0.0578524 -4.19483 
1329 1 0.8 0.9 0.000715388 -3.56018 
1330 1 0.816667 0.85 0.0590804 -4.36452 
1331 1 0.816667 0.95 0.0591608 -4.34845 
1334 1 0.85 0.85 3.38135e-06 -3.88971 
1335 1 0.85 0.95 7.81462e-06 -3.89016 
1501 1 0.833333 0.9 0.117688 -4.44811 
1502 1 0.866667 0.9 0.058971 -4.40841 
1503 1 0.883333 0.85 0.117732 -4.44909 
1504 1 0.883333 0.95 0.117723 -4.44924 
1508 1 0.916667 0.85 0.0590292 -4.40732 
1512 1 0.916667 0.95 0.0590182 -4.40725 
1513 1 0.9 0.9 1.51435e-06 -3.90373 
1514 1 0.95 0.85 -6.35042e-06 -3.90299 
1515 1 0.95 0.95 4.34988e-06 -3.90424 
1656 1 0.933333 0.9 0.117649 -4.43389 
1662 1 0.983333 0.85 0.118469 -4.35886 
1664 1 0.983333 0.95 0.11765 -4.43384 
1665 1 0.966667 0.9 0.0590862 -4.4092 
31 1 0 0.1 0.176493 -4.44828 
32 1 0.0166667 0.05 0.235301 -4.44107 
33 1 0.0166667 0.15 0.235385 -4.42635 
34 1 0 0 0.176521 -4.45107 
36 1 0.05 0.05 0.17652 -4.44948 
39 1 0 0.2 0.17652 -4.35367 
41 1 0.05 0.15 0.176542 -4.4369 
131 1 0.0666667 0.1 0.235408 -4.45088 
134 1 0.0666667 0 0.235353 -4.44925 
148 1 0.0666667 0.2 0.235435 -4.43445 
135 1 0.1 0 0.176531 -4.45054 
136 1 0.116667 0.05 0.235343 -4.44913 
149 1 0.1 0.2 0.176531 -4.45177 
150 1 0.116667 0.15 0.235342 -4.44918 
152 1 0.1 0.1 0.17653 -4.45084 
154 1 0.15 0.05 0.17653 -4.45051 
155 1 0.15 0.15 0.17653 -4.4504 
288 1 0.166667 0 0.235348 -4.44991 
304 1 0.166667 0.2 0.235348 -4.44989 
307 1 0.166667 0.1 0.235348 -4.44997 
308 1 0.2 0.1 0.17653 -4.45056 
309 1 0.216667 0.05 0.235348 -4.44986 
310 1 0.216667 0.15 0.235348 -4.44986 
311 1 0.2 0 0.17653 -4.45056 
313 1 0.25 0.05 0.17653 -4.45056 
335 1 0.2 0.2 0.17653 -4.45057 
337 1 0.25 0.15 0.17653 -4.45056 
475 1 0.266667 0.1 0.235348 -4.44986 
478 1 0.266667 0 0.235348 -4.44986 
498 1 0.266667 0.2 0.235348 -4.44986 
479 1 0.3 0 0.17653 -4.45056 
480 1 0.316667 0.05 0.235348 -4.44986 
499 1 0.3 0.2 0.17653 -4.45056 
500 1 0.316667 0.15 0.235348 -4.44986 
502 1 0.3 0.1 0.17653 -4.45056 
504 1 0.35 0.05 0.17653 -4.45056 
505 1 0.35 0.15 0.17653 -4.45056 
648 1 0.366667 0 0.235348 -4.44986 
664 1 0.366667 0.2 0.235348 -4.44986 
667 1 0.366667 0.1 0.235348 -4.44986 
668 1 0.4 0.1 0.17653 -4.45056 
669 1 0.416667 0.05 0.235348 -4.44986 
670 1 0.416667 0.15 0.235348 -4.44986 
671 1 0.4 0 0.17653 -4.45056 
673 1 0.45 0.05 0.17653 -4.45056 
695 1 0.4 0.2 0.17653 -4.45056 
697 1 0.45 0.15 0.17653 -4.45056 
835 1 0.466667 0.1 0.235348 -4.44986 
838 1 0.466667 0 0.235348 -4.44986 
858 1 0.466667 0.2 0.235348 -4.44986 
839 1 0.5 0 0.17653 -4.45056 
840 1 0.516667 0.05 0.235348 -4.44986 
859 1 0.5 0.2 0.17653 -4.45056 
860 1 0.516667 0.15 0.235348 -4.44986 
862 1 0.5 0.1 0.17653 -4.45056 
864 1 0.55 0.05 0.17653 -4.45055 
865 1 0.55 0.15 0.17653 -4.45055 
1008 1 0.566667 0 0.235348 -4.44986 
1024 1 0.566667 0.2 0.235348 -4.44986 
1027 1 0.566667 0.1 0.235348 -4.44986 
1028 1 0.6 0.1 0.176529 -4.45042 
1029 1 0.616667 0.05 0.235348 -4.44987 
1030 1 0.616667 0.15 0.235348 -4.44987 
1031 1 0.6 0 0.176529 -4.45042 
1033 1 0.65 0.05 0.176526 -4.45125 
1055 1 0.6 0.2 0.176529 -4.45042 
1057 1 0.65 0.15 0.176526 -4.45125 
1186 1 0.666667 0.1 0.235347 -4.44963 
1189 1 0.666667 0 0.235347 -4.44963 
1209 1 0.666667 0.2 0.235347 -4.44963 
1190 1 0.7 0 0.17654 -4.44953 
1191 1 0.716667 0.05 0.235347 -4.44971 
1210 1 0.7 0.2 0.17654 -4.44954 
1211 1 0.716667 0.15 0.235347 -4.44971 
1213 1 0.7 0.1 0.17654 -4.44954 
1215 1 0.75 0.05 0.176583 -4.44662 
1216 1 0.75 0.15 0.176583 -4.44662 
1359 1 0.766667 0 0.235345 -4.44943 
1375 1 0.766667 0.2 0.235345 -4.44944 
1378 1 0.766667 0.1 0.235345 -4.44944 
1379 1 0.8 0.1 0.176544 -4.45018 
1380 1 0.816667 0.05 0.235347 -4.44967 
1381 1 0.816667 0.15 0.235347 -4.44967 
1382 1 0.8 0 0.176544 -4.45024 
1384 1 0.85 0.05 0.176523 -4.45084 
1406 1 0.8 0.2 0.176544 -4.4502 
1408 1 0.85 0.15 0.176523 -4.45073 
1546 1 0.866667 0.1 0.23535 -4.44994 
1549 1 0.866667 0 0.235349 -4.4499 
1569 1 0.866667 0.2 0.235348 -4.4499 
1550 1 0.9 0 0.176531 -4.45042 
1551 1 0.916667 0.05 0.235354 -4.44925 
1570 1 0.9 0.2 0.176531 -4.45171 
1571 1 0.916667 0.15 0.235346 -4.44911 
1573 1 0.9 0.1 0.176533 -4.45034 
1575 1 0.95 0.05 0.17652 -4.4494 
1576 1 0.95 0.15 0.176497 -4.4369 
1689 1 0.966667 0 0.235398 -4.45006 
1705 1 0.966667 0.2 0.235402 -4.42567 
1708 1 0.966667 0.1 0.235294 -4.44096 
37 1 0.0166667 0.25 0.234723 -4.34393 
38 1 0.0166667 0.35 0.233833 -4.26454 
42 1 0.05 0.25 0.176556 -4.34026 
54 1 0.05 0.35 0.176536 -4.24721 
145 1 0.0666667 0.3 0.235426 -4.41014 
169 1 0.0666667 0.4 0.235426 -4.41014 
151 1 0.116667 0.25 0.23534 -4.44991 
170 1 0.1 0.4 0.176508 -4.43906 
171 1 0.116667 0.35 0.23533 -4.4498 
173 1 0.1 0.3 0.176508 -4.43906 
175 1 0.15 0.25 0.17653 -4.45031 
176 1 0.15 0.35 0.17653 -4.45026 
328 1 0.166667 0.4 0.235348 -4.44985 
331 1 0.166667 0.3 0.235348 -4.44985 
332 1 0.2 0.3 0.17653 -4.45058 
333 1 0.216667 0.25 0.235348 -4.44987 
334 1 0.216667 0.35 0.235348 -4.44987 
338 1 0.25 0.25 0.17653 -4.45056 
366 1 0.2 0.4 0.17653 -4.45058 
368 1 0.25 0.35 0.17653 -4.45056 
495 1 0.266667 0.3 0.235348 -4.44986 
526 1 0.266667 0.4 0.235348 -4.44986 
501 1 0.316667 0.25 0.235348 -4.44986 
527 1 0.3 0.4 0.17653 -4.45056 
528 1 0.316667 0.35 0.235348 -4.44986 
530 1 0.3 0.3 0.17653 -4.45056 
532 1 0.35 0.25 0.17653 -4.45056 
533 1 0.35 0.35 0.17653 -4.45056 
688 1 0.366667 0.4 0.235348 -4.44986 
691 1 0.366667 0.3 0.235348 -4.44986 
692 1 0.4 0.3 0.17653 -4.45056 
693 1 0.416667 0.25 0.235348 -4.44986 
694 1 0.416667 0.35 0.235348 -4.44986 
698 1 0.45 0.25 0.17653 -4.45056 
726 1 0.4 0.4 0.17653 -4.45056 
728 1 0.45 0.35 0.17653 -4.45056 
855 1 0.466667 0.3 0.235348 -4.44986 
886 1 0.466667 0.4 0.235348 -4.44986 
861 1 0.516667 0.25 0.235348 -4.44986 
887 1 0.5 0.4 0.17653 -4.45056 
888 1 0.516667 0.35 0.235348 -4.44986 
890 1 0.5 0.3 0.17653 -4.45056 
892 1 0.55 0.25 0.17653 -4.45055 
893 1 0.55 0.35 0.17653 -4.45055 
1048 1 0.566667 0.4 0.235348 -4.44986 
1051 1 0.566667 0.3 0.235348 -4.44986 
1052 1 0.6 0.3 0.176529 -4.45042 
1053 1 0.616667 0.25 0.235348 -4.44987 
1054 1 0.616667 0.35 0.235348 -4.44987 
1058 1 0.65 0.25 0.176526 -4.45125 
1086 1 0.6 0.4 0.176529 -4.45042 
1088 1 0.65 0.35 0.176526 -4.45125 
1206 1 0.666667 0.3 0.235347 -4.44963 
1237 1 0.666667 0.4 0.235347 -4.44963 
1212 1 0.716667 0.25 0.235347 -4.44971 
1238 1 0.7 0.4 0.17654 -4.44954 
1239 1 0.716667 0.35 0.235347 -4.44971 
1241 1 0.7 0.3 0.17654 -4.44954 
1243 1 0.75 0.25 0.176583 -4.44662 
1244 1 0.75 0.35 0.176583 -4.44662 
1399 1 0.766667 0.4 0.235345 -4.44944 
1402 1 0.766667 0.3 0.235345 -4.44944 
1403 1 0.8 0.3 0.176544 -4.45021 
1404 1 0.816667 0.25 0.235347 -4.44968 
1405 1 0.816667 0.35 0.235347 -4.44969 
1409 1 0.85 0.25 0.176522 -4.45058 
1437 1 0.8 0.4 0.176544 -4.45021 
1439 1 0.85 0.35 0.176523 -4.45054 
1566 1 0.866667 0.3 0.235344 -4.44993 
1597 1 0.866667 0.4 0.235344 -4.44993 
1572 1 0.916667 0.25 0.235417 -4.43439 
1598 1 0.9 0.4 0.176552 -4.43894 
1599 1 0.916667 0.35 0.235509 -4.42082 
1601 1 0.9 0.3 0.176552 -4.43894 
1603 1 0.95 0.25 0.176507 -4.34067 
1604 1 0.95 0.35 0.176525 -4.24707 
1723 1 0.966667 0.4 0.234623 -4.33252 