ITEM: TIMESTEP
19
ITEM: NUMBER OF ATOMS
3584
ITEM: BOX BOUNDS pp pp ss
0.0000000000000000e+00 4.3111019472983898e+01
0.0000000000000000e+00 2.4890158697766498e+01
-3.6580800000000006e-03 3.4552298188307212e+01
ITEM: ATOMS id type xs ys zs c_peratom 
1 1 0 0.1 -0.0009714 -3.90353 
2 1 0.0166667 0.05 0.0580376 -4.40838 
3 1 0.0166667 0.15 0.0580894 -4.4076 
4 1 0 0 -0.000958787 -3.90366 
5 1 0.05 0.05 -0.000989396 -3.90374 
9 1 0 0.2 -0.000752881 -3.90364 
10 1 0.05 0.15 -0.000965832 -3.90354 
35 1 0.0333333 0 0.116798 -4.44934 
40 1 0.0333333 0.2 0.116871 -4.4242 
43 1 0.0333333 0.1 0.116836 -4.44956 
44 1 0.0666667 0.1 0.0579897 -4.40843 
45 1 0.0833333 0.05 0.116711 -4.44923 
46 1 0.0833333 0.15 0.116734 -4.44939 
47 1 0.0666667 0 0.057988 -4.40824 
60 1 0.0666667 0.2 0.0580359 -4.40761 
48 1 0.1 0 -0.00108361 -3.90362 
49 1 0.116667 0.05 0.0578779 -4.40803 
61 1 0.1 0.2 -0.00107382 -3.90354 
62 1 0.116667 0.15 0.0578882 -4.40817 
64 1 0.1 0.1 -0.00108104 -3.9036 
65 1 0.15 0.05 -0.00117262 -3.90356 
66 1 0.15 0.15 -0.0011702 -3.9036 
153 1 0.133333 0.1 0.116615 -4.44916 
156 1 0.133333 0 0.116607 -4.44906 
157 1 0.166667 0 0.0578064 -4.40798 
158 1 0.183333 0.05 0.116541 -4.44905 
177 1 0.133333 0.2 0.116593 -4.4491 
178 1 0.166667 0.2 0.0577993 -4.408 
179 1 0.183333 0.15 0.116537 -4.44906 
181 1 0.166667 0.1 0.0578025 -4.40801 
182 1 0.2 0.1 -0.00123776 -3.90357 
183 1 0.216667 0.05 0.0577475 -4.40798 
184 1 0.216667 0.15 0.0577421 -4.408 
185 1 0.2 0 -0.00122757 -3.90361 
186 1 0.25 0.05 -0.00127568 -3.90358 
213 1 0.2 0.2 -0.00123983 -3.90358 
214 1 0.25 0.15 -0.00128083 -3.90357 
312 1 0.233333 0 0.116499 -4.44907 
336 1 0.233333 0.2 0.116491 -4.44908 
339 1 0.233333 0.1 0.116491 -4.44905 
340 1 0.266667 0.1 0.0577124 -4.408 
341 1 0.283333 0.05 0.116472 -4.44908 
342 1 0.283333 0.15 0.116467 -4.44907 
343 1 0.266667 0 0.0577155 -4.40801 
374 1 0.266667 0.2 0.0577083 -4.408 
344 1 0.3 0 -0.00129865 -3.90358 
345 1 0.316667 0.05 0.0576988 -4.40801 
375 1 0.3 0.2 -0.00130055 -3.90359 
376 1 0.316667 0.15 0.0576984 -4.40801 
378 1 0.3 0.1 -0.00129904 -3.90359 
379 1 0.35 0.05 -0.00130379 -3.90359 
380 1 0.35 0.15 -0.00130377 -3.9036 
503 1 0.333333 0.1 0.116463 -4.44908 
506 1 0.333333 0 0.116463 -4.44908 
507 1 0.366667 0 0.0576974 -4.40801 
508 1 0.383333 0.05 0.116466 -4.44908 
534 1 0.333333 0.2 0.116462 -4.44908 
535 1 0.366667 0.2 0.0576975 -4.40802 
536 1 0.383333 0.15 0.116467 -4.44908 
538 1 0.366667 0.1 0.0576979 -4.40802 
539 1 0.4 0.1 -0.00129779 -3.9036 
540 1 0.416667 0.05 0.0577089 -4.40801 
541 1 0.416667 0.15 0.0577098 -4.40801 
542 1 0.4 0 -0.00129863 -3.9036 
543 1 0.45 0.05 -0.00127716 -3.90365 
573 1 0.4 0.2 -0.00129789 -3.90359 
574 1 0.45 0.15 -0.0012748 -3.90366 
672 1 0.433333 0 0.116479 -4.44907 
696 1 0.433333 0.2 0.116482 -4.44907 
699 1 0.433333 0.1 0.116481 -4.44907 
700 1 0.466667 0.1 0.0577314 -4.40798 
701 1 0.483333 0.05 0.116498 -4.44908 
702 1 0.483333 0.15 0.116502 -4.44908 
703 1 0.466667 0 0.0577268 -4.40799 
734 1 0.466667 0.2 0.0577341 -4.40799 
704 1 0.5 0 -0.0012619 -3.90366 
705 1 0.516667 0.05 0.0577407 -4.40803 
735 1 0.5 0.2 -0.00125037 -3.9037 
736 1 0.516667 0.15 0.0577463 -4.40803 
738 1 0.5 0.1 -0.00125538 -3.90368 
739 1 0.55 0.05 -0.00125775 -3.90356 
740 1 0.55 0.15 -0.00125278 -3.90357 
863 1 0.533333 0.1 0.11651 -4.4491 
866 1 0.533333 0 0.116506 -4.4491 
867 1 0.566667 0 0.0577539 -4.40815 
868 1 0.583333 0.05 0.116526 -4.44929 
894 1 0.533333 0.2 0.116514 -4.44909 
895 1 0.566667 0.2 0.0577581 -4.40814 
896 1 0.583333 0.15 0.116527 -4.44929 
898 1 0.566667 0.1 0.0577548 -4.40815 
899 1 0.6 0.1 -0.00121237 -3.90342 
900 1 0.616667 0.05 0.0578002 -4.40884 
901 1 0.616667 0.15 0.0577995 -4.40884 
902 1 0.6 0 -0.00121106 -3.90345 
903 1 0.65 0.05 -0.0010693 -3.89016 
933 1 0.6 0.2 -0.00121181 -3.90342 
934 1 0.65 0.15 -0.00106946 -3.89013 
1032 1 0.633333 0 0.116561 -4.44827 
1056 1 0.633333 0.2 0.116562 -4.44828 
1059 1 0.633333 0.1 0.116564 -4.44827 
1060 1 0.666667 0.1 0.0579702 -4.37607 
1061 1 0.683333 0.05 0.116456 -4.44937 
1062 1 0.683333 0.15 0.116455 -4.44937 
1063 1 0.666667 0 0.0579654 -4.37609 
1094 1 0.666667 0.2 0.0579667 -4.37605 
1064 1 0.7 0 -0.000338966 -3.54831 
1065 1 0.716667 0.05 0.057454 -4.25276 
1095 1 0.7 0.2 -0.000329909 -3.54811 
1096 1 0.716667 0.15 0.0574574 -4.25278 
1098 1 0.7 0.1 -0.000326955 -3.54817 
1214 1 0.733333 0.1 0.116382 -4.42759 
1217 1 0.733333 0 0.116367 -4.42743 
1218 1 0.766667 0 0.0564376 -4.17757 
1219 1 0.783333 0.05 0.116111 -4.44051 
1245 1 0.733333 0.2 0.116382 -4.42759 
1246 1 0.766667 0.2 0.056461 -4.17781 
1247 1 0.783333 0.15 0.116117 -4.4406 
1249 1 0.766667 0.1 0.0564627 -4.1778 
1250 1 0.8 0.1 -0.000396049 -3.54623 
1251 1 0.816667 0.05 0.0580616 -4.34842 
1252 1 0.816667 0.15 0.0580684 -4.34844 
1253 1 0.8 0 -0.000425979 -3.54617 
1254 1 0.85 0.05 -0.00109201 -3.89049 
1284 1 0.8 0.2 -0.000402343 -3.54608 
1285 1 0.85 0.15 -0.00109013 -3.8904 
1383 1 0.833333 0 0.116588 -4.44664 
1407 1 0.833333 0.2 0.116599 -4.44673 
1410 1 0.833333 0.1 0.116603 -4.4467 
1411 1 0.866667 0.1 0.0578222 -4.40898 
1412 1 0.883333 0.05 0.116607 -4.44982 
1413 1 0.883333 0.15 0.116609 -4.44999 
1414 1 0.866667 0 0.0578183 -4.40898 
1445 1 0.866667 0.2 0.0578247 -4.40922 
1415 1 0.9 0 -0.00108693 -3.90319 
1416 1 0.916667 0.05 0.0579209 -4.40808 
1446 1 0.9 0.2 -0.00107442 -3.90287 
1447 1 0.916667 0.15 0.0579263 -4.40721 
1449 1 0.9 0.1 -0.00109194 -3.90312 
1450 1 0.95 0.05 -0.0010453 -3.90328 
1451 1 0.95 0.15 -0.000972116 -3.90372 
1574 1 0.933333 0.1 0.116706 -4.44916 
1577 1 0.933333 0 0.116704 -4.44901 
1578 1 0.966667 0 0.0579936 -4.40724 
1579 1 0.983333 0.05 0.116791 -4.44945 
1605 1 0.933333 0.2 0.116671 -4.43402 
1606 1 0.966667 0.2 0.0582408 -4.40779 
1607 1 0.983333 0.15 0.116758 -4.43456 
1609 1 0.966667 0.1 0.0579882 -4.4075 
6 1 0 0.3 -0.000382769 -3.90262 
7 1 0.0166667 0.25 0.0583731 -4.39755 
8 1 0.0166667 0.35 0.0587261 -4.3894 
11 1 0.05 0.25 -0.00077869 -3.90351 
15 1 0 0.4 -0.000368252 -3.90265 
16 1 0.05 0.35 -0.000608791 -3.90397 
53 1 0.0333333 0.4 0.117689 -4.33144 
56 1 0.0333333 0.3 0.117684 -4.33144 
57 1 0.0666667 0.3 0.0582175 -4.40756 
58 1 0.0833333 0.25 0.11665 -4.43452 
59 1 0.0833333 0.35 0.116555 -4.41915 
78 1 0.0666667 0.4 0.0582295 -4.40755 
63 1 0.116667 0.25 0.057874 -4.40729 
79 1 0.1 0.4 -0.00101758 -3.90378 
80 1 0.116667 0.35 0.0578586 -4.40624 
82 1 0.1 0.3 -0.00102582 -3.90373 
83 1 0.15 0.25 -0.00117633 -3.90344 
84 1 0.15 0.35 -0.00118121 -3.90326 
174 1 0.133333 0.3 0.116578 -4.44925 
180 1 0.183333 0.25 0.116533 -4.44911 
205 1 0.133333 0.4 0.116578 -4.44921 
206 1 0.166667 0.4 0.0577947 -4.40809 
207 1 0.183333 0.35 0.116531 -4.44915 
209 1 0.166667 0.3 0.0577898 -4.40811 
210 1 0.2 0.3 -0.00124135 -3.90359 
211 1 0.216667 0.25 0.0577424 -4.40802 
212 1 0.216667 0.35 0.0577403 -4.40802 
215 1 0.25 0.25 -0.00128296 -3.90358 
237 1 0.2 0.4 -0.00124103 -3.90358 
238 1 0.25 0.35 -0.00128439 -3.90357 
367 1 0.233333 0.4 0.11649 -4.4491 
370 1 0.233333 0.3 0.11649 -4.44909 
371 1 0.266667 0.3 0.0577075 -4.40801 
372 1 0.283333 0.25 0.116465 -4.44907 
373 1 0.283333 0.35 0.116465 -4.44907 
402 1 0.266667 0.4 0.0577053 -4.40801 
377 1 0.316667 0.25 0.0576963 -4.408 
403 1 0.3 0.4 -0.00130421 -3.90358 
404 1 0.316667 0.35 0.0576944 -4.408 
406 1 0.3 0.3 -0.00130317 -3.90358 
407 1 0.35 0.25 -0.001305 -3.90359 
408 1 0.35 0.35 -0.00130612 -3.90359 
531 1 0.333333 0.3 0.116459 -4.44908 
537 1 0.383333 0.25 0.116466 -4.44908 
565 1 0.333333 0.4 0.116459 -4.44908 
566 1 0.366667 0.4 0.0576963 -4.40802 
567 1 0.383333 0.35 0.116466 -4.44908 
569 1 0.366667 0.3 0.0576967 -4.40802 
570 1 0.4 0.3 -0.00129818 -3.90359 
571 1 0.416667 0.25 0.0577097 -4.40802 
572 1 0.416667 0.35 0.0577094 -4.40802 
575 1 0.45 0.25 -0.00127425 -3.90366 
597 1 0.4 0.4 -0.00129845 -3.9036 
598 1 0.45 0.35 -0.00127484 -3.90366 
727 1 0.433333 0.4 0.116481 -4.44907 
730 1 0.433333 0.3 0.116482 -4.44908 
731 1 0.466667 0.3 0.0577341 -4.40799 
732 1 0.483333 0.25 0.116504 -4.44908 
733 1 0.483333 0.35 0.116502 -4.44908 
762 1 0.466667 0.4 0.0577313 -4.40798 
737 1 0.516667 0.25 0.0577498 -4.40802 
763 1 0.5 0.4 -0.00125544 -3.90368 
764 1 0.516667 0.35 0.0577463 -4.40803 
766 1 0.5 0.3 -0.00125039 -3.9037 
767 1 0.55 0.25 -0.00124857 -3.90359 
768 1 0.55 0.35 -0.00125291 -3.90357 
891 1 0.533333 0.3 0.116514 -4.44909 
897 1 0.583333 0.25 0.116528 -4.44929 
925 1 0.533333 0.4 0.116509 -4.4491 
926 1 0.566667 0.4 0.0577546 -4.40815 
927 1 0.583333 0.35 0.116527 -4.44929 
929 1 0.566667 0.3 0.057758 -4.40814 
930 1 0.6 0.3 -0.00121177 -3.90342 
931 1 0.616667 0.25 0.0577988 -4.40884 
932 1 0.616667 0.35 0.0577998 -4.40884 
935 1 0.65 0.25 -0.00107279 -3.89011 
957 1 0.6 0.4 -0.00121237 -3.90342 
958 1 0.65 0.35 -0.00106891 -3.89013 
1087 1 0.633333 0.4 0.116564 -4.44828 
1090 1 0.633333 0.3 0.116562 -4.44828 
1091 1 0.666667 0.3 0.0579668 -4.37605 
1092 1 0.683333 0.25 0.116453 -4.44935 
1093 1 0.683333 0.35 0.116456 -4.44937 
1120 1 0.666667 0.4 0.0579705 -4.37606 
1097 1 0.716667 0.25 0.0574563 -4.25278 
1121 1 0.7 0.4 -0.000326106 -3.54813 
1122 1 0.716667 0.35 0.0574602 -4.25281 
1124 1 0.7 0.3 -0.00032948 -3.5481 
1242 1 0.733333 0.3 0.116385 -4.4276 
1248 1 0.783333 0.25 0.116117 -4.44065 
1276 1 0.733333 0.4 0.116391 -4.4276 
1277 1 0.766667 0.4 0.05648 -4.17782 
1278 1 0.783333 0.35 0.11613 -4.44066 
1280 1 0.766667 0.3 0.0564669 -4.17782 
1281 1 0.8 0.3 -0.000397371 -3.54603 
1282 1 0.816667 0.25 0.0580633 -4.34847 
1283 1 0.816667 0.35 0.0580769 -4.34852 
1286 1 0.85 0.25 -0.00109403 -3.89026 
1308 1 0.8 0.4 -0.000380404 -3.54619 
1309 1 0.85 0.35 -0.00107335 -3.89033 
1438 1 0.833333 0.4 0.116621 -4.44675 
1441 1 0.833333 0.3 0.116607 -4.44678 
1442 1 0.866667 0.3 0.0578608 -4.40953 
1443 1 0.883333 0.25 0.11665 -4.4502 
1444 1 0.883333 0.35 0.116697 -4.45039 
1473 1 0.866667 0.4 0.0578792 -4.4095 
1448 1 0.916667 0.25 0.0580154 -4.40603 
1474 1 0.9 0.4 -0.000968833 -3.90303 
1475 1 0.916667 0.35 0.0581093 -4.40633 
1477 1 0.9 0.3 -0.000993096 -3.90293 
1478 1 0.95 0.25 -0.000701804 -3.90432 
1479 1 0.95 0.35 -0.000506316 -3.9038 
1602 1 0.933333 0.3 0.116813 -4.40875 
1608 1 0.983333 0.25 0.117636 -4.34302 
1631 1 0.933333 0.4 0.116825 -4.40872 
1632 1 0.966667 0.4 0.0586902 -4.40002 
1633 1 0.983333 0.35 0.119185 -4.26588 
1635 1 0.966667 0.3 0.0586763 -4.40003 
12 1 0 0.5 -0.000725188 -3.90363 
13 1 0.0166667 0.45 0.0583896 -4.39748 
14 1 0.0166667 0.55 0.0581275 -4.40773 
17 1 0.05 0.45 -0.000757927 -3.90352 
21 1 0 0.6 -0.000907547 -3.90349 
22 1 0.05 0.55 -0.00093906 -3.9035 
71 1 0.0333333 0.6 0.116896 -4.44969 
74 1 0.0333333 0.5 0.116888 -4.42422 
75 1 0.0666667 0.5 0.0580496 -4.40758 
76 1 0.0833333 0.45 0.116667 -4.43454 
77 1 0.0833333 0.55 0.116751 -4.44945 
95 1 0.0666667 0.6 0.0580369 -4.40872 
81 1 0.116667 0.45 0.0578905 -4.40732 
96 1 0.1 0.6 -0.00105992 -3.90356 
97 1 0.116667 0.55 0.0578982 -4.40818 
99 1 0.1 0.5 -0.00105681 -3.90351 
100 1 0.15 0.45 -0.00116936 -3.90347 
101 1 0.15 0.55 -0.00115966 -3.90356 
202 1 0.133333 0.5 0.116613 -4.44916 
208 1 0.183333 0.45 0.116536 -4.44911 
229 1 0.133333 0.6 0.116629 -4.44917 
230 1 0.166667 0.6 0.0578102 -4.408 
231 1 0.183333 0.55 0.116546 -4.44908 
233 1 0.166667 0.5 0.057808 -4.40803 
234 1 0.2 0.5 -0.00123662 -3.90358 
235 1 0.216667 0.45 0.0577419 -4.40802 
236 1 0.216667 0.55 0.0577461 -4.40799 
239 1 0.25 0.45 -0.00128571 -3.90355 
253 1 0.2 0.6 -0.00123107 -3.90357 
254 1 0.25 0.55 -0.00128004 -3.90357 
395 1 0.233333 0.6 0.116493 -4.44905 
398 1 0.233333 0.5 0.116493 -4.44907 
399 1 0.266667 0.5 0.0577065 -4.40801 
400 1 0.283333 0.45 0.116462 -4.44907 
401 1 0.283333 0.55 0.116466 -4.44907 
422 1 0.266667 0.6 0.0577127 -4.40799 
405 1 0.316667 0.45 0.0576946 -4.408 
423 1 0.3 0.6 -0.00130054 -3.90358 
424 1 0.316667 0.55 0.0576959 -4.40801 
426 1 0.3 0.5 -0.00130352 -3.90358 
427 1 0.35 0.45 -0.00130583 -3.9036 
428 1 0.35 0.55 -0.00130578 -3.9036 
562 1 0.333333 0.5 0.11646 -4.44908 
568 1 0.383333 0.45 0.116465 -4.44908 
589 1 0.333333 0.6 0.11646 -4.44908 
590 1 0.366667 0.6 0.0576958 -4.40801 
591 1 0.383333 0.55 0.116464 -4.44908 
593 1 0.366667 0.5 0.0576962 -4.40802 
594 1 0.4 0.5 -0.00129904 -3.9036 
595 1 0.416667 0.45 0.0577085 -4.40801 
596 1 0.416667 0.55 0.0577065 -4.40801 
599 1 0.45 0.45 -0.00127722 -3.90365 
613 1 0.4 0.6 -0.00130023 -3.9036 
614 1 0.45 0.55 -0.00128133 -3.90364 
755 1 0.433333 0.6 0.116476 -4.44907 
758 1 0.433333 0.5 0.116479 -4.44907 
759 1 0.466667 0.5 0.0577267 -4.40799 
760 1 0.483333 0.45 0.116498 -4.44908 
761 1 0.483333 0.55 0.116494 -4.44908 
782 1 0.466667 0.6 0.0577231 -4.408 
765 1 0.516667 0.45 0.0577406 -4.40803 
783 1 0.5 0.6 -0.00126518 -3.90366 
784 1 0.516667 0.55 0.0577379 -4.40804 
786 1 0.5 0.5 -0.00126198 -3.90366 
787 1 0.55 0.45 -0.00125795 -3.90356 
788 1 0.55 0.55 -0.00125711 -3.90359 
922 1 0.533333 0.5 0.116506 -4.4491 
928 1 0.583333 0.45 0.116526 -4.44929 
949 1 0.533333 0.6 0.116505 -4.44909 
950 1 0.566667 0.6 0.0577511 -4.40813 
951 1 0.583333 0.55 0.116524 -4.44929 
953 1 0.566667 0.5 0.0577536 -4.40815 
954 1 0.6 0.5 -0.00121127 -3.90345 
955 1 0.616667 0.45 0.0578002 -4.40884 
956 1 0.616667 0.55 0.0577952 -4.40883 
959 1 0.65 0.45 -0.00106892 -3.89016 
973 1 0.6 0.6 -0.00122182 -3.90351 
974 1 0.65 0.55 -0.00107869 -3.89034 
1113 1 0.633333 0.6 0.116552 -4.44807 
1116 1 0.633333 0.5 0.116561 -4.44828 
1117 1 0.666667 0.5 0.0579654 -4.37608 
1118 1 0.683333 0.45 0.116456 -4.44937 
1119 1 0.683333 0.55 0.116443 -4.44904 
1138 1 0.666667 0.6 0.0579531 -4.37616 
1123 1 0.716667 0.45 0.0574567 -4.2528 
1139 1 0.7 0.6 -0.000414596 -3.56244 
1140 1 0.716667 0.55 0.0574288 -4.25236 
1142 1 0.7 0.5 -0.00033841 -3.54827 
1273 1 0.733333 0.5 0.116375 -4.42742 
1279 1 0.783333 0.45 0.11613 -4.44052 
1300 1 0.733333 0.6 0.116331 -4.42863 
1301 1 0.766667 0.6 0.0563156 -4.19343 
1302 1 0.783333 0.55 0.116096 -4.44148 
1304 1 0.766667 0.5 0.0564586 -4.17757 
1305 1 0.8 0.5 -0.000403787 -3.54621 
1306 1 0.816667 0.45 0.05808 -4.34846 
1307 1 0.816667 0.55 0.0580435 -4.34862 
1310 1 0.85 0.45 -0.0010689 -3.89038 
1324 1 0.8 0.6 -0.000521885 -3.55946 
1325 1 0.85 0.55 -0.00109398 -3.89038 
1466 1 0.833333 0.6 0.1166 -4.44766 
1469 1 0.833333 0.5 0.11661 -4.44667 
1470 1 0.866667 0.5 0.0578484 -4.40915 
1471 1 0.883333 0.45 0.116671 -4.45015 
1472 1 0.883333 0.55 0.116627 -4.44992 
1493 1 0.866667 0.6 0.0578331 -4.40893 
1476 1 0.916667 0.45 0.0580443 -4.4059 
1494 1 0.9 0.6 -0.00107552 -3.90292 
1495 1 0.916667 0.55 0.0579547 -4.40719 
1497 1 0.9 0.5 -0.00103702 -3.90298 
1498 1 0.95 0.45 -0.000669901 -3.90441 
1499 1 0.95 0.55 -0.000921514 -3.90365 
1628 1 0.933333 0.5 0.116693 -4.434 
1634 1 0.983333 0.45 0.117654 -4.34304 
1649 1 0.933333 0.6 0.116737 -4.44914 
1650 1 0.966667 0.6 0.0580458 -4.40651 
1651 1 0.983333 0.55 0.116788 -4.43456 
1653 1 0.966667 0.5 0.0582715 -4.40775 
18 1 0 0.7 -0.000716381 -3.9039 
19 1 0.0166667 0.65 0.0581449 -4.40752 
20 1 0.0166667 0.75 0.0583767 -4.39882 
23 1 0.05 0.65 -0.000919055 -3.90356 
27 1 0 0.8 -0.000629302 -3.90258 
28 1 0.05 0.75 -0.000769707 -3.90383 
88 1 0.0333333 0.8 0.117733 -4.35803 
91 1 0.0333333 0.7 0.116932 -4.42393 
92 1 0.0666667 0.7 0.0580633 -4.40723 
93 1 0.0833333 0.65 0.116762 -4.44932 
94 1 0.0833333 0.75 0.11669 -4.4343 
107 1 0.0666667 0.8 0.0582264 -4.40893 
98 1 0.116667 0.65 0.0579048 -4.40816 
108 1 0.1 0.8 -0.00100081 -3.90399 
109 1 0.116667 0.75 0.0579014 -4.40713 
111 1 0.1 0.7 -0.00104974 -3.90351 
112 1 0.15 0.65 -0.00116359 -3.90353 
113 1 0.15 0.75 -0.00115888 -3.90343 
226 1 0.133333 0.7 0.116617 -4.44908 
232 1 0.183333 0.65 0.116548 -4.44906 
245 1 0.133333 0.8 0.116615 -4.44908 
246 1 0.166667 0.8 0.0578137 -4.40802 
247 1 0.183333 0.75 0.116548 -4.44907 
249 1 0.166667 0.7 0.0578121 -4.40803 
250 1 0.2 0.7 -0.00122509 -3.9036 
251 1 0.216667 0.65 0.0577525 -4.40799 
252 1 0.216667 0.75 0.0577588 -4.40799 
255 1 0.25 0.65 -0.00127263 -3.90359 
261 1 0.2 0.8 -0.00121945 -3.90363 
262 1 0.25 0.75 -0.00126975 -3.9036 
415 1 0.233333 0.8 0.116506 -4.44908 
418 1 0.233333 0.7 0.116503 -4.44907 
419 1 0.266667 0.7 0.0577173 -4.40801 
420 1 0.283333 0.65 0.116471 -4.44907 
421 1 0.283333 0.75 0.116473 -4.44908 
434 1 0.266667 0.8 0.0577184 -4.40802 
425 1 0.316667 0.65 0.0576973 -4.40801 
435 1 0.3 0.8 -0.0012985 -3.90357 
436 1 0.316667 0.75 0.0576979 -4.408 
438 1 0.3 0.7 -0.00129864 -3.90358 
439 1 0.35 0.65 -0.00130571 -3.90359 
440 1 0.35 0.75 -0.00130578 -3.90359 
586 1 0.333333 0.7 0.116461 -4.44908 
592 1 0.383333 0.65 0.116463 -4.44908 
605 1 0.333333 0.8 0.116461 -4.44908 
606 1 0.366667 0.8 0.0576953 -4.40801 
607 1 0.383333 0.75 0.116463 -4.44907 
609 1 0.366667 0.7 0.0576954 -4.40801 
610 1 0.4 0.7 -0.00130156 -3.9036 
611 1 0.416667 0.65 0.0577043 -4.40801 
612 1 0.416667 0.75 0.0577034 -4.40801 
615 1 0.45 0.65 -0.00128489 -3.90363 
621 1 0.4 0.8 -0.00130151 -3.90359 
622 1 0.45 0.75 -0.00128616 -3.90363 
775 1 0.433333 0.8 0.116474 -4.44907 
778 1 0.433333 0.7 0.116474 -4.44907 
779 1 0.466667 0.7 0.0577215 -4.408 
780 1 0.483333 0.65 0.116492 -4.44908 
781 1 0.483333 0.75 0.116491 -4.44908 
794 1 0.466667 0.8 0.0577215 -4.408 
785 1 0.516667 0.65 0.0577368 -4.40802 
795 1 0.5 0.8 -0.00126523 -3.90367 
796 1 0.516667 0.75 0.0577363 -4.40801 
798 1 0.5 0.7 -0.00126526 -3.90367 
799 1 0.55 0.65 -0.00125728 -3.90361 
800 1 0.55 0.75 -0.00125901 -3.90361 
946 1 0.533333 0.7 0.116503 -4.44908 
952 1 0.583333 0.65 0.116517 -4.44921 
965 1 0.533333 0.8 0.116503 -4.44908 
966 1 0.566667 0.8 0.0577463 -4.40807 
967 1 0.583333 0.75 0.116512 -4.44917 
969 1 0.566667 0.7 0.0577463 -4.40807 
970 1 0.6 0.7 -0.00123739 -3.9035 
971 1 0.616667 0.65 0.0577768 -4.40857 
972 1 0.616667 0.75 0.0577589 -4.40852 
975 1 0.65 0.65 -0.00113241 -3.88968 
981 1 0.6 0.8 -0.00123723 -3.9035 
982 1 0.65 0.75 -0.0012004 -3.90414 
1131 1 0.633333 0.8 0.116521 -4.44885 
1134 1 0.633333 0.7 0.116521 -4.44885 
1135 1 0.666667 0.7 0.0578146 -4.39258 
1136 1 0.683333 0.65 0.116404 -4.45021 
1137 1 0.683333 0.75 0.116518 -4.44892 
1148 1 0.666667 0.8 0.0578147 -4.39259 
1141 1 0.716667 0.65 0.0572697 -4.28175 
1149 1 0.7 0.8 -0.000808786 -3.72306 
1150 1 0.716667 0.75 0.0579241 -4.35199 
1152 1 0.7 0.7 -0.000808774 -3.72305 
1153 1 0.75 0.75 -0.000376693 -3.57842 
1297 1 0.733333 0.7 0.116486 -4.43843 
1303 1 0.783333 0.65 0.116317 -4.43945 
1316 1 0.733333 0.8 0.116486 -4.43844 
1317 1 0.766667 0.8 0.0574461 -4.27878 
1318 1 0.783333 0.75 0.116379 -4.45 
1320 1 0.766667 0.7 0.0574484 -4.27878 
1321 1 0.8 0.7 -0.000606992 -3.72431 
1322 1 0.816667 0.65 0.0579947 -4.36463 
1323 1 0.816667 0.75 0.0580629 -4.3768 
1326 1 0.85 0.65 -0.00109262 -3.88977 
1332 1 0.8 0.8 -0.000612211 -3.7243 
1333 1 0.85 0.75 -0.00104969 -3.90442 
1486 1 0.833333 0.8 0.116627 -4.44748 
1489 1 0.833333 0.7 0.116636 -4.44746 
1490 1 0.866667 0.7 0.0578858 -4.40884 
1491 1 0.883333 0.65 0.116639 -4.44971 
1492 1 0.883333 0.75 0.116678 -4.44962 
1505 1 0.866667 0.8 0.0578881 -4.40899 
1496 1 0.916667 0.65 0.0579625 -4.40721 
1506 1 0.9 0.8 -0.00102838 -3.9032 
1507 1 0.916667 0.75 0.0580183 -4.40722 
1509 1 0.9 0.7 -0.00104167 -3.9033 
1510 1 0.95 0.65 -0.000912382 -3.90389 
1511 1 0.95 0.75 -0.000790211 -3.90371 
1646 1 0.933333 0.7 0.116727 -4.43428 
1652 1 0.983333 0.65 0.116826 -4.43455 
1659 1 0.933333 0.8 0.116831 -4.42378 
1660 1 0.966667 0.8 0.058328 -4.39879 
1661 1 0.983333 0.75 0.117768 -4.3582 
1663 1 0.966667 0.7 0.058288 -4.40906 
24 1 0 0.9 -0.000770964 -3.90383 
25 1 0.0166667 0.85 0.0583379 -4.39878 
26 1 0.0166667 0.95 0.0580811 -4.40716 
29 1 0.05 0.85 -0.000797738 -3.90376 
30 1 0.05 0.95 -0.000959854 -3.90361 
103 1 0.0333333 0.9 0.116863 -4.42374 
104 1 0.0666667 0.9 0.0580305 -4.40725 
105 1 0.0833333 0.85 0.116681 -4.43441 
106 1 0.0833333 0.95 0.116712 -4.44917 
110 1 0.116667 0.85 0.0578929 -4.40717 
114 1 0.116667 0.95 0.0578911 -4.40813 
115 1 0.1 0.9 -0.00106762 -3.90353 
116 1 0.15 0.85 -0.00115699 -3.90345 
117 1 0.15 0.95 -0.00116411 -3.9036 
242 1 0.133333 0.9 0.116612 -4.44914 
248 1 0.183333 0.85 0.116552 -4.44908 
256 1 0.183333 0.95 0.116548 -4.44907 
257 1 0.166667 0.9 0.057814 -4.40803 
258 1 0.2 0.9 -0.00122069 -3.90363 
259 1 0.216667 0.85 0.0577603 -4.408 
260 1 0.216667 0.95 0.0577574 -4.408 
263 1 0.25 0.85 -0.0012694 -3.90359 
264 1 0.25 0.95 -0.00127161 -3.90359 
430 1 0.233333 0.9 0.116506 -4.44908 
431 1 0.266667 0.9 0.0577179 -4.40802 
432 1 0.283333 0.85 0.116475 -4.44908 
433 1 0.283333 0.95 0.116473 -4.44908 
437 1 0.316667 0.85 0.0576979 -4.40801 
441 1 0.316667 0.95 0.0576983 -4.40801 
442 1 0.3 0.9 -0.00129898 -3.90357 
443 1 0.35 0.85 -0.00130585 -3.90359 
444 1 0.35 0.95 -0.00130474 -3.90359 
602 1 0.333333 0.9 0.116461 -4.44908 
608 1 0.383333 0.85 0.116464 -4.44907 
616 1 0.383333 0.95 0.116465 -4.44907 
617 1 0.366667 0.9 0.0576961 -4.40801 
618 1 0.4 0.9 -0.00130022 -3.9036 
619 1 0.416667 0.85 0.0577043 -4.40801 
620 1 0.416667 0.95 0.0577066 -4.40801 
623 1 0.45 0.85 -0.00128487 -3.90363 
624 1 0.45 0.95 -0.00128126 -3.90364 
790 1 0.433333 0.9 0.116476 -4.44907 
791 1 0.466667 0.9 0.0577231 -4.408 
792 1 0.483333 0.85 0.116492 -4.44908 
793 1 0.483333 0.95 0.116494 -4.44908 
797 1 0.516667 0.85 0.0577369 -4.40802 
801 1 0.516667 0.95 0.057738 -4.40804 
802 1 0.5 0.9 -0.00126511 -3.90366 
803 1 0.55 0.85 -0.00125716 -3.90361 
804 1 0.55 0.95 -0.00125692 -3.90359 
962 1 0.533333 0.9 0.116505 -4.44909 
968 1 0.583333 0.85 0.116517 -4.44921 
976 1 0.583333 0.95 0.116524 -4.44929 
977 1 0.566667 0.9 0.0577513 -4.40813 
978 1 0.6 0.9 -0.00122149 -3.90351 
979 1 0.616667 0.85 0.0577773 -4.40857 
980 1 0.616667 0.95 0.0577956 -4.40883 
983 1 0.65 0.85 -0.00113189 -3.88969 
984 1 0.65 0.95 -0.0010784 -3.89035 
1144 1 0.633333 0.9 0.116552 -4.44807 
1145 1 0.666667 0.9 0.0579532 -4.37617 
1146 1 0.683333 0.85 0.116404 -4.4502 
1147 1 0.683333 0.95 0.116444 -4.44903 
1151 1 0.716667 0.85 0.0572695 -4.28174 
1154 1 0.716667 0.95 0.0574275 -4.25234 
1155 1 0.7 0.9 -0.000414726 -3.56247 
1313 1 0.733333 0.9 0.116329 -4.42865 
1319 1 0.783333 0.85 0.116311 -4.43948 
1327 1 0.783333 0.95 0.116079 -4.44151 
1328 1 0.766667 0.9 0.056302 -4.19345 
1329 1 0.8 0.9 -0.000538624 -3.5594 
1330 1 0.816667 0.85 0.0579796 -4.36462 
1331 1 0.816667 0.95 0.0580218 -4.3486 
1334 1 0.85 0.85 -0.00110489 -3.88975 
1335 1 0.85 0.95 -0.00111563 -3.89042 
1501 1 0.833333 0.9 0.116578 -4.44763 
1502 1 0.866667 0.9 0.0578257 -4.40899 
1503 1 0.883333 0.85 0.116653 -4.44979 
1504 1 0.883333 0.95 0.116609 -4.44981 
1508 1 0.916667 0.85 0.0579976 -4.40722 
1512 1 0.916667 0.95 0.0579342 -4.40711 
1513 1 0.9 0.9 -0.00107469 -3.90321 
1514 1 0.95 0.85 -0.000811359 -3.90371 
1515 1 0.95 0.95 -0.000950124 -3.90409 
1656 1 0.933333 0.9 0.116681 -4.43425 
1662 1 0.983333 0.85 0.117707 -4.35792 
1664 1 0.983333 0.95 0.116741 -4.43431 
1665 1 0.966667 0.9 0.0582352 -4.40885 
31 1 0 0.1 0.175671 -4.44989 
32 1 0.0166667 0.05 0.234519 -4.44101 
33 1 0.0166667 0.15 0.23456 -4.42608 
34 1 0 0 0.175611 -4.45121 
36 1 0.05 0.05 0.175616 -4.45003 
39 1 0 0.2 0.175608 -4.35373 
41 1 0.05 0.15 0.175653 -4.43731 
131 1 0.0666667 0.1 0.234478 -4.45084 
134 1 0.0666667 0 0.234326 -4.44956 
148 1 0.0666667 0.2 0.234341 -4.43433 
135 1 0.1 0 0.175461 -4.45022 
136 1 0.116667 0.05 0.234224 -4.44927 
149 1 0.1 0.2 0.175438 -4.45133 
150 1 0.116667 0.15 0.234212 -4.44936 
152 1 0.1 0.1 0.175493 -4.45056 
154 1 0.15 0.05 0.175385 -4.45011 
155 1 0.15 0.15 0.175379 -4.45007 
288 1 0.166667 0 0.234166 -4.44997 
304 1 0.166667 0.2 0.234158 -4.45001 
307 1 0.166667 0.1 0.234164 -4.45001 
308 1 0.2 0.1 0.175322 -4.45021 
309 1 0.216667 0.05 0.234119 -4.44996 
310 1 0.216667 0.15 0.23412 -4.44996 
311 1 0.2 0 0.17533 -4.45021 
313 1 0.25 0.05 0.175292 -4.45021 
335 1 0.2 0.2 0.175326 -4.45026 
337 1 0.25 0.15 0.175286 -4.4502 
475 1 0.266667 0.1 0.234098 -4.44996 
478 1 0.266667 0 0.234105 -4.44997 
498 1 0.266667 0.2 0.234094 -4.44996 
479 1 0.3 0 0.17528 -4.45023 
480 1 0.316667 0.05 0.234097 -4.44997 
499 1 0.3 0.2 0.175276 -4.45021 
500 1 0.316667 0.15 0.234095 -4.44996 
502 1 0.3 0.1 0.175278 -4.45022 
504 1 0.35 0.05 0.175277 -4.45022 
505 1 0.35 0.15 0.175277 -4.45023 
648 1 0.366667 0 0.234098 -4.44997 
664 1 0.366667 0.2 0.234098 -4.44997 
667 1 0.366667 0.1 0.234099 -4.44997 
668 1 0.4 0.1 0.175284 -4.45022 
669 1 0.416667 0.05 0.234108 -4.44996 
670 1 0.416667 0.15 0.234109 -4.44996 
671 1 0.4 0 0.175283 -4.45022 
673 1 0.45 0.05 0.175299 -4.45021 
695 1 0.4 0.2 0.175284 -4.45022 
697 1 0.45 0.15 0.175302 -4.45021 
835 1 0.466667 0.1 0.234124 -4.44996 
838 1 0.466667 0 0.234121 -4.44996 
858 1 0.466667 0.2 0.234127 -4.44995 
839 1 0.5 0 0.175311 -4.45022 
840 1 0.516667 0.05 0.234133 -4.44997 
859 1 0.5 0.2 0.175319 -4.45021 
860 1 0.516667 0.15 0.234137 -4.44997 
862 1 0.5 0.1 0.175314 -4.45022 
864 1 0.55 0.05 0.175321 -4.45026 
865 1 0.55 0.15 0.175324 -4.45025 
1008 1 0.566667 0 0.234139 -4.44995 
1024 1 0.566667 0.2 0.234143 -4.44994 
1027 1 0.566667 0.1 0.23414 -4.44995 
1028 1 0.6 0.1 0.175336 -4.45009 
1029 1 0.616667 0.05 0.234141 -4.44995 
1030 1 0.616667 0.15 0.23414 -4.44996 
1031 1 0.6 0 0.175334 -4.45009 
1033 1 0.65 0.05 0.175319 -4.45055 
1055 1 0.6 0.2 0.175336 -4.4501 
1057 1 0.65 0.15 0.175317 -4.45055 
1186 1 0.666667 0.1 0.234103 -4.44985 
1189 1 0.666667 0 0.234101 -4.44983 
1209 1 0.666667 0.2 0.234099 -4.44987 
1190 1 0.7 0 0.175232 -4.44972 
1191 1 0.716667 0.05 0.234026 -4.45009 
1210 1 0.7 0.2 0.175234 -4.44978 
1211 1 0.716667 0.15 0.234025 -4.45009 
1213 1 0.7 0.1 0.175239 -4.44978 
1215 1 0.75 0.05 0.175123 -4.44805 
1216 1 0.75 0.15 0.175129 -4.44809 
1359 1 0.766667 0 0.233969 -4.45008 
1375 1 0.766667 0.2 0.233977 -4.45003 
1378 1 0.766667 0.1 0.233977 -4.45001 
1379 1 0.8 0.1 0.175149 -4.45058 
1380 1 0.816667 0.05 0.234056 -4.45007 
1381 1 0.816667 0.15 0.23406 -4.45007 
1382 1 0.8 0 0.175137 -4.45076 
1384 1 0.85 0.05 0.175381 -4.44981 
1406 1 0.8 0.2 0.175146 -4.45065 
1408 1 0.85 0.15 0.175382 -4.44975 
1546 1 0.866667 0.1 0.234205 -4.44997 
1549 1 0.866667 0 0.234195 -4.44992 
1569 1 0.866667 0.2 0.234192 -4.44995 
1550 1 0.9 0 0.175423 -4.45016 
1551 1 0.916667 0.05 0.234252 -4.44952 
1570 1 0.9 0.2 0.175427 -4.45148 
1571 1 0.916667 0.15 0.234238 -4.44969 
1573 1 0.9 0.1 0.175432 -4.45024 
1575 1 0.95 0.05 0.175559 -4.44979 
1576 1 0.95 0.15 0.175526 -4.43728 
1689 1 0.966667 0 0.234431 -4.45022 
1705 1 0.966667 0.2 0.234368 -4.42577 
1708 1 0.966667 0.1 0.23447 -4.44097 
37 1 0.0166667 0.25 0.233474 -4.34311 
38 1 0.0166667 0.35 0.231941 -4.26648 
42 1 0.05 0.25 0.175556 -4.33954 
54 1 0.05 0.35 0.175362 -4.24302 
145 1 0.0666667 0.3 0.234193 -4.40993 
169 1 0.0666667 0.4 0.2342 -4.40996 
151 1 0.116667 0.25 0.234161 -4.45043 
170 1 0.1 0.4 0.175368 -4.43901 
171 1 0.116667 0.35 0.23412 -4.45056 
173 1 0.1 0.3 0.175362 -4.43897 
175 1 0.15 0.25 0.175356 -4.45012 
176 1 0.15 0.35 0.175345 -4.4501 
328 1 0.166667 0.4 0.234145 -4.44999 
331 1 0.166667 0.3 0.234142 -4.45 
332 1 0.2 0.3 0.175323 -4.45028 
333 1 0.216667 0.25 0.234125 -4.44998 
334 1 0.216667 0.35 0.234127 -4.45 
338 1 0.25 0.25 0.175287 -4.45023 
366 1 0.2 0.4 0.175325 -4.45029 
368 1 0.25 0.35 0.175288 -4.45025 
495 1 0.266667 0.3 0.234097 -4.44998 
526 1 0.266667 0.4 0.234096 -4.44997 
501 1 0.316667 0.25 0.234092 -4.44996 
527 1 0.3 0.4 0.175271 -4.45021 
528 1 0.316667 0.35 0.234088 -4.44996 
530 1 0.3 0.3 0.175273 -4.45021 
532 1 0.35 0.25 0.175275 -4.45022 
533 1 0.35 0.35 0.175274 -4.45022 
688 1 0.366667 0.4 0.234097 -4.44996 
691 1 0.366667 0.3 0.234098 -4.44996 
692 1 0.4 0.3 0.175284 -4.45022 
693 1 0.416667 0.25 0.234109 -4.44996 
694 1 0.416667 0.35 0.234109 -4.44996 
698 1 0.45 0.25 0.175303 -4.45021 
726 1 0.4 0.4 0.175283 -4.45022 
728 1 0.45 0.35 0.175302 -4.45021 
855 1 0.466667 0.3 0.234127 -4.44996 
886 1 0.466667 0.4 0.234124 -4.44996 
861 1 0.516667 0.25 0.234138 -4.44997 
887 1 0.5 0.4 0.175314 -4.45022 
888 1 0.516667 0.35 0.234136 -4.44997 
890 1 0.5 0.3 0.175319 -4.45021 
892 1 0.55 0.25 0.175325 -4.45025 
893 1 0.55 0.35 0.175324 -4.45025 
1048 1 0.566667 0.4 0.23414 -4.44995 
1051 1 0.566667 0.3 0.234143 -4.44994 
1052 1 0.6 0.3 0.175336 -4.4501 
1053 1 0.616667 0.25 0.23414 -4.44995 
1054 1 0.616667 0.35 0.234139 -4.44997 
1058 1 0.65 0.25 0.175316 -4.45055 
1086 1 0.6 0.4 0.175336 -4.45009 
1088 1 0.65 0.35 0.175317 -4.45055 
1206 1 0.666667 0.3 0.234099 -4.44986 
1237 1 0.666667 0.4 0.234102 -4.44985 
1212 1 0.716667 0.25 0.234025 -4.4501 
1238 1 0.7 0.4 0.17524 -4.44978 
1239 1 0.716667 0.35 0.234029 -4.4501 
1241 1 0.7 0.3 0.175235 -4.44978 
1243 1 0.75 0.25 0.175131 -4.4481 
1244 1 0.75 0.35 0.17514 -4.4481 
1399 1 0.766667 0.4 0.233991 -4.45002 
1402 1 0.766667 0.3 0.233985 -4.45003 
1403 1 0.8 0.3 0.175153 -4.45069 
1404 1 0.816667 0.25 0.234061 -4.4501 
1405 1 0.816667 0.35 0.234067 -4.45012 
1409 1 0.85 0.25 0.175385 -4.44966 
1437 1 0.8 0.4 0.175164 -4.45064 
1439 1 0.85 0.35 0.1754 -4.44967 
1566 1 0.866667 0.3 0.234197 -4.44993 
1597 1 0.866667 0.4 0.234208 -4.44994 
1572 1 0.916667 0.25 0.234251 -4.4347 
1598 1 0.9 0.4 0.17551 -4.43895 
1599 1 0.916667 0.35 0.234362 -4.41987 
1601 1 0.9 0.3 0.175499 -4.43892 