# LAMMPS data file

12 atoms
12 atom types

0.0  6.3806314468 xlo xhi
0.0  2.7628941536 ylo yhi
0.0 14.8790035248 zlo zhi

Masses

1  32.065  # S1
2  95.94   # Mo1
3  32.065  # S2
4  32.065  # S3
5  95.94   # Mo2
6  32.065  # S4
7  32.065  # S5
8  95.94   # Mo3
9  32.065  # S6
10 32.065  # S7
11 95.94   # Mo4
12 32.065  # S8

Atoms  # atomic

1   1 1.595157766  0.9209647446  2.1548664901
2   2 0.0          1.8419294919  3.7197508812
3   3 1.595157766  0.9209647446  5.2846352723
4   4 4.7854739679 0.9209647446  2.1548664901
5   5 3.190315532  1.8419294919  3.7197508812
6   6 4.7854739679 0.9209647446  5.2846352723
7   7 0.0          1.8419294919  9.5943682525
8   8 1.595157766  0.9209647446 11.1592535363
9   9 0.0          1.8419294919 12.7241370347
10 10 3.190315532  1.8419294919  9.5943682525
11 11 4.7854739679 0.9209647446 11.1592535363
12 12 3.190315532  1.8419294919 12.7241370347
