# LAMMPS data file

12 atoms
2 atom types

0.0  6.3806314468 xlo xhi
0.0  2.7628941536 ylo yhi
0.0 14.8790035248 zlo zhi

Masses

1  95.94   # Mo
2  32.065  # S

Atoms  # atomic

1   2 1.595157766  0.9209647446  2.1548664901
2   1 0.0          1.8419294919  3.7197508812
3   2 1.595157766  0.9209647446  5.2846352723
4   2 4.7854739679 0.9209647446  2.1548664901
5   1 3.190315532  1.8419294919  3.7197508812
6   2 4.7854739679 0.9209647446  5.2846352723
7   2 0.0          1.8419294919  9.5943682525
8   1 1.595157766  0.9209647446 11.1592535363
9   2 0.0          1.8419294919 12.7241370347
10  2 3.190315532  1.8419294919  9.5943682525
11  1 4.7854739679 0.9209647446 11.1592535363
12  2 3.190315532  1.8419294919 12.7241370347
