# LAMMPS data file written by OVITO Basic 3.8.4

2 atoms
2 atom types

0.0 3.3128 xlo xhi
0.0 3.3128 ylo yhi
0.0 3.3128 zlo zhi

Masses

1 24.305  # Mg
2 26.982  # Ag

Atoms  # atomic

1 1 0.0 0.0 0.0
2 2 1.6564 1.6564 1.6564
