# LAMMPS data file written by OVITO Basic 3.8.4

4 atoms
1 atom types

0.0 3.957066 xlo xhi
0.0 3.957066 ylo yhi
0.0 3.957066 zlo zhi

Masses

1 106.42  # Pd

Atoms  # atomic

1 1 0.0 0.0 0.0
2 1 0.0 1.978533 1.978533
3 1 1.978533 0.0 1.978533
4 1 1.978533 1.978533 0.0
