# LAMMPS data file written by OVITO Basic 3.8.4

4 atoms
1 atom types

0.0 3.97677 xlo xhi
0.0 3.97677 ylo yhi
0.0 3.97677 zlo zhi

Masses

1 195.078  # Pt

Atoms  # atomic

1 1 0.0 0.0 0.0
2 1 0.0 1.988385 1.988385
3 1 1.988385 0.0 1.988385
4 1 1.988385 1.988385 0.0
