ITEM: TIMESTEP
0
ITEM: NUMBER OF ATOMS
4320
ITEM: BOX BOUNDS xy xz yz pp pp pp
-1.1601679645205998e-01 2.1706416796452423e+01 0.0000000000000000e+00
-1.2503789183492131e-01 2.1715437891835464e+01 0.0000000000000000e+00
-1.2670039837679070e+00 1.0430700398376690e+02 0.0000000000000000e+00
ITEM: ATOMS id type x y z c_peratom fx fy fz 
662 2 7.82519 2.33545 15.99 -29.3066 -1.38844 0.872911 -0.10944 
222 1 0.758122 0.79671 6.41406 -8.73937 0.43868 0.415874 -0.633697 
39 1 2.44765 6.96453 -0.749822 -8.49398 2.24298 0.342858 -0.591731 
42 1 0.889912 3.95202 1.56782 -8.75046 -0.205382 -0.38894 0.844536 
258 1 0.519071 4.6019 6.941 -8.12744 0.682895 -1.01139 -0.802433 
474 1 0.780858 4.834 12.5039 -8.61169 0.0681813 1.66661 -1.10553 
4115 1 4.92835 0.949148 -1.0132 -8.09345 0.843921 -2.15367 0.179411 
294 1 0.747574 8.11532 6.30732 -7.99944 0.802077 -2.14365 -0.506602 
510 1 1.28683 7.90417 11.6472 -8.15682 -0.538456 -3.19349 0.426286 
722 2 0.610409 9.63026 15.8044 -28.3135 0.250994 2.01972 -0.158871 
228 1 4.09948 0.880886 7.0134 -7.53102 1.07069 1.31265 -0.303557 
444 1 4.3071 1.13827 12.2246 -8.13749 -0.215493 0.707631 1.46795 
48 1 3.75052 4.54784 0.820703 -8.46541 0.248802 -1.03965 -0.11588 
264 1 4.36228 4.48359 6.18463 -8.43362 2.66067 -0.645199 0.40983 
480 1 5.2126 4.1212 11.2517 -7.63068 -1.87966 0.949388 1.25993 
84 1 4.33593 7.46757 1.94084 -7.17902 1.59853 1.44528 -1.85831 
300 1 4.14941 7.94646 6.99858 -7.61366 0.0561428 1.85481 1.24888 
516 1 4.36303 8.33911 12.2481 -8.12166 -2.40648 -0.039292 1.97089 
18 1 7.38642 0.749333 0.843305 -7.80546 -0.0871882 -0.191688 -0.711979 
234 1 7.93745 0.666307 6.3984 -7.24281 -0.146637 -0.898973 -0.865702 
450 1 8.61327 0.608684 11.8084 -7.61788 -1.92211 -0.0116428 -2.00887 
54 1 8.16529 3.77139 2.20263 -7.54552 -1.85128 -0.869193 -1.89562 
270 1 7.79946 4.51492 7.06239 -8.39449 -0.831911 0.161293 -2.06929 
486 1 7.87812 4.71278 12.4264 -7.91688 -0.583016 0.639287 -1.36116 
90 1 7.64839 8.06936 0.899477 -7.68773 -0.531171 -0.765303 1.7593 
306 1 7.93366 8.1164 6.3428 -8.68764 -1.14656 -0.567078 0.534655 
522 1 8.50189 7.73359 11.5103 -7.90386 0.574033 0.907806 -0.563825 
5 1 0.934376 1.71326 3.59371 -8.33938 0.422752 -0.921715 -1.20671 
4145 1 1.51701 4.45459 -0.929556 -8.00295 0.277909 0.117339 0.892614 
698 2 7.67861 6.11542 16.0052 -30.062 1.85482 -1.25791 -1.54245 
41 1 1.48161 4.6974 4.44553 -7.87471 1.38496 -2.24058 -0.189908 
4187 1 5.21252 8.17144 -0.580113 -8.21472 -1.19614 -0.795616 -1.52396 
527 1 10.5774 7.95618 15.0323 -7.48242 -1.14593 0.383725 -0.854026 
77 1 0.822615 8.76969 3.45504 -8.35784 -0.687777 0.905297 0.0190947 
293 1 0.728804 6.82771 8.92396 -7.68318 -1.78981 2.39435 -1.64946 
509 1 0.571731 7.29031 14.2008 -8.02921 1.97781 -0.440962 -0.167125 
11 1 5.57896 0.966767 4.43052 -8.13437 -1.90415 0.73044 2.18423 
227 1 3.23258 0.678919 9.81187 -8.02585 -0.645901 0.564711 -0.526432 
443 1 3.1144 0.688858 15.2102 -8.15269 2.2829 -1.12718 -0.43851 
47 1 4.33628 5.33896 3.45769 -7.77109 0.415089 -2.54614 2.18711 
263 1 4.18408 3.74163 8.87038 -8.2345 1.27932 -1.44712 -1.34244 
479 1 4.2244 3.30852 14.2236 -8.56611 0.619785 1.12786 -1.00226 
83 1 5.34753 7.99305 4.68225 -8.08385 0.921563 1.30382 0.0910588 
299 1 3.24555 7.86775 9.83074 -7.77494 0.42595 -0.657908 -1.1743 
515 1 3.30917 7.91479 15.0661 -8.91899 0.658972 0.330501 0.369316 
17 1 8.19062 1.39723 3.60083 -7.99317 1.57193 1.68923 0.643755 
239 1 10.6995 0.478898 9.86086 -8.45031 0.785299 -0.312203 -0.537354 
12 1 4.5705 0.0775398 1.80061 -7.44175 -0.376645 1.37086 -0.625135 
53 1 9.09608 4.63708 4.626 -8.03346 -2.10638 -0.561917 1.90247 
269 1 7.24023 4.08239 9.60914 -7.31805 -0.252077 0.721185 0.246335 
485 1 7.06399 4.20352 15.2156 -7.59869 -0.172925 -2.01331 -1.80633 
89 1 7.97881 8.88563 3.52155 -8.65762 0.38157 0.05503 0.242244 
305 1 8.09784 7.07187 8.90448 -8.11999 -2.62625 2.18108 -1.51949 
521 1 7.81601 6.95421 14.0898 -7.44555 0.464702 0.717094 -0.574291 
2 2 1.08234 2.6606 -0.0574495 -28.5594 -1.67478 -0.58766 -0.718698 
218 2 0.653914 2.67494 5.30991 -28.4431 1.21626 0.843176 1.11963 
434 2 0.821163 2.65754 10.3661 -27.8067 -1.5189 -0.833377 2.20661 
78 1 0.476372 8.1042 0.8687 -8.18687 -0.507011 0.161949 1.2038 
38 2 0.929057 6.18789 0.247056 -28.703 -0.387777 -0.726488 -1.03364 
254 2 0.772096 6.29937 5.30764 -28.7142 0.701845 0.420932 -0.68167 
470 2 1.01531 6.01713 10.7919 -28.1809 -1.67237 0.803211 -1.04658 
4157 1 8.66944 4.61033 -0.72637 -8.44065 1.03232 -2.01489 -1.22131 
74 2 0.831562 10.0904 0.150618 -29.0859 -0.463625 -0.42312 -0.841663 
290 2 0.944905 10.0818 5.10267 -28.8537 -1.67396 -0.349553 1.01279 
506 2 0.663118 9.60507 10.5388 -29.0913 -1.05715 0.566605 -0.836928 
448 1 9.81903 2.80023 11.5336 -7.92029 -1.72497 1.0573 1.29083 
8 2 4.61471 2.43347 0.217913 -28.4227 0.842567 1.52947 -0.80339 
224 2 4.42458 2.63626 4.96432 -27.6621 -0.259733 -0.583458 2.5377 
440 2 4.26357 2.3421 10.4055 -28.7098 -0.0850292 1.13659 1.52066 
728 2 4.55398 9.66066 16.1902 -29.0024 0.150297 0.342725 -1.03417 
44 2 4.36086 6.28377 -0.164062 -28.708 1.81984 0.343405 2.26577 
260 2 4.31537 6.38324 5.5263 -28.9764 -1.25477 0.833241 -1.94435 
476 2 4.37234 6.14559 10.5663 -28.7068 -1.42503 0.0539658 1.08963 
232 1 9.63842 2.48171 6.54417 -7.32424 1.03513 0.595718 -1.95587 
80 2 4.51518 10.0025 -0.0874315 -28.2124 -0.117925 -0.132377 0.162026 
296 2 4.56068 9.77933 5.57783 -28.825 -0.949104 -0.732398 -0.523448 
512 2 4.11467 9.55727 10.5845 -29.1527 0.838983 0.602754 -0.486289 
438 1 1.08234 0.817454 11.6261 -8.59602 -0.32409 0.0193145 -0.225853 
14 2 8.03526 2.84592 0.103974 -28.5352 -0.780953 -1.31702 0.855715 
230 2 7.73787 2.54631 5.47026 -28.4982 2.33493 -0.806756 0.970704 
446 2 7.92797 2.20129 10.7083 -29.4005 -0.820902 1.45868 -1.64259 
335 1 4.25195 10.6754 8.84296 -7.84889 0.867882 -0.169237 0.414947 
50 2 8.21925 6.30791 0.159463 -29.7114 -0.546011 0.578874 0.0187 
266 2 8.03235 6.19996 5.4544 -27.7604 0.508212 0.162487 -0.195239 
482 2 7.73774 5.91404 10.5411 -29.1739 0.508692 -0.397529 0.425174 
297 1 6.12718 10.6039 4.46634 -8.4266 1.96558 -0.493669 -0.40857 
86 2 7.98663 9.81933 -0.0209929 -29.4573 2.15645 0.83902 1.65926 
302 2 8.00121 9.80023 5.25908 -27.8775 0.64186 1.94152 0.905182 
518 2 7.93175 9.69702 10.5817 -28.3558 -1.35286 -0.838999 1.51803 
51 1 10.0545 7.10242 -0.584361 -7.56997 0.367183 -1.20703 -0.287361 
1 2 2.53413 0.85618 2.42339 -28.554 0.818579 -1.70658 1.70998 
217 2 2.16884 0.69686 7.85585 -28.0793 3.23331 0.261752 0.458776 
433 2 2.38496 0.795865 13.2005 -28.6011 0.849839 1.0595 0.836645 
37 2 2.66588 4.44367 2.64889 -28.4454 -0.94812 1.89466 0.266081 
253 2 2.49124 4.41797 7.8084 -28.7578 -0.540696 -1.30655 -0.252363 
469 2 2.59715 4.28031 13.3513 -28.2204 -1.03424 -1.71598 0.779434 
73 2 2.65662 8.25993 2.69814 -29.3753 0.161514 -1.6349 -0.729427 
289 2 2.14418 7.87726 7.82918 -28.7978 1.55903 1.75242 1.14291 
505 2 2.5209 8.07767 13.3799 -27.5709 -1.42979 0.0786058 -2.70876 
7 2 6.55526 0.758469 2.77168 -29.0558 -1.72501 -0.182339 -2.6072 
223 2 5.9537 0.543071 7.87659 -28.6385 1.3512 -0.568013 0.778147 
439 2 6.07883 0.666633 13.2303 -28.3321 1.08355 -0.717153 -1.19009 
43 2 6.03782 4.58898 2.54292 -28.7831 0.773913 -0.355157 -0.651412 
259 2 5.83068 4.38822 7.85374 -28.2549 1.73511 -0.516078 0.969665 
475 2 6.04152 4.24051 13.121 -28.5351 -0.335352 0.550568 1.49293 
79 2 6.14092 8.19571 2.85294 -28.8582 -1.15322 0.505702 -2.7423 
295 2 6.20972 7.93521 7.97514 -28.0238 -0.784943 -2.54922 1.03983 
511 2 6.10985 7.75672 13.1367 -29.0099 1.19973 1.90071 2.93047 
13 2 10.054 0.862318 2.70201 -28.2631 0.132116 0.572429 1.53157 
229 2 9.72548 0.6016 8.03583 -29.5164 -1.50126 1.2705 -1.39105 
445 2 9.95683 0.800503 13.3494 -29.5587 -0.673166 -1.32547 -2.40721 
49 2 9.90472 4.35435 2.91806 -29.1459 0.747025 -1.10781 -1.92914 
265 2 9.57449 4.43453 8.03481 -29.2673 -0.0625137 -2.8384 -1.3404 
481 2 9.50819 4.15913 13.3857 -29.18 0.834667 0.59983 0.463121 
85 2 9.78717 8.14614 2.66696 -28.8176 -0.302491 -1.00849 -1.96869 
301 2 9.62424 8.03657 7.79578 -29.0117 1.85624 1.16964 0.738975 
517 2 9.54774 7.88064 13.2671 -29.5825 0.221489 -0.192338 0.326621 
692 2 4.08093 6.18439 15.936 -28.6702 1.04778 0.454022 1.70141 
219 1 3.50245 2.70278 3.2712 -9.01117 -0.870646 -0.272342 -0.388964 
435 1 1.86257 2.65196 8.65782 -8.90752 -1.48365 -1.62347 0.113848 
651 1 1.57248 2.54486 14.1589 -7.50959 0.131299 0.111853 -1.19365 
268 1 9.79422 6.28035 6.92585 -8.02156 -0.606311 -1.29425 0.0824345 
255 1 2.71532 7.31617 4.52974 -7.47013 -0.610435 -0.322314 1.6103 
471 1 2.49021 5.36136 9.71996 -7.7847 1.49356 -1.14169 1.06007 
687 1 2.29727 5.32314 15.1926 -8.51235 1.29527 -0.0395615 -1.84324 
650 2 0.587572 2.70725 16.072 -28.8781 -1.60041 -0.568839 -2.27061 
291 1 3.59555 9.80703 3.60025 -8.4798 -0.373142 1.59533 -0.10222 
507 1 1.67632 9.71232 8.71157 -7.90801 -0.229537 -0.639471 0.304719 
723 1 1.47126 9.84897 13.8973 -8.41675 0.895348 -0.531884 1.85218 
88 1 9.82254 9.44737 0.962824 -7.39634 0.356853 0.296696 0.700202 
225 1 6.35904 3.51295 4.3616 -8.94201 -0.661643 1.03027 1.7468 
441 1 5.99709 1.466 10.0887 -7.93017 0.0677251 -0.469922 -2.53168 
657 1 5.91269 1.38177 14.9707 -8.38112 -0.574867 0.873773 1.38491 
520 1 9.65974 10.3244 11.4438 -8.71443 1.41068 -1.00672 -0.775648 
261 1 6.71169 6.41824 3.08241 -7.59971 3.24824 -1.52716 3.23232 
477 1 5.4589 6.09174 9.06836 -8.53227 1.18512 0.401121 -2.21277 
693 1 5.41342 5.94328 14.3088 -8.13798 -2.16085 0.52627 -1.14457 
304 1 9.94385 9.5356 6.09886 -7.63281 -1.21494 1.50883 0.574922 
734 2 7.93553 9.81005 15.9781 -29.8609 -1.19466 -0.00769899 -0.620218 
513 1 5.87635 8.64513 9.98394 -8.10866 2.04356 1.88182 -2.05088 
729 1 6.10509 8.58463 15.4491 -7.0875 -1.73887 0.542722 -3.6949 
257 1 -0.0625501 4.34505 9.57886 -8.19987 -0.167534 -0.921396 1.65308 
9 1 6.16643 3.4206 -0.669332 -8.10512 0.90204 -0.780117 -1.19416 
447 1 8.97129 2.32927 8.95193 -7.13748 0.716481 0.0462901 1.2156 
663 1 9.10157 2.41042 14.2178 -8.1229 -1.89615 0.339531 0.419774 
519 1 8.91921 9.8216 8.82002 -8.32964 -1.49247 -1.25323 -0.649119 
267 1 9.75199 7.16557 4.41524 -8.19713 0.778624 -0.326022 0.139447 
483 1 9.60125 5.34734 9.70586 -7.9832 2.49198 -0.465724 2.21875 
699 1 9.60792 5.25321 15.1729 -7.2592 -0.44747 0.274285 0.594789 
484 1 10.177 5.85019 12.6714 -7.68822 1.99746 0.899219 -2.07584 
6 1 0.428747 0.79215 1.08475 -8.31496 -0.091868 0.919398 -0.457249 
52 1 9.44916 5.93899 1.95422 -7.2655 -1.57717 4.53086 -0.507456 
735 1 8.72116 9.68384 14.0518 -7.25559 1.58294 0.117649 0.359775 
4 1 2.87004 1.88531 0.748806 -8.59103 -2.0944 0.638756 1.0305 
220 1 2.64051 2.8738 6.05195 -7.70232 -1.90073 -1.63549 -0.230959 
436 1 2.50921 3.13183 11.587 -8.46118 0.434221 -0.703927 -1.24681 
40 1 2.11077 6.3023 2.10187 -7.46444 -2.16634 0.136004 -2.11679 
256 1 2.64734 6.14632 6.98313 -8.24028 -1.44369 -0.709446 -1.08643 
472 1 3.39182 5.82328 12.3487 -8.78984 -1.2566 1.08064 1.00619 
76 1 2.78772 9.53355 0.898832 -8.18246 0.637769 -0.440692 -0.397639 
292 1 2.52605 9.94683 6.25889 -8.17236 1.59931 -0.804436 -0.525635 
508 1 2.36241 10.0841 11.4091 -7.76662 0.864336 1.22784 0.625262 
10 1 5.75087 2.50672 1.86615 -8.23083 0.0384219 1.68695 -0.00479317 
226 1 6.25988 2.30432 7.20563 -8.27949 -1.13851 3.17268 -1.13287 
442 1 6.79369 2.47933 12.3578 -7.835 -0.226074 -1.48849 2.53008 
46 1 6.27109 5.49541 0.778615 -7.32739 -0.290539 0.282141 -0.0725072 
262 1 6.09989 6.35997 6.53645 -8.46838 1.67816 -1.88335 -0.352784 
478 1 6.14941 6.68742 11.6225 -7.9046 -0.0735694 -3.62744 -0.723782 
82 1 5.8525 9.96112 1.68457 -8.43388 -1.39294 -1.02136 -0.378363 
298 1 6.00094 9.6088 7.21606 -8.46511 1.77339 1.81417 -0.801342 
514 1 6.73457 9.62548 12.4857 -7.45478 -0.788997 0.267511 -1.12897 
16 1 9.72022 1.9874 0.8746 -8.69471 1.35103 -0.27682 0.329042 
656 2 4.27485 2.36669 16.1055 -28.0921 1.22534 0.316232 -1.2559 
455 1 10.6767 0.509926 15.0453 -7.9145 0.818801 1.72497 2.68864 
686 2 0.424071 5.94372 15.8345 -28.8834 1.10152 1.04003 -0.441962 
437 1 0.727131 0.0369799 14.2942 -8.19898 -0.781379 -1.30935 -1.16372 
551 1 4.43893 10.5262 14.0281 -8.02025 -1.62044 -0.650623 1.96002 
233 1 7.90554 -0.0771797 8.92138 -7.7937 -1.62301 -0.935286 1.38048 
81 1 6.40683 10.4139 -0.982673 -8.14572 -0.916554 -0.338674 0.773207 
221 1 0.518918 -0.0231375 8.93236 -8.71947 0.798675 0.117589 -0.817576 
449 1 7.93743 -0.0671501 14.1985 -7.64103 -0.92985 -1.05975 0.263258 
654 1 0.433561 0.93574 16.9554 -8.17167 0.61625 -0.95474 1.37911 
1168 1 10.1103 9.38746 27.4821 -8.3684 -0.327803 0.105809 0.59151 
952 1 9.84902 9.4335 22.0554 -8.56777 -0.306315 -0.384231 0.702442 
736 1 9.6071 9.99483 16.9468 -7.37071 1.32716 -1.06598 1.11421 
690 1 0.770551 4.42842 17.2894 -8.24894 -0.889385 0.298634 2.52235 
906 1 0.820943 3.8421 23.0353 -7.83057 -1.23226 -1.6065 -2.79565 
1378 1 5.57119 9.81474 33.0405 -7.81549 1.67365 0.588666 1.95852 
1302 1 0.0282791 0.747366 32.6814 -8.13823 -0.60747 0.808968 -0.912773 
726 1 0.604834 7.95891 16.9943 -8.42112 0.824909 -0.500403 -1.59024 
1384 1 9.57268 9.52419 32.6534 -7.46661 2.27713 -1.57537 -0.333875 
1312 1 9.85455 2.24039 32.6133 -8.87344 1.74429 -1.20969 0.572888 
1132 1 9.32559 6.28897 28.3738 -7.86094 -0.17269 0.303422 0.418095 
732 1 4.39796 8.05175 17.5318 -8.18141 -1.32121 0.287741 1.32858 
879 1 10.554 2.74436 19.2508 -7.42426 1.22215 -1.9814 1.04619 
1338 1 0.763185 3.74286 33.4521 -7.96815 1.57352 0.91111 1.14605 
870 1 0.357523 0.917906 22.0951 -8.32635 -1.15622 -1.06426 0.224348 
696 1 4.43439 4.38955 16.9023 -8.46673 -1.61733 -1.39084 -0.32655 
912 1 3.80153 4.4553 21.9887 -8.22145 0.179979 -0.498615 -0.409783 
1128 1 3.70292 4.60384 27.3151 -7.96684 0.453743 -1.52457 -0.847765 
1344 1 3.88267 4.47109 32.8236 -8.21663 -0.993629 -1.05504 -0.0861706 
660 1 4.34957 0.422418 17.5644 -8.74656 -1.37088 1.16138 -1.13242 
948 1 4.25194 7.50691 22.9171 -8.38295 1.73147 -0.092411 -0.0794347 
1164 1 4.38296 7.26805 28.2036 -7.66638 -0.132813 0.920219 0.214508 
1380 1 4.48387 7.57798 33.3726 -7.83317 0.200177 -1.02732 1.20958 
666 1 7.94104 0.581298 16.9187 -6.98532 0.347386 1.3428 -0.472724 
882 1 7.29555 0.809959 21.8436 -8.56522 0.31283 1.27144 1.96442 
1098 1 7.88731 0.88196 27.4668 -8.36382 -1.65249 -0.0156832 -0.596265 
1314 1 7.43782 0.889386 32.5389 -7.78272 0.184082 0.476204 2.15539 
702 1 7.79965 4.2185 17.6255 -7.22097 -0.283875 0.335055 0.665794 
918 1 7.95384 3.74631 23.0792 -7.641 0.799737 0.568156 -0.739616 
1134 1 8.05211 3.74668 28.063 -7.83747 -0.0434244 1.24213 1.22954 
1350 1 8.12086 4.0453 33.3892 -8.57147 -0.247455 -0.0668862 1.2424 
738 1 8.11009 7.95288 16.6979 -7.17778 1.80554 -1.03552 2.70722 
954 1 7.53754 7.99492 22.2076 -7.78911 0.0650333 1.10651 -1.01628 
1170 1 7.68345 8.09057 27.3863 -7.86195 -1.80255 0.540574 0.350618 
1386 1 7.44001 8.03038 32.72 -8.5385 0.825865 -1.38724 -2.58019 
653 1 1.22595 1.85009 19.463 -7.87653 -2.32918 -0.223703 -2.24579 
869 1 0.684604 1.57923 24.7283 -8.41164 0.733479 0.346317 -0.403054 
1085 1 0.834099 1.38472 30.1513 -8.00226 -1.38618 -0.448637 -0.622837 
689 1 1.48193 4.47401 20.2553 -8.25452 0.272186 0.151362 0.111548 
905 1 1.39033 4.39574 25.3534 -7.33848 -0.317045 0.245826 2.00015 
1121 1 1.34105 4.37566 30.8802 -7.74969 0.685256 0.0215134 -0.964723 
725 1 0.786742 9.09085 19.3638 -7.90437 -1.46578 -0.469148 -0.593245 
941 1 0.707103 8.73754 24.5542 -8.52973 1.82127 1.02644 0.193415 
1157 1 0.647811 8.83646 29.9014 -8.57863 2.34957 1.11145 -0.0920256 
659 1 5.00723 0.613324 20.1824 -8.18378 1.26071 1.22801 0.435576 
875 1 5.25434 0.82285 25.5494 -8.28525 -0.317506 -0.430687 1.77048 
1091 1 5.13958 0.877352 30.9116 -8.06252 -0.713029 -0.0762641 -0.0220476 
695 1 4.43345 5.25345 19.3651 -7.90106 -0.848996 0.878925 0.490116 
911 1 4.31264 5.18767 24.5338 -8.19108 0.190101 0.341585 0.46832 
1127 1 4.37829 5.07674 29.9017 -7.81926 -0.104567 -0.649881 0.76485 
731 1 5.26222 8.01212 20.403 -8.55905 -0.891251 0.470653 -0.513642 
947 1 5.14189 8.22854 25.6759 -8.00908 0.770515 -1.22003 -0.189158 
1163 1 4.85544 7.79885 30.7609 -8.53141 -0.078784 3.62558 -0.077245 
665 1 8.15315 1.54127 19.3567 -7.26056 -1.02384 0.52585 0.721739 
881 1 7.89024 1.41954 24.7258 -8.16846 0.885606 -1.45492 -0.888572 
1097 1 7.95417 1.26543 30.1269 -7.98454 1.76391 0.765352 -1.29509 
701 1 8.85251 4.39674 20.449 -7.61899 -1.22439 0.038128 0.0122247 
917 1 8.98284 4.66265 25.3722 -7.67667 -1.46572 -0.423976 2.11825 
1133 1 8.80952 4.58125 30.8657 -8.21887 0.530534 -0.502527 -1.49159 
737 1 8.18571 8.87127 19.5083 -8.21978 -0.707627 -0.212478 -1.39099 
953 1 8.14316 8.67707 24.7487 -7.90464 -0.588768 0.473074 -0.292942 
1169 1 8.17998 9.04542 29.9462 -7.92177 0.0247567 -1.78884 0.75431 
866 2 0.680694 2.66117 21.1144 -28.6405 0.166675 1.06274 0.895027 
1082 2 0.492535 2.69703 26.518 -29.3042 -1.06007 -0.707043 -1.23986 
1298 2 0.770328 2.62202 31.7596 -29.1095 0.661041 -0.0643844 0.648336 
902 2 0.719356 6.38478 21.0612 -28.8622 0.257914 -0.269499 0.725918 
1118 2 0.784719 6.54832 26.2041 -29.1289 -0.707206 -1.87768 0.993433 
1334 2 0.806821 6.34803 31.7832 -28.9571 -1.16818 -0.817342 -0.265251 
938 2 0.520656 10.1806 20.9955 -28.9243 0.640009 -1.72025 0.952162 
1154 2 0.94262 10.0769 26.3137 -28.2853 -0.0228491 -1.43136 -0.0953153 
1370 2 0.614643 9.99446 31.6869 -27.9347 1.87647 -0.94118 0.670624 
872 2 4.49522 2.52709 21.072 -28.8965 -0.130272 0.28882 -0.113955 
1088 2 4.54704 2.69641 26.4674 -28.5687 -0.0446045 0.338309 0.56515 
1304 2 4.50769 2.69299 31.8524 -29.0937 0.549988 -0.112297 -1.74343 
908 2 4.27921 6.25186 21.2094 -28.573 0.00822365 0.267052 -1.15364 
1124 2 4.35415 6.5247 26.2735 -29.0318 -0.43399 -1.9483 1.12189 
1340 2 4.3235 6.24047 31.8114 -29.2117 -0.412263 -1.59201 0.141948 
944 2 4.3384 9.70555 21.0002 -28.6555 -0.461931 1.73657 1.25339 
1160 2 4.57352 10.1489 26.5359 -28.7227 0.0829154 -3.78957 -2.50399 
1376 2 4.17876 9.79759 31.5198 -27.8152 1.30771 0.442395 2.06512 
878 2 8.01799 2.73152 21.2688 -29.0856 -0.37384 -0.2727 -1.29471 
1094 2 8.25003 2.61288 26.3727 -29.1262 -0.215869 1.3797 -0.981861 
1310 2 8.23298 2.69567 31.6418 -28.7279 -2.81036 0.242603 -0.657849 
914 2 7.91772 6.18364 21.1558 -29.0149 0.270858 0.110836 0.381282 
1130 2 7.93559 6.39958 26.1953 -28.883 0.943084 -0.827535 1.64509 
1346 2 8.12049 6.24391 31.6036 -28.1333 -0.300855 -0.000540039 1.51992 
950 2 7.97882 9.94808 21.0913 -28.8638 -0.191368 0.424779 1.11535 
1166 2 8.34152 9.76202 26.5656 -28.3328 -0.740161 0.577474 -2.15974 
1382 2 7.78351 9.99001 31.9289 -29.0029 1.13121 0.497705 -0.866149 
649 2 2.51032 0.912868 18.2562 -28.4292 -0.955697 -0.929725 1.25118 
865 2 2.40715 0.947348 23.8333 -28.3592 0.908797 -1.35422 -0.857203 
1081 2 2.6944 0.776696 29.1603 -29.0864 -0.729055 -0.299691 0.686014 
685 2 2.52826 4.429 18.4991 -28.6601 0.826666 0.736304 -0.0879992 
901 2 2.59443 4.24033 23.5922 -28.6387 0.263586 1.17357 2.08259 
1117 2 2.63069 4.41686 28.9791 -28.7729 -0.890043 0.336969 0.762935 
721 2 2.39957 8.36321 18.3731 -29.152 0.243279 -1.37751 0.0341262 
937 2 2.39395 7.88701 23.5055 -28.2297 0.111637 2.57254 1.58926 
1153 2 2.71996 7.92469 29.1421 -28.5729 -0.931026 0.116216 -1.47796 
655 2 6.20403 0.479858 18.3865 -29.4118 2.2991 0.838049 0.805849 
871 2 6.14985 0.535305 23.713 -28.4918 -0.299365 1.07235 0.0622254 
1087 2 6.22123 0.70922 29.0063 -28.5577 2.79609 1.47812 1.89971 
691 2 6.00501 4.42883 18.3468 -29.4167 0.226628 -0.328369 1.09814 
907 2 5.99398 4.5531 23.6374 -28.7575 1.55803 -1.15282 2.3142 
1123 2 6.23388 4.5375 28.8937 -29.3049 -0.225933 -0.0411536 1.12125 
727 2 6.2164 7.9699 18.5563 -28.8032 1.18234 0.192473 -1.53702 
943 2 6.23151 8.1519 23.8387 -28.869 -0.521848 2.14886 -1.04328 
1159 2 6.14003 8.08782 29.2447 -28.3435 1.19638 1.35121 -2.77982 
661 2 9.97178 0.814367 18.7422 -29.1337 -1.32594 0.292975 -2.41077 
877 2 9.92702 0.737807 23.8738 -28.0568 -0.0993636 -0.146097 -0.0950337 
1093 2 9.83157 0.871985 29.1316 -28.1548 -0.880372 -0.74347 -1.76074 
697 2 9.77845 4.18835 18.2826 -29.8768 -0.0737229 1.25475 1.1524 
913 2 9.92098 4.40554 23.7018 -28.4131 -1.13702 -1.47967 0.375411 
1129 2 10.0727 4.58139 28.9574 -28.6092 -2.63708 -2.16121 0.374854 
733 2 9.86568 8.02222 18.5903 -28.8443 -0.0167011 1.39066 -1.50139 
949 2 9.97082 7.98137 23.7299 -27.9147 -1.96893 1.49731 1.4661 
1165 2 10.0017 8.03942 29.2083 -28.5165 -0.158846 1.44771 -0.772389 
867 1 3.67719 2.73155 19.26 -7.95046 -0.683607 0.0967055 -2.21902 
1083 1 3.4347 2.65309 24.9021 -8.3289 -1.71659 -0.810592 -2.47831 
1299 1 3.16998 2.5958 29.9792 -7.51048 0.987816 1.52834 0.48339 
903 1 2.56015 7.21294 20.1468 -7.99789 0.791061 -0.535281 1.45766 
1119 1 2.55015 7.0148 25.4175 -8.25545 0.233686 0.283724 -0.49888 
1335 1 2.50187 6.7953 30.8294 -8.01098 0.132485 0.994328 -2.24049 
939 1 3.25049 10.0319 19.4022 -8.13005 1.03756 -0.169698 -0.338274 
1155 1 3.39192 10.0243 24.735 -7.48664 -1.42505 -0.104229 -0.810889 
1371 1 3.11757 9.89403 29.7466 -8.90698 1.19442 -0.140738 2.14584 
873 1 6.19867 3.34133 20.2539 -7.93491 0.810928 0.0616688 0.02157 
1089 1 6.28862 3.48659 25.7626 -7.7648 0.18361 -0.0244029 -0.619249 
1305 1 6.42437 3.44205 30.8049 -7.32088 -0.645744 -0.65661 -0.109082 
909 1 6.9696 6.33824 19.4542 -7.79354 0.0313474 -0.933211 -0.849999 
1125 1 6.82723 6.41735 24.4862 -8.42159 -0.605588 -1.70049 1.24687 
1341 1 6.87532 6.49887 29.8149 -8.23825 2.1612 -2.22512 1.44082 
1308 1 4.55554 -0.0724596 33.6223 -7.38927 -0.137561 2.09987 -0.373581 
1306 1 5.63722 2.68925 33.5465 -7.91248 0.571665 -1.26151 0.109903 
1092 1 4.69064 -0.0620904 28.3076 -8.452 -2.1042 -0.0781211 -0.157989 
1086 1 0.209576 0.802209 27.2878 -7.0048 0.753542 0.0736493 0.885065 
1374 1 -0.064411 8.24623 32.3958 -8.13766 0.789149 -0.476641 2.13342 
1167 1 10.4456 9.96707 24.8358 -8.12707 -0.505314 -0.400089 -1.35218 
915 1 9.66518 6.90002 20.2268 -8.06868 -0.05186 0.950948 1.33256 
1131 1 9.77382 7.0792 25.8149 -7.93462 2.61171 0.361098 -1.48272 
1347 1 10.0884 7.04449 31.0712 -8.4711 -2.80574 1.45522 -0.968979 
1122 1 0.615176 3.71609 28.0989 -7.869 4.08706 0.739166 1.96809 
1377 1 6.14357 10.4918 30.7539 -8.64388 -1.23409 -0.192981 -0.746284 
942 1 0.172877 8.15466 21.8453 -7.79829 -0.302002 0.496001 0.893995 
652 1 2.37587 2.61316 16.7592 -8.53313 2.83992 0.0764622 3.02003 
868 1 2.60341 2.10447 21.8287 -8.11878 1.12082 0.107894 2.39437 
1084 1 2.83022 1.70857 27.5814 -7.64403 0.0835277 2.40264 -3.26385 
1300 1 2.75564 1.76109 32.458 -7.94859 -0.587643 0.782254 1.50522 
688 1 2.38437 6.36772 17.6258 -7.38466 1.37868 -0.845909 -0.373751 
904 1 1.99332 6.1975 22.7177 -8.41481 -0.175164 -0.563192 -0.800114 
1120 1 1.79601 6.35027 28.0205 -7.89025 0.140325 -0.210047 1.28083 
1348 1 9.54271 6.46668 33.8036 -7.87427 -0.880483 -0.740489 -0.362233 
724 1 2.50098 9.93356 16.9068 -7.97143 -0.917001 -1.48053 -1.66691 
940 1 2.43351 9.30208 22.1212 -7.90385 1.20191 1.33172 -0.683076 
1156 1 2.5384 9.13977 27.3767 -7.65176 -0.0715769 0.96322 -0.922157 
1372 1 2.55237 9.14265 32.4851 -8.53202 -1.04081 0.594644 -0.690341 
658 1 6.05872 2.33705 17.4508 -8.08402 -1.2774 0.713218 -0.297663 
874 1 5.62093 2.81974 22.8805 -7.93407 -1.27736 -3.03467 -0.115954 
1090 1 5.56014 2.61001 28.3446 -8.28446 -0.240745 -0.429309 -1.17331 
1158 1 0.0741796 8.29276 27.0348 -7.79286 -0.0207231 -0.645643 0.435669 
694 1 6.07529 6.2673 16.9957 -7.67876 -1.03355 -0.163918 1.26233 
910 1 6.1762 5.61192 22.054 -8.21302 -0.358015 0.853674 -1.55308 
1126 1 6.18639 5.73316 27.238 -7.86515 1.00757 0.236153 -1.09882 
1342 1 6.18385 5.5047 32.4117 -7.78198 1.12269 1.95464 0.954101 
730 1 6.30375 9.82002 17.5715 -7.72174 -0.574333 0.81992 1.65124 
946 1 5.61923 9.86289 22.6253 -8.18687 -0.308365 -0.349314 0.820881 
1162 1 5.46887 9.74272 28.2433 -8.30854 1.01564 0.831436 0.947407 
1161 1 6.10759 10.5715 25.3208 -7.59886 1.50706 1.23506 0.210061 
664 1 9.55492 2.67239 16.822 -7.91533 2.80592 -1.20582 -0.13105 
880 1 9.84613 2.07091 22.0355 -8.38086 -0.201705 -1.22907 0.992976 
1096 1 10.1154 2.42154 27.2593 -7.16503 -1.07317 -2.24497 0.0773638 
700 1 9.56217 6.02085 17.736 -7.52677 0.941908 2.61998 -0.907144 
916 1 9.24337 6.14202 22.8333 -8.72324 2.06845 1.52292 0.415796 
1336 1 2.12751 6.3007 33.1916 -8.05246 -0.36221 0.163329 3.97778 
876 1 4.26616 0.26241 22.9584 -8.13406 0.620336 1.04849 -1.06648 
1383 1 10.7158 10.1186 29.9922 -8.03224 -0.0827021 -1.68454 0.388585 
1095 1 10.3935 2.5213 24.6754 -8.27224 -0.136462 0.664796 -0.408601 
1311 1 10.513 2.57946 29.8401 -8.83905 -0.412078 0.0614453 1.46605 
945 1 6.21472 10.7149 20.2228 -7.87151 -0.233097 -1.2678 -0.165557 
2205 1 6.71073 6.14251 51.0223 -7.9015 2.41419 -0.225486 -0.435082 
1734 1 0.658609 0.550717 43.4455 -8.00531 0.833299 0.438644 0.616518 
1950 1 0.499243 0.421456 48.8678 -8.10754 -0.453442 2.75075 0.465869 
1554 1 0.976398 3.97632 38.8568 -8.11713 -0.399532 -0.376988 -1.36772 
1770 1 0.875199 4.13391 44.0786 -8.40968 -2.21958 1.23836 -1.32748 
1739 1 3.02406 0.373524 46.8165 -7.51045 0.687286 1.1682 -0.269718 
1333 2 2.58471 4.34604 34.5169 -27.4873 0.571054 1.94533 -2.97475 
1806 1 0.63824 8.1075 43.3424 -7.93061 0.565538 -1.15555 0.399748 
2022 1 0.572749 7.91142 48.8343 -7.18897 0.348776 1.28333 -0.158166 
2163 1 3.13334 2.29151 50.988 -7.27848 0.781873 2.10973 -0.931062 
1740 1 4.17387 0.357919 44.1531 -7.36203 0.87784 0.770223 -1.24552 
1956 1 3.90595 0.662303 49.2933 -7.87732 1.9156 0.270957 -0.209235 
1560 1 3.8184 4.54681 37.8215 -8.59481 -0.431473 -0.781248 0.518886 
1776 1 4.18238 4.30671 43.3687 -7.69631 -0.480144 1.17564 -0.654309 
1992 1 4.41697 4.20372 48.4963 -8.19939 -2.45858 -0.534101 -1.39605 
1596 1 4.13853 7.3832 38.9035 -7.58285 2.1346 1.0724 -0.0385879 
1812 1 4.09097 8.35333 44.1025 -8.33404 1.39209 -2.66543 -0.178972 
2028 1 4.25864 8.00108 49.2712 -8.45458 -0.055292 0.56728 -0.151437 
1530 1 7.52429 0.728763 37.9791 -8.07857 -1.40586 0.223994 -1.0627 
1746 1 7.89726 0.674486 43.2925 -7.86253 0.260425 1.04466 -0.339566 
1962 1 7.71741 0.648185 48.5032 -7.38115 -0.0211523 -1.19598 -1.19934 
1566 1 7.99283 3.70437 38.9708 -7.8742 -1.10157 0.587431 0.706813 
1782 1 7.5657 4.37144 43.8171 -6.49394 3.56933 -0.923953 0.644205 
1998 1 7.68663 4.36504 49.0245 -8.10442 -0.25041 0.40506 0.59632 
1602 1 7.08056 8.32978 37.8608 -7.98063 2.21106 -0.21924 0.320532 
1818 1 7.88381 7.81081 43.2713 -7.40128 -0.0288688 2.40414 -0.209719 
2034 1 7.84879 8.01325 48.6816 -7.90012 -0.314801 -0.9111 0.626322 
1301 1 0.834495 1.55407 35.0934 -8.06838 -1.19125 -0.158175 1.8055 
1517 1 0.660846 1.48367 40.669 -7.35462 -0.521221 -0.489056 -0.473074 
2033 1 7.92284 8.682 51.2234 -8.57426 0.164048 0.269571 -0.656448 
1600 1 9.77651 9.46148 37.9006 -8.61309 -1.08088 -0.314441 -0.311797 
1337 1 1.49378 4.55273 36.0949 -9.1341 -0.571496 -0.86154 0.741645 
1553 1 1.74112 4.19939 41.5532 -7.48866 0.0173621 2.66966 0.851723 
1527 1 10.4336 2.71733 35.3174 -8.13285 0.759857 -1.27228 -1.52205 
1309 2 9.91514 0.887274 34.3185 -28.508 -1.43913 -0.509587 1.66609 
1373 1 0.719224 8.85801 35.2895 -8.34828 0.688153 -0.279769 -0.920942 
1589 1 0.565574 9.04642 40.6903 -8.18957 0.749859 -1.04555 -0.181831 
1805 1 0.531495 7.03389 45.9838 -7.59802 0.361591 -0.949179 -1.23841 
1369 2 2.73371 8.18116 34.3358 -28.311 -0.128648 0.361995 -0.352578 
1307 1 5.01682 0.913399 35.9525 -8.06628 1.29624 -1.3197 1.74413 
1523 1 4.97938 0.573529 41.3437 -8.71207 0.472481 1.478 0.175142 
2021 1 0.740788 8.73934 51.4322 -7.74366 -0.182425 -0.186106 -5.15341 
1518 1 0.302719 0.847659 37.9548 -8.05612 -0.604376 0.0401389 -0.422432 
1343 1 4.82853 5.36106 35.3947 -7.99443 -2.2597 -0.786667 -0.929629 
1559 1 4.42177 5.20923 40.5299 -8.63752 1.06581 -1.34063 0.516172 
1775 1 4.08847 3.25079 45.7556 -7.92701 0.469038 -1.13756 2.28011 
1381 2 9.85758 8.22848 34.5893 -28.2731 1.33088 -0.33055 -1.48121 
1379 1 5.15314 8.23575 35.9896 -7.55398 -1.80681 -1.46549 0.460925 
1595 1 5.1783 7.93491 41.5599 -7.95112 1.07499 2.10482 -0.265852 
1811 1 3.20454 7.97321 46.7583 -8.05799 1.42901 -1.59063 0.117429 
1816 1 9.61985 9.81281 43.3543 -8.2598 1.48726 -1.12503 2.02812 
1313 1 8.12528 1.44463 35.2939 -8.04991 -1.18164 0.655797 -0.84542 
1529 1 7.86316 1.24998 40.4968 -8.26802 -0.425856 -0.269198 0.310868 
1339 2 6.29576 4.46272 34.3137 -28.6094 -0.601304 0.195189 -0.248942 
1986 1 0.581647 4.3085 49.2854 -8.35921 0.765436 -0.120117 -1.22429 
1349 1 8.67131 4.28829 36.5197 -7.69806 -0.554366 1.57255 -1.98419 
1565 1 8.91917 4.45624 41.4527 -8.08879 0.318907 -0.710985 -0.234906 
1781 1 7.16126 4.33074 46.5109 -8.31936 -1.22588 -0.398287 0.530764 
2032 1 9.90216 9.52656 48.387 -6.72365 -1.9944 1.53017 1.24546 
1385 1 8.16665 9.0762 35.2305 -8.48072 -0.488296 -1.29252 -0.102515 
1601 1 8.05417 8.94952 40.526 -7.86076 -1.23294 -0.304904 -0.568775 
1817 1 7.80047 7.00025 45.7022 -7.70589 0.214627 -1.0764 1.25091 
1524 1 4.48586 -0.015075 38.677 -8.63948 -1.6489 0.898362 0.115798 
1514 2 0.629401 2.6232 37.0249 -28.17 2.48901 -0.724888 1.3041 
1730 2 0.879667 2.43949 42.574 -29.4414 -1.76099 0.795746 -2.25401 
1946 2 0.244138 2.56437 47.5907 -28.4974 0.385262 -1.16696 0.628176 
1550 2 0.883045 6.19246 37.0727 -28.0358 -1.7469 2.03174 -0.282768 
1766 2 0.904743 5.94299 42.5679 -28.4354 0.205588 0.0685332 -1.03155 
1982 2 0.684857 5.86469 47.7286 -29.2951 -1.57844 2.64185 -0.261272 
1586 2 0.621227 10.084 37.1099 -28.196 0.338298 -2.52095 -0.52399 
1802 2 0.560908 10.3077 42.5014 -29.1749 1.50246 -1.58639 -1.51231 
2018 2 0.357339 9.99347 47.4805 -29.1397 1.76712 -2.40155 2.06659 
1520 2 4.49658 2.62862 37.0367 -28.7721 -0.446362 -0.356976 -0.108514 
1736 2 4.41245 2.52905 42.2904 -28.8721 0.0309366 0.0210545 0.658441 
1952 2 3.82692 2.01636 47.7374 -28.6454 1.43373 1.32827 -1.10601 
1556 2 4.21621 6.29457 37.0784 -28.2809 2.30201 2.29936 0.637877 
1772 2 4.40875 6.32841 42.2915 -28.2693 0.135947 -1.77557 1.61591 
1988 2 3.967 6.12803 47.7286 -28.5354 0.834432 0.825188 -1.23534 
1592 2 4.19906 9.88815 36.9179 -28.8496 1.33261 0.0906755 0.804938 