LAMMPS (22 Dec 2022)
  using 1 OpenMP thread(s) per MPI task
Loaded 1 plugins from C:\Program Files\LAMMPS 64-bit 23Jun2022\plugins
Loaded 0 plugins from C:\Program Files\LAMMPS 64-bit 23Jun2022-MPI\plugins
Loaded 1 plugins from C:\Program Files\LAMMPS 64-bit 22Dec2022-MSMPI\plugins
Loaded 1 plugins from C:\Program Files\LAMMPS 64-bit 28Mar2023-MPI\plugins
#------------------------------------------------------------------------------------------
# LAMMPS 64-bit 22Dec2022-MSMPI
#------------------------------------------------------------------------------------------
clear
  using 1 OpenMP thread(s) per MPI task
Loaded 1 plugins from C:\Program Files\LAMMPS 64-bit 23Jun2022\plugins
Loaded 0 plugins from C:\Program Files\LAMMPS 64-bit 23Jun2022-MPI\plugins
Loaded 1 plugins from C:\Program Files\LAMMPS 64-bit 22Dec2022-MSMPI\plugins
Loaded 1 plugins from C:\Program Files\LAMMPS 64-bit 28Mar2023-MPI\plugins
#echo both
# ---------- Initializing Simulation ---------------------------------
units metal
dimension 3
boundary p p p
atom_style atomic
atom_modify map array

read_data ./../../TiCr.data
Reading data file ...
  orthogonal box = (0 0 0) to (3.02 3.02 3.02)
  2 by 2 by 2 MPI processor grid
  reading atoms ...
  2 atoms
  read_data CPU = 0.001 seconds

replicate 1 1 1
Replication is creating a 1x1x1 = 1 times larger system...
  orthogonal box = (0 0 0) to (3.02 3.02 3.02)
  2 by 2 by 2 MPI processor grid
  2 atoms
  replicate CPU = 0.000 seconds

# ---------- Defining the Interatomic Potential ---------------------
pair_style meam
pair_coeff * * ./../../library.meam Ti Cr N ./../../TiCrN.meam Ti Cr

# ---------- Running Minimization -------------------------------------
fix 1 all box/relax iso 0.0 vmax 0.001

thermo 10
thermo_style custom step pe etotal lx ly lz vol press pxx pyy pzz

min_style cg
minimize 1e-25 1e-25 5000 10000
Neighbor list info ...
  update: every = 1 steps, delay = 0 steps, check = yes
  max neighbors/atom: 2000, page size: 100000
  master list distance cutoff = 6
  ghost atom cutoff = 6
  binsize = 3, bins = 2 2 2
  2 neighbor lists, perpetual/occasional/extra = 2 0 0
  (1) pair meam, perpetual
      attributes: full, newton on
      pair build: full/bin/atomonly
      stencil: full/bin/3d
      bin: standard
  (2) pair meam, perpetual, half/full from (1)
      attributes: half, newton on
      pair build: halffull/newton
      stencil: none
      bin: none
WARNING: Proc sub-domain size < neighbor skin, could lead to lost atoms (src/domain.cpp:966)
Per MPI rank memory allocation (min/avg/max) = 9.64 | 9.64 | 9.64 Mbytes
   Step         PotEng         TotEng           Lx             Ly             Lz           Volume         Press           Pxx            Pyy            Pzz      
         0  -9.2067148     -9.2067148      3.02           3.02           3.02           27.543608     -21446.5       -21446.5       -21446.5       -21446.5      
         9  -9.21          -9.21           3.0022214      3.0022214      3.0022214      27.060022      1.9008186e-10  7.7237872e-11  2.9580462e-10  1.9720308e-10
Loop time of 0.00237112 on 8 procs for 9 steps with 2 atoms

0.0% CPU use with 8 MPI tasks x 1 OpenMP threads

Minimization stats:
  Stopping criterion = linesearch alpha is zero
  Energy initial, next-to-last, final = 
     -9.20671482179412  -9.20999999996869  -9.20999999996869
  Force two-norm initial, final = 1.1060841 1.2827497e-14
  Force max component initial, final = 1.1060841 9.6882188e-15
  Final line search alpha, max atom move = 0.5 4.8441094e-15
  Iterations, force evaluations = 9 13

MPI task timing breakdown:
Section |  min time  |  avg time  |  max time  |%varavg| %total
---------------------------------------------------------------
Pair    | 0.000908   | 0.0010946  | 0.001299   |   0.5 | 46.16
Neigh   | 0          | 0          | 0          |   0.0 |  0.00
Comm    | 0.000244   | 0.000447   | 0.000657   |   0.0 | 18.85
Output  | 0          | 0          | 0          |   0.0 |  0.00
Modify  | 0          | 0          | 0          |   0.0 |  0.00
Other   |            | 0.0008295  |            |       | 34.98

Nlocal:           0.25 ave           1 max           0 min
Histogram: 6 0 0 0 0 0 0 0 0 2
Nghost:         127.75 ave         128 max         127 min
Histogram: 2 0 0 0 0 0 0 0 0 6
Neighs:           7.25 ave          29 max           0 min
Histogram: 6 0 0 0 0 0 0 0 0 2
FullNghs:         14.5 ave          58 max           0 min
Histogram: 6 0 0 0 0 0 0 0 0 2

Total # of neighbors = 116
Ave neighs/atom = 58
Neighbor list builds = 0
Dangerous builds = 0

variable  natoms equal "count(all)"
variable      x0 equal "lx"
variable      y0 equal "ly"
variable      z0 equal "lz"
variable      v0 equal "vol"
variable   etot0 equal "etotal"
variable   ecoh0 equal "pe/v_natoms"

unfix 1
#write_data ./../step2_elastic/data.in

# ---------- For Equation of States -------------------------------------
change_box all x scale 0.94 y scale 0.94 z scale 0.94 remap
Changing box ...
  orthogonal box = (0.098955939 0.0088892964 0.0088892964) to (2.9210441 3.0111107 3.0111107)
  orthogonal box = (0.098955939 0.098955939 0.0088892964) to (2.9210441 2.9210441 3.0111107)
  orthogonal box = (0.098955939 0.098955939 0.098955939) to (2.9210441 2.9210441 2.9210441)
run 1
WARNING: No fixes with time integration, atoms won't move (src/verlet.cpp:60)
WARNING: Proc sub-domain size < neighbor skin, could lead to lost atoms (src/domain.cpp:966)
Per MPI rank memory allocation (min/avg/max) = 8.572 | 8.573 | 8.573 Mbytes
   Step         PotEng         TotEng           Lx             Ly             Lz           Volume         Press           Pxx            Pyy            Pzz      
         9  -8.7972442     -8.7972442      2.8220881      2.8220881      2.8220881      22.475622      335906.35      335906.35      335906.35      335906.35    
        10  -8.7972442     -8.7972442      2.8220881      2.8220881      2.8220881      22.475622      335906.35      335906.35      335906.35      335906.35    
Loop time of 0.000227125 on 8 procs for 1 steps with 2 atoms

Performance: 380.407 ns/day, 0.063 hours/ns, 4402.862 timesteps/s, 8.806 katom-step/s
0.0% CPU use with 8 MPI tasks x 1 OpenMP threads

MPI task timing breakdown:
Section |  min time  |  avg time  |  max time  |%varavg| %total
---------------------------------------------------------------
Pair    | 0.000142   | 0.00015812 | 0.000179   |   0.0 | 69.62
Neigh   | 0          | 0          | 0          |   0.0 |  0.00
Comm    | 1.5e-05    | 2.9875e-05 | 5.9e-05    |   0.0 | 13.15
Output  | 1.7e-05    | 3.125e-05  | 6e-05      |   0.0 | 13.76
Modify  | 0          | 1.25e-07   | 1e-06      |   0.0 |  0.06
Other   |            | 7.75e-06   |            |       |  3.41

Nlocal:           0.25 ave           2 max           0 min
Histogram: 7 0 0 0 0 0 0 0 0 1
Nghost:         249.75 ave         250 max         248 min
Histogram: 1 0 0 0 0 0 0 0 0 7
Neighs:              8 ave          64 max           0 min
Histogram: 7 0 0 0 0 0 0 0 0 1
FullNghs:           16 ave         128 max           0 min
Histogram: 7 0 0 0 0 0 0 0 0 1

Total # of neighbors = 128
Ave neighs/atom = 64
Neighbor list builds = 0
Dangerous builds = 0
print "# Lattice constant (Angstroms), Volume (Angstrom), Total energy (eV), Cohesive energy (eV/atom)" file lattice_cohesive_energy.txt screen no


# Loop over lattice constants
variable i loop 49 # Number of steps
label loop

change_box all x scale 1.0025 y scale 1.0025 z scale 1.0025 remap
Changing box ...
  orthogonal box = (0.095428328 0.098955939 0.098955939) to (2.9245717 2.9210441 2.9210441)
  orthogonal box = (0.095428328 0.095428328 0.098955939) to (2.9245717 2.9245717 2.9210441)
  orthogonal box = (0.095428328 0.095428328 0.095428328) to (2.9245717 2.9245717 2.9245717)

run 1
WARNING: No fixes with time integration, atoms won't move (src/verlet.cpp:60)
WARNING: Proc sub-domain size < neighbor skin, could lead to lost atoms (src/domain.cpp:966)
Per MPI rank memory allocation (min/avg/max) = 8.572 | 8.573 | 8.573 Mbytes
   Step         PotEng         TotEng           Lx             Ly             Lz           Volume         Press           Pxx            Pyy            Pzz      
        10  -8.8317099     -8.8317099      2.8291433      2.8291433      2.8291433      22.644611      317726.06      317726.06      317726.06      317726.06    
        11  -8.8317099     -8.8317099      2.8291433      2.8291433      2.8291433      22.644611      317726.06      317726.06      317726.06      317726.06    
Loop time of 0.00022075 on 8 procs for 1 steps with 2 atoms

Performance: 391.393 ns/day, 0.061 hours/ns, 4530.011 timesteps/s, 9.060 katom-step/s
0.0% CPU use with 8 MPI tasks x 1 OpenMP threads

MPI task timing breakdown:
Section |  min time  |  avg time  |  max time  |%varavg| %total
---------------------------------------------------------------
Pair    | 0.000137   | 0.00015425 | 0.000175   |   0.0 | 69.88
Neigh   | 0          | 0          | 0          |   0.0 |  0.00
Comm    | 1.4e-05    | 2.875e-05  | 5.9e-05    |   0.0 | 13.02
Output  | 1.6e-05    | 3.05e-05   | 6.1e-05    |   0.0 | 13.82
Modify  | 0          | 1.25e-07   | 1e-06      |   0.0 |  0.06
Other   |            | 7.125e-06  |            |       |  3.23

Nlocal:           0.25 ave           2 max           0 min
Histogram: 7 0 0 0 0 0 0 0 0 1
Nghost:         249.75 ave         250 max         248 min
Histogram: 1 0 0 0 0 0 0 0 0 7
Neighs:              8 ave          64 max           0 min
Histogram: 7 0 0 0 0 0 0 0 0 1
FullNghs:           16 ave         128 max           0 min
Histogram: 7 0 0 0 0 0 0 0 0 1

Total # of neighbors = 128
Ave neighs/atom = 64
Neighbor list builds = 0
Dangerous builds = 0
variable  natoms equal "count(all)"
variable xlength equal "lx"
variable  volume equal "vol"
variable  etotal equal "etotal"
variable    ecoh equal "pe/v_natoms"
print "${xlength}, ${volume}, ${etotal}, ${ecoh}" append lattice_cohesive_energy.txt screen no

next i
jump SELF loop

change_box all x scale 1.0025 y scale 1.0025 z scale 1.0025 remap
Changing box ...
  orthogonal box = (0.091891899 0.095428328 0.095428328) to (2.9281081 2.9245717 2.9245717)
  orthogonal box = (0.091891899 0.091891899 0.095428328) to (2.9281081 2.9281081 2.9245717)
  orthogonal box = (0.091891899 0.091891899 0.091891899) to (2.9281081 2.9281081 2.9281081)

run 1
WARNING: No fixes with time integration, atoms won't move (src/verlet.cpp:60)
WARNING: Proc sub-domain size < neighbor skin, could lead to lost atoms (src/domain.cpp:966)
Per MPI rank memory allocation (min/avg/max) = 8.572 | 8.573 | 8.573 Mbytes
   Step         PotEng         TotEng           Lx             Ly             Lz           Volume         Press           Pxx            Pyy            Pzz      
        11  -8.8645265     -8.8645265      2.8362162      2.8362162      2.8362162      22.81487       299990.4       299990.4       299990.4       299990.4     
        12  -8.8645265     -8.8645265      2.8362162      2.8362162      2.8362162      22.81487       299990.4       299990.4       299990.4       299990.4     
Loop time of 0.00022375 on 8 procs for 1 steps with 2 atoms

Performance: 386.145 ns/day, 0.062 hours/ns, 4469.274 timesteps/s, 8.939 katom-step/s
0.0% CPU use with 8 MPI tasks x 1 OpenMP threads

MPI task timing breakdown:
Section |  min time  |  avg time  |  max time  |%varavg| %total
---------------------------------------------------------------
Pair    | 0.000138   | 0.000156   | 0.000177   |   0.0 | 69.72
Neigh   | 0          | 0          | 0          |   0.0 |  0.00
Comm    | 1.4e-05    | 2.8875e-05 | 5.9e-05    |   0.0 | 12.91
Output  | 1.6e-05    | 3.05e-05   | 6.1e-05    |   0.0 | 13.63
Modify  | 0          | 2.5e-07    | 1e-06      |   0.0 |  0.11
Other   |            | 8.125e-06  |            |       |  3.63

Nlocal:           0.25 ave           2 max           0 min
Histogram: 7 0 0 0 0 0 0 0 0 1
Nghost:         249.75 ave         250 max         248 min
Histogram: 1 0 0 0 0 0 0 0 0 7
Neighs:              8 ave          64 max           0 min
Histogram: 7 0 0 0 0 0 0 0 0 1
FullNghs:           16 ave         128 max           0 min
Histogram: 7 0 0 0 0 0 0 0 0 1

Total # of neighbors = 128
Ave neighs/atom = 64
Neighbor list builds = 0
Dangerous builds = 0
variable  natoms equal "count(all)"
variable xlength equal "lx"
variable  volume equal "vol"
variable  etotal equal "etotal"
variable    ecoh equal "pe/v_natoms"
print "${xlength}, ${volume}, ${etotal}, ${ecoh}" append lattice_cohesive_energy.txt screen no

next i
jump SELF loop

change_box all x scale 1.0025 y scale 1.0025 z scale 1.0025 remap
Changing box ...
  orthogonal box = (0.088346629 0.091891899 0.091891899) to (2.9316534 2.9281081 2.9281081)
  orthogonal box = (0.088346629 0.088346629 0.091891899) to (2.9316534 2.9316534 2.9281081)
  orthogonal box = (0.088346629 0.088346629 0.088346629) to (2.9316534 2.9316534 2.9316534)

run 1
WARNING: No fixes with time integration, atoms won't move (src/verlet.cpp:60)
WARNING: Proc sub-domain size < neighbor skin, could lead to lost atoms (src/domain.cpp:966)
Per MPI rank memory allocation (min/avg/max) = 8.572 | 8.573 | 8.573 Mbytes
   Step         PotEng         TotEng           Lx             Ly             Lz           Volume         Press           Pxx            Pyy            Pzz      
        12  -8.8957144     -8.8957144      2.8433067      2.8433067      2.8433067      22.98641       282691.64      282691.64      282691.64      282691.64    
        13  -8.8957144     -8.8957144      2.8433067      2.8433067      2.8433067      22.98641       282691.64      282691.64      282691.64      282691.64    
Loop time of 0.00022325 on 8 procs for 1 steps with 2 atoms

Performance: 387.010 ns/day, 0.062 hours/ns, 4479.283 timesteps/s, 8.959 katom-step/s
0.0% CPU use with 8 MPI tasks x 1 OpenMP threads

MPI task timing breakdown:
Section |  min time  |  avg time  |  max time  |%varavg| %total
---------------------------------------------------------------
Pair    | 0.000139   | 0.00015575 | 0.000177   |   0.0 | 69.76
Neigh   | 0          | 0          | 0          |   0.0 |  0.00
Comm    | 1.4e-05    | 2.9375e-05 | 5.9e-05    |   0.0 | 13.16
Output  | 1.7e-05    | 3.0875e-05 | 6.1e-05    |   0.0 | 13.83
Modify  | 0          | 1.25e-07   | 1e-06      |   0.0 |  0.06
Other   |            | 7.125e-06  |            |       |  3.19

Nlocal:           0.25 ave           2 max           0 min
Histogram: 7 0 0 0 0 0 0 0 0 1
Nghost:         249.75 ave         250 max         248 min
Histogram: 1 0 0 0 0 0 0 0 0 7
Neighs:              8 ave          64 max           0 min
Histogram: 7 0 0 0 0 0 0 0 0 1
FullNghs:           16 ave         128 max           0 min
Histogram: 7 0 0 0 0 0 0 0 0 1

Total # of neighbors = 128
Ave neighs/atom = 64
Neighbor list builds = 0
Dangerous builds = 0
variable  natoms equal "count(all)"
variable xlength equal "lx"
variable  volume equal "vol"
variable  etotal equal "etotal"
variable    ecoh equal "pe/v_natoms"
print "${xlength}, ${volume}, ${etotal}, ${ecoh}" append lattice_cohesive_energy.txt screen no

next i
jump SELF loop

change_box all x scale 1.0025 y scale 1.0025 z scale 1.0025 remap
Changing box ...
  orthogonal box = (0.084792496 0.088346629 0.088346629) to (2.9352075 2.9316534 2.9316534)
  orthogonal box = (0.084792496 0.084792496 0.088346629) to (2.9352075 2.9352075 2.9316534)
  orthogonal box = (0.084792496 0.084792496 0.084792496) to (2.9352075 2.9352075 2.9352075)

run 1
WARNING: No fixes with time integration, atoms won't move (src/verlet.cpp:60)
WARNING: Proc sub-domain size < neighbor skin, could lead to lost atoms (src/domain.cpp:966)
Per MPI rank memory allocation (min/avg/max) = 8.572 | 8.573 | 8.573 Mbytes
   Step         PotEng         TotEng           Lx             Ly             Lz           Volume         Press           Pxx            Pyy            Pzz      
        13  -8.9252939     -8.9252939      2.850415       2.850415       2.850415       23.159239      265821.82      265821.82      265821.82      265821.82    
        14  -8.9252939     -8.9252939      2.850415       2.850415       2.850415       23.159239      265821.82      265821.82      265821.82      265821.82    
Loop time of 0.000223125 on 8 procs for 1 steps with 2 atoms

Performance: 387.227 ns/day, 0.062 hours/ns, 4481.793 timesteps/s, 8.964 katom-step/s
875.4% CPU use with 8 MPI tasks x 1 OpenMP threads

MPI task timing breakdown:
Section |  min time  |  avg time  |  max time  |%varavg| %total
---------------------------------------------------------------
Pair    | 0.000139   | 0.0001565  | 0.000176   |   0.0 | 70.14
Neigh   | 0          | 0          | 0          |   0.0 |  0.00
Comm    | 1.4e-05    | 2.95e-05   | 5.9e-05    |   0.0 | 13.22
Output  | 1.7e-05    | 2.95e-05   | 6.1e-05    |   0.0 | 13.22
Modify  | 0          | 2.5e-07    | 2e-06      |   0.0 |  0.11
Other   |            | 7.375e-06  |            |       |  3.31

Nlocal:           0.25 ave           2 max           0 min
Histogram: 7 0 0 0 0 0 0 0 0 1
Nghost:         249.75 ave         250 max         248 min
Histogram: 1 0 0 0 0 0 0 0 0 7
Neighs:              8 ave          64 max           0 min
Histogram: 7 0 0 0 0 0 0 0 0 1
FullNghs:           16 ave         128 max           0 min
Histogram: 7 0 0 0 0 0 0 0 0 1

Total # of neighbors = 128
Ave neighs/atom = 64
Neighbor list builds = 0
Dangerous builds = 0
variable  natoms equal "count(all)"
variable xlength equal "lx"
variable  volume equal "vol"
variable  etotal equal "etotal"
variable    ecoh equal "pe/v_natoms"
print "${xlength}, ${volume}, ${etotal}, ${ecoh}" append lattice_cohesive_energy.txt screen no

next i
jump SELF loop

change_box all x scale 1.0025 y scale 1.0025 z scale 1.0025 remap
Changing box ...
  orthogonal box = (0.081229477 0.084792496 0.084792496) to (2.9387705 2.9352075 2.9352075)
  orthogonal box = (0.081229477 0.081229477 0.084792496) to (2.9387705 2.9387705 2.9352075)
  orthogonal box = (0.081229477 0.081229477 0.081229477) to (2.9387705 2.9387705 2.9387705)

run 1
WARNING: No fixes with time integration, atoms won't move (src/verlet.cpp:60)
WARNING: Proc sub-domain size < neighbor skin, could lead to lost atoms (src/domain.cpp:966)
Per MPI rank memory allocation (min/avg/max) = 8.572 | 8.573 | 8.573 Mbytes
   Step         PotEng         TotEng           Lx             Ly             Lz           Volume         Press           Pxx            Pyy            Pzz      
        14  -8.9532854     -8.9532854      2.857541       2.857541       2.857541       23.333368      249373.34      249373.34      249373.34      249373.34    
        15  -8.9532854     -8.9532854      2.857541       2.857541       2.857541       23.333368      249373.34      249373.34      249373.34      249373.34    
Loop time of 0.000223 on 8 procs for 1 steps with 2 atoms

Performance: 387.444 ns/day, 0.062 hours/ns, 4484.305 timesteps/s, 8.969 katom-step/s
0.0% CPU use with 8 MPI tasks x 1 OpenMP threads

MPI task timing breakdown:
Section |  min time  |  avg time  |  max time  |%varavg| %total
---------------------------------------------------------------
Pair    | 0.000138   | 0.0001555  | 0.000177   |   0.0 | 69.73
Neigh   | 0          | 0          | 0          |   0.0 |  0.00
Comm    | 1.4e-05    | 2.95e-05   | 6e-05      |   0.0 | 13.23
Output  | 1.7e-05    | 3.0875e-05 | 6.1e-05    |   0.0 | 13.85
Modify  | 0          | 0          | 0          |   0.0 |  0.00
Other   |            | 7.125e-06  |            |       |  3.20

Nlocal:           0.25 ave           2 max           0 min
Histogram: 7 0 0 0 0 0 0 0 0 1
Nghost:         249.75 ave         250 max         248 min
Histogram: 1 0 0 0 0 0 0 0 0 7
Neighs:              8 ave          64 max           0 min
Histogram: 7 0 0 0 0 0 0 0 0 1
FullNghs:           16 ave         128 max           0 min
Histogram: 7 0 0 0 0 0 0 0 0 1

Total # of neighbors = 128
Ave neighs/atom = 64
Neighbor list builds = 0
Dangerous builds = 0
variable  natoms equal "count(all)"
variable xlength equal "lx"
variable  volume equal "vol"
variable  etotal equal "etotal"
variable    ecoh equal "pe/v_natoms"
print "${xlength}, ${volume}, ${etotal}, ${ecoh}" append lattice_cohesive_energy.txt screen no

next i
jump SELF loop

change_box all x scale 1.0025 y scale 1.0025 z scale 1.0025 remap
Changing box ...
  orthogonal box = (0.077657551 0.081229477 0.081229477) to (2.9423424 2.9387705 2.9387705)
  orthogonal box = (0.077657551 0.077657551 0.081229477) to (2.9423424 2.9423424 2.9387705)
  orthogonal box = (0.077657551 0.077657551 0.077657551) to (2.9423424 2.9423424 2.9423424)

run 1
WARNING: No fixes with time integration, atoms won't move (src/verlet.cpp:60)
WARNING: Proc sub-domain size < neighbor skin, could lead to lost atoms (src/domain.cpp:966)
Per MPI rank memory allocation (min/avg/max) = 8.572 | 8.573 | 8.573 Mbytes
   Step         PotEng         TotEng           Lx             Ly             Lz           Volume         Press           Pxx            Pyy            Pzz      
        15  -8.979709      -8.979709       2.8646849      2.8646849      2.8646849      23.508806      233338.64      233338.64      233338.64      233338.64    
        16  -8.979709      -8.979709       2.8646849      2.8646849      2.8646849      23.508806      233338.64      233338.64      233338.64      233338.64    
Loop time of 0.00022175 on 8 procs for 1 steps with 2 atoms

Performance: 389.628 ns/day, 0.062 hours/ns, 4509.583 timesteps/s, 9.019 katom-step/s
0.0% CPU use with 8 MPI tasks x 1 OpenMP threads

MPI task timing breakdown:
Section |  min time  |  avg time  |  max time  |%varavg| %total
---------------------------------------------------------------
Pair    | 0.000137   | 0.00015413 | 0.000175   |   0.0 | 69.50
Neigh   | 0          | 0          | 0          |   0.0 |  0.00
Comm    | 1.4e-05    | 2.9375e-05 | 5.9e-05    |   0.0 | 13.25
Output  | 1.7e-05    | 3.1125e-05 | 6.1e-05    |   0.0 | 14.04
Modify  | 0          | 1.25e-07   | 1e-06      |   0.0 |  0.06
Other   |            | 7e-06      |            |       |  3.16

Nlocal:           0.25 ave           2 max           0 min
Histogram: 7 0 0 0 0 0 0 0 0 1
Nghost:         249.75 ave         250 max         248 min
Histogram: 1 0 0 0 0 0 0 0 0 7
Neighs:              8 ave          64 max           0 min
Histogram: 7 0 0 0 0 0 0 0 0 1
FullNghs:           16 ave         128 max           0 min
Histogram: 7 0 0 0 0 0 0 0 0 1

Total # of neighbors = 128
Ave neighs/atom = 64
Neighbor list builds = 0
Dangerous builds = 0
variable  natoms equal "count(all)"
variable xlength equal "lx"
variable  volume equal "vol"
variable  etotal equal "etotal"
variable    ecoh equal "pe/v_natoms"
print "${xlength}, ${volume}, ${etotal}, ${ecoh}" append lattice_cohesive_energy.txt screen no

next i
jump SELF loop

change_box all x scale 1.0025 y scale 1.0025 z scale 1.0025 remap
Changing box ...
  orthogonal box = (0.074076694 0.077657551 0.077657551) to (2.9459233 2.9423424 2.9423424)
  orthogonal box = (0.074076694 0.074076694 0.077657551) to (2.9459233 2.9459233 2.9423424)
  orthogonal box = (0.074076694 0.074076694 0.074076694) to (2.9459233 2.9459233 2.9459233)

run 1
WARNING: No fixes with time integration, atoms won't move (src/verlet.cpp:60)
WARNING: Proc sub-domain size < neighbor skin, could lead to lost atoms (src/domain.cpp:966)
Per MPI rank memory allocation (min/avg/max) = 8.572 | 8.573 | 8.573 Mbytes
   Step         PotEng         TotEng           Lx             Ly             Lz           Volume         Press           Pxx            Pyy            Pzz      
        16  -9.0045848     -9.0045848      2.8718466      2.8718466      2.8718466      23.685563      217710.14      217710.14      217710.14      217710.14    
        17  -9.0045848     -9.0045848      2.8718466      2.8718466      2.8718466      23.685563      217710.14      217710.14      217710.14      217710.14    
Loop time of 0.000222 on 8 procs for 1 steps with 2 atoms

Performance: 389.189 ns/day, 0.062 hours/ns, 4504.505 timesteps/s, 9.009 katom-step/s
0.0% CPU use with 8 MPI tasks x 1 OpenMP threads

MPI task timing breakdown:
Section |  min time  |  avg time  |  max time  |%varavg| %total
---------------------------------------------------------------
Pair    | 0.000139   | 0.00015612 | 0.000178   |   0.0 | 70.33
Neigh   | 0          | 0          | 0          |   0.0 |  0.00
Comm    | 1.5e-05    | 2.9e-05    | 5.8e-05    |   0.0 | 13.06
Output  | 1.6e-05    | 3e-05      | 6e-05      |   0.0 | 13.51
Modify  | 0          | 1.25e-07   | 1e-06      |   0.0 |  0.06
Other   |            | 6.75e-06   |            |       |  3.04

Nlocal:           0.25 ave           2 max           0 min
Histogram: 7 0 0 0 0 0 0 0 0 1
Nghost:         249.75 ave         250 max         248 min
Histogram: 1 0 0 0 0 0 0 0 0 7
Neighs:              8 ave          64 max           0 min
Histogram: 7 0 0 0 0 0 0 0 0 1
FullNghs:           16 ave         128 max           0 min
Histogram: 7 0 0 0 0 0 0 0 0 1

Total # of neighbors = 128
Ave neighs/atom = 64
Neighbor list builds = 0
Dangerous builds = 0
variable  natoms equal "count(all)"
variable xlength equal "lx"
variable  volume equal "vol"
variable  etotal equal "etotal"
variable    ecoh equal "pe/v_natoms"
print "${xlength}, ${volume}, ${etotal}, ${ecoh}" append lattice_cohesive_energy.txt screen no

next i
jump SELF loop

change_box all x scale 1.0025 y scale 1.0025 z scale 1.0025 remap
Changing box ...
  orthogonal box = (0.070486886 0.074076694 0.074076694) to (2.9495131 2.9459233 2.9459233)
  orthogonal box = (0.070486886 0.070486886 0.074076694) to (2.9495131 2.9495131 2.9459233)
  orthogonal box = (0.070486886 0.070486886 0.070486886) to (2.9495131 2.9495131 2.9495131)

run 1
WARNING: No fixes with time integration, atoms won't move (src/verlet.cpp:60)
WARNING: Proc sub-domain size < neighbor skin, could lead to lost atoms (src/domain.cpp:966)
Per MPI rank memory allocation (min/avg/max) = 8.572 | 8.573 | 8.573 Mbytes
   Step         PotEng         TotEng           Lx             Ly             Lz           Volume         Press           Pxx            Pyy            Pzz      
        17  -9.0279328     -9.0279328      2.8790262      2.8790262      2.8790262      23.86365       202480.6       202480.6       202480.6       202480.6     
        18  -9.0279328     -9.0279328      2.8790262      2.8790262      2.8790262      23.86365       202480.6       202480.6       202480.6       202480.6     
Loop time of 0.000222 on 8 procs for 1 steps with 2 atoms

Performance: 389.189 ns/day, 0.062 hours/ns, 4504.505 timesteps/s, 9.009 katom-step/s
0.0% CPU use with 8 MPI tasks x 1 OpenMP threads

MPI task timing breakdown:
Section |  min time  |  avg time  |  max time  |%varavg| %total
---------------------------------------------------------------
Pair    | 0.000138   | 0.00015512 | 0.000176   |   0.0 | 69.88
Neigh   | 0          | 0          | 0          |   0.0 |  0.00
Comm    | 1.4e-05    | 2.9375e-05 | 5.9e-05    |   0.0 | 13.23
Output  | 1.6e-05    | 3.075e-05  | 6.1e-05    |   0.0 | 13.85
Modify  | 0          | 2.5e-07    | 1e-06      |   0.0 |  0.11
Other   |            | 6.5e-06    |            |       |  2.93

Nlocal:           0.25 ave           2 max           0 min
Histogram: 7 0 0 0 0 0 0 0 0 1
Nghost:         249.75 ave         250 max         248 min
Histogram: 1 0 0 0 0 0 0 0 0 7
Neighs:              8 ave          64 max           0 min
Histogram: 7 0 0 0 0 0 0 0 0 1
FullNghs:           16 ave         128 max           0 min
Histogram: 7 0 0 0 0 0 0 0 0 1

Total # of neighbors = 128
Ave neighs/atom = 64
Neighbor list builds = 0
Dangerous builds = 0
variable  natoms equal "count(all)"
variable xlength equal "lx"
variable  volume equal "vol"
variable  etotal equal "etotal"
variable    ecoh equal "pe/v_natoms"
print "${xlength}, ${volume}, ${etotal}, ${ecoh}" append lattice_cohesive_energy.txt screen no

next i
jump SELF loop

change_box all x scale 1.0025 y scale 1.0025 z scale 1.0025 remap
Changing box ...
  orthogonal box = (0.066888103 0.070486886 0.070486886) to (2.9531119 2.9495131 2.9495131)
  orthogonal box = (0.066888103 0.066888103 0.070486886) to (2.9531119 2.9531119 2.9495131)
  orthogonal box = (0.066888103 0.066888103 0.066888103) to (2.9531119 2.9531119 2.9531119)

run 1
WARNING: No fixes with time integration, atoms won't move (src/verlet.cpp:60)
WARNING: Proc sub-domain size < neighbor skin, could lead to lost atoms (src/domain.cpp:966)
Per MPI rank memory allocation (min/avg/max) = 8.572 | 8.573 | 8.573 Mbytes
   Step         PotEng         TotEng           Lx             Ly             Lz           Volume         Press           Pxx            Pyy            Pzz      
        18  -9.0497728     -9.0497728      2.8862238      2.8862238      2.8862238      24.043075      187642.63      187642.63      187642.63      187642.63    
        19  -9.0497728     -9.0497728      2.8862238      2.8862238      2.8862238      24.043075      187642.63      187642.63      187642.63      187642.63    
Loop time of 0.000223375 on 8 procs for 1 steps with 2 atoms

Performance: 386.794 ns/day, 0.062 hours/ns, 4476.777 timesteps/s, 8.954 katom-step/s
0.0% CPU use with 8 MPI tasks x 1 OpenMP threads

MPI task timing breakdown:
Section |  min time  |  avg time  |  max time  |%varavg| %total
---------------------------------------------------------------
Pair    | 0.000139   | 0.000157   | 0.000178   |   0.0 | 70.29
Neigh   | 0          | 0          | 0          |   0.0 |  0.00
Comm    | 1.3e-05    | 2.8625e-05 | 5.9e-05    |   0.0 | 12.81
Output  | 1.7e-05    | 3.05e-05   | 6.2e-05    |   0.0 | 13.65
Modify  | 0          | 1.25e-07   | 1e-06      |   0.0 |  0.06
Other   |            | 7.125e-06  |            |       |  3.19

Nlocal:           0.25 ave           2 max           0 min
Histogram: 7 0 0 0 0 0 0 0 0 1
Nghost:         249.75 ave         250 max         248 min
Histogram: 1 0 0 0 0 0 0 0 0 7
Neighs:              8 ave          64 max           0 min
Histogram: 7 0 0 0 0 0 0 0 0 1
FullNghs:           16 ave         128 max           0 min
Histogram: 7 0 0 0 0 0 0 0 0 1

Total # of neighbors = 128
Ave neighs/atom = 64
Neighbor list builds = 0
Dangerous builds = 0
variable  natoms equal "count(all)"
variable xlength equal "lx"
variable  volume equal "vol"
variable  etotal equal "etotal"
variable    ecoh equal "pe/v_natoms"
print "${xlength}, ${volume}, ${etotal}, ${ecoh}" append lattice_cohesive_energy.txt screen no

next i
jump SELF loop

change_box all x scale 1.0025 y scale 1.0025 z scale 1.0025 remap
Changing box ...
  orthogonal box = (0.063280324 0.066888103 0.066888103) to (2.9567197 2.9531119 2.9531119)
  orthogonal box = (0.063280324 0.063280324 0.066888103) to (2.9567197 2.9567197 2.9531119)
  orthogonal box = (0.063280324 0.063280324 0.063280324) to (2.9567197 2.9567197 2.9567197)

run 1
WARNING: No fixes with time integration, atoms won't move (src/verlet.cpp:60)
WARNING: Proc sub-domain size < neighbor skin, could lead to lost atoms (src/domain.cpp:966)
Per MPI rank memory allocation (min/avg/max) = 8.572 | 8.573 | 8.573 Mbytes
   Step         PotEng         TotEng           Lx             Ly             Lz           Volume         Press           Pxx            Pyy            Pzz      
        19  -9.0701246     -9.0701246      2.8934394      2.8934394      2.8934394      24.223849      173189.16      173189.16      173189.16      173189.16    
        20  -9.0701246     -9.0701246      2.8934394      2.8934394      2.8934394      24.223849      173189.16      173189.16      173189.16      173189.16    
Loop time of 0.00021475 on 8 procs for 1 steps with 2 atoms

Performance: 402.328 ns/day, 0.060 hours/ns, 4656.577 timesteps/s, 9.313 katom-step/s
0.0% CPU use with 8 MPI tasks x 1 OpenMP threads

MPI task timing breakdown:
Section |  min time  |  avg time  |  max time  |%varavg| %total
---------------------------------------------------------------
Pair    | 0.000134   | 0.00015013 | 0.000171   |   0.0 | 69.91
Neigh   | 0          | 0          | 0          |   0.0 |  0.00
Comm    | 1.3e-05    | 2.8125e-05 | 5.6e-05    |   0.0 | 13.10
Output  | 1.6e-05    | 2.95e-05   | 5.9e-05    |   0.0 | 13.74
Modify  | 0          | 2.5e-07    | 1e-06      |   0.0 |  0.12
Other   |            | 6.75e-06   |            |       |  3.14

Nlocal:           0.25 ave           2 max           0 min
Histogram: 7 0 0 0 0 0 0 0 0 1
Nghost:         249.75 ave         250 max         248 min
Histogram: 1 0 0 0 0 0 0 0 0 7
Neighs:              8 ave          64 max           0 min
Histogram: 7 0 0 0 0 0 0 0 0 1
FullNghs:           16 ave         128 max           0 min
Histogram: 7 0 0 0 0 0 0 0 0 1

Total # of neighbors = 128
Ave neighs/atom = 64
Neighbor list builds = 0
Dangerous builds = 0
variable  natoms equal "count(all)"
variable xlength equal "lx"
variable  volume equal "vol"
variable  etotal equal "etotal"
variable    ecoh equal "pe/v_natoms"
print "${xlength}, ${volume}, ${etotal}, ${ecoh}" append lattice_cohesive_energy.txt screen no

next i
jump SELF loop

change_box all x scale 1.0025 y scale 1.0025 z scale 1.0025 remap
Changing box ...
  orthogonal box = (0.059663524 0.063280324 0.063280324) to (2.9603365 2.9567197 2.9567197)
  orthogonal box = (0.059663524 0.059663524 0.063280324) to (2.9603365 2.9603365 2.9567197)
  orthogonal box = (0.059663524 0.059663524 0.059663524) to (2.9603365 2.9603365 2.9603365)

run 1
WARNING: No fixes with time integration, atoms won't move (src/verlet.cpp:60)
WARNING: Proc sub-domain size < neighbor skin, could lead to lost atoms (src/domain.cpp:966)
Per MPI rank memory allocation (min/avg/max) = 8.572 | 8.573 | 8.573 Mbytes
   Step         PotEng         TotEng           Lx             Ly             Lz           Volume         Press           Pxx            Pyy            Pzz      
        20  -9.0890079     -9.0890079      2.900673       2.900673       2.900673       24.405982      159113.09      159113.09      159113.09      159113.09    
        21  -9.0890079     -9.0890079      2.900673       2.900673       2.900673       24.405982      159113.09      159113.09      159113.09      159113.09    
Loop time of 0.000215625 on 8 procs for 1 steps with 2 atoms

Performance: 400.696 ns/day, 0.060 hours/ns, 4637.681 timesteps/s, 9.275 katom-step/s
0.0% CPU use with 8 MPI tasks x 1 OpenMP threads

MPI task timing breakdown:
Section |  min time  |  avg time  |  max time  |%varavg| %total
---------------------------------------------------------------
Pair    | 0.000136   | 0.000151   | 0.00017    |   0.0 | 70.03
Neigh   | 0          | 0          | 0          |   0.0 |  0.00
Comm    | 1.4e-05    | 2.825e-05  | 5.6e-05    |   0.0 | 13.10
Output  | 1.6e-05    | 2.9625e-05 | 5.7e-05    |   0.0 | 13.74
Modify  | 0          | 1.25e-07   | 1e-06      |   0.0 |  0.06
Other   |            | 6.625e-06  |            |       |  3.07

Nlocal:           0.25 ave           2 max           0 min
Histogram: 7 0 0 0 0 0 0 0 0 1
Nghost:         249.75 ave         250 max         248 min
Histogram: 1 0 0 0 0 0 0 0 0 7
Neighs:              8 ave          64 max           0 min
Histogram: 7 0 0 0 0 0 0 0 0 1
FullNghs:           16 ave         128 max           0 min
Histogram: 7 0 0 0 0 0 0 0 0 1

Total # of neighbors = 128
Ave neighs/atom = 64
Neighbor list builds = 0
Dangerous builds = 0
variable  natoms equal "count(all)"
variable xlength equal "lx"
variable  volume equal "vol"
variable  etotal equal "etotal"
variable    ecoh equal "pe/v_natoms"
print "${xlength}, ${volume}, ${etotal}, ${ecoh}" append lattice_cohesive_energy.txt screen no

next i
jump SELF loop

change_box all x scale 1.0025 y scale 1.0025 z scale 1.0025 remap
Changing box ...
  orthogonal box = (0.056037683 0.059663524 0.059663524) to (2.9639623 2.9603365 2.9603365)
  orthogonal box = (0.056037683 0.056037683 0.059663524) to (2.9639623 2.9639623 2.9603365)
  orthogonal box = (0.056037683 0.056037683 0.056037683) to (2.9639623 2.9639623 2.9639623)

run 1
WARNING: No fixes with time integration, atoms won't move (src/verlet.cpp:60)
WARNING: Proc sub-domain size < neighbor skin, could lead to lost atoms (src/domain.cpp:966)
Per MPI rank memory allocation (min/avg/max) = 8.572 | 8.573 | 8.573 Mbytes
   Step         PotEng         TotEng           Lx             Ly             Lz           Volume         Press           Pxx            Pyy            Pzz      
        21  -9.1064423     -9.1064423      2.9079246      2.9079246      2.9079246      24.589485      145407.4       145407.4       145407.4       145407.4     
        22  -9.1064423     -9.1064423      2.9079246      2.9079246      2.9079246      24.589485      145407.4       145407.4       145407.4       145407.4     
Loop time of 0.000167375 on 8 procs for 1 steps with 2 atoms

Performance: 516.206 ns/day, 0.046 hours/ns, 5974.608 timesteps/s, 11.949 katom-step/s
0.0% CPU use with 8 MPI tasks x 1 OpenMP threads

MPI task timing breakdown:
Section |  min time  |  avg time  |  max time  |%varavg| %total
---------------------------------------------------------------
Pair    | 0.000114   | 0.00011863 | 0.000128   |   0.0 | 70.87
Neigh   | 0          | 0          | 0          |   0.0 |  0.00
Comm    | 1.4e-05    | 2.0875e-05 | 3.1e-05    |   0.0 | 12.47
Output  | 1.4e-05    | 2.1625e-05 | 3.2e-05    |   0.0 | 12.92
Modify  | 0          | 2.5e-07    | 1e-06      |   0.0 |  0.15
Other   |            | 6e-06      |            |       |  3.58

Nlocal:           0.25 ave           2 max           0 min
Histogram: 7 0 0 0 0 0 0 0 0 1
Nghost:         249.75 ave         250 max         248 min
Histogram: 1 0 0 0 0 0 0 0 0 7
Neighs:              8 ave          64 max           0 min
Histogram: 7 0 0 0 0 0 0 0 0 1
FullNghs:           16 ave         128 max           0 min
Histogram: 7 0 0 0 0 0 0 0 0 1

Total # of neighbors = 128
Ave neighs/atom = 64
Neighbor list builds = 0
Dangerous builds = 0
variable  natoms equal "count(all)"
variable xlength equal "lx"
variable  volume equal "vol"
variable  etotal equal "etotal"
variable    ecoh equal "pe/v_natoms"
print "${xlength}, ${volume}, ${etotal}, ${ecoh}" append lattice_cohesive_energy.txt screen no

next i
jump SELF loop

change_box all x scale 1.0025 y scale 1.0025 z scale 1.0025 remap
Changing box ...
  orthogonal box = (0.052402777 0.056037683 0.056037683) to (2.9675972 2.9639623 2.9639623)
  orthogonal box = (0.052402777 0.052402777 0.056037683) to (2.9675972 2.9675972 2.9639623)
  orthogonal box = (0.052402777 0.052402777 0.052402777) to (2.9675972 2.9675972 2.9675972)

run 1
WARNING: No fixes with time integration, atoms won't move (src/verlet.cpp:60)
WARNING: Proc sub-domain size < neighbor skin, could lead to lost atoms (src/domain.cpp:966)
Per MPI rank memory allocation (min/avg/max) = 8.572 | 8.573 | 8.573 Mbytes
   Step         PotEng         TotEng           Lx             Ly             Lz           Volume         Press           Pxx            Pyy            Pzz      
        22  -9.1224473     -9.1224473      2.9151944      2.9151944      2.9151944      24.774368      132065.34      132065.34      132065.34      132065.34    
        23  -9.1224473     -9.1224473      2.9151944      2.9151944      2.9151944      24.774368      132065.34      132065.34      132065.34      132065.34    
Loop time of 0.0001765 on 8 procs for 1 steps with 2 atoms

Performance: 489.518 ns/day, 0.049 hours/ns, 5665.722 timesteps/s, 11.331 katom-step/s
0.0% CPU use with 8 MPI tasks x 1 OpenMP threads

MPI task timing breakdown:
Section |  min time  |  avg time  |  max time  |%varavg| %total
---------------------------------------------------------------
Pair    | 0.000123   | 0.00012663 | 0.000134   |   0.0 | 71.74
Neigh   | 0          | 0          | 0          |   0.0 |  0.00
Comm    | 1.7e-05    | 2.2e-05    | 2.9e-05    |   0.0 | 12.46
Output  | 1.6e-05    | 2.1375e-05 | 3e-05      |   0.0 | 12.11
Modify  | 0          | 1.25e-07   | 1e-06      |   0.0 |  0.07
Other   |            | 6.375e-06  |            |       |  3.61

Nlocal:           0.25 ave           2 max           0 min
Histogram: 7 0 0 0 0 0 0 0 0 1
Nghost:         249.75 ave         250 max         248 min
Histogram: 1 0 0 0 0 0 0 0 0 7
Neighs:              8 ave          64 max           0 min
Histogram: 7 0 0 0 0 0 0 0 0 1
FullNghs:           16 ave         128 max           0 min
Histogram: 7 0 0 0 0 0 0 0 0 1

Total # of neighbors = 128
Ave neighs/atom = 64
Neighbor list builds = 0
Dangerous builds = 0
variable  natoms equal "count(all)"
variable xlength equal "lx"
variable  volume equal "vol"
variable  etotal equal "etotal"
variable    ecoh equal "pe/v_natoms"
print "${xlength}, ${volume}, ${etotal}, ${ecoh}" append lattice_cohesive_energy.txt screen no

next i
jump SELF loop

change_box all x scale 1.0025 y scale 1.0025 z scale 1.0025 remap
Changing box ...
  orthogonal box = (0.048758784 0.052402777 0.052402777) to (2.9712412 2.9675972 2.9675972)
  orthogonal box = (0.048758784 0.048758784 0.052402777) to (2.9712412 2.9712412 2.9675972)
  orthogonal box = (0.048758784 0.048758784 0.048758784) to (2.9712412 2.9712412 2.9712412)

run 1
WARNING: No fixes with time integration, atoms won't move (src/verlet.cpp:60)
WARNING: Proc sub-domain size < neighbor skin, could lead to lost atoms (src/domain.cpp:966)
Per MPI rank memory allocation (min/avg/max) = 8.572 | 8.573 | 8.573 Mbytes
   Step         PotEng         TotEng           Lx             Ly             Lz           Volume         Press           Pxx            Pyy            Pzz      
        23  -9.1370423     -9.1370423      2.9224824      2.9224824      2.9224824      24.960641      119080         119080         119080         119080       
        24  -9.1370423     -9.1370423      2.9224824      2.9224824      2.9224824      24.960641      119080         119080         119080         119080       
Loop time of 0.000170375 on 8 procs for 1 steps with 2 atoms

Performance: 507.117 ns/day, 0.047 hours/ns, 5869.406 timesteps/s, 11.739 katom-step/s
0.0% CPU use with 8 MPI tasks x 1 OpenMP threads

MPI task timing breakdown:
Section |  min time  |  avg time  |  max time  |%varavg| %total
---------------------------------------------------------------
Pair    | 0.000117   | 0.00011937 | 0.000126   |   0.0 | 70.07
Neigh   | 0          | 0          | 0          |   0.0 |  0.00
Comm    | 1.6e-05    | 2.1625e-05 | 2.8e-05    |   0.0 | 12.69
Output  | 1.5e-05    | 2.025e-05  | 2.8e-05    |   0.0 | 11.89
Modify  | 0          | 5e-07      | 1e-06      |   0.0 |  0.29
Other   |            | 8.625e-06  |            |       |  5.06

Nlocal:           0.25 ave           2 max           0 min
Histogram: 7 0 0 0 0 0 0 0 0 1
Nghost:         249.75 ave         250 max         248 min
Histogram: 1 0 0 0 0 0 0 0 0 7
Neighs:              8 ave          64 max           0 min
Histogram: 7 0 0 0 0 0 0 0 0 1
FullNghs:           16 ave         128 max           0 min
Histogram: 7 0 0 0 0 0 0 0 0 1

Total # of neighbors = 128
Ave neighs/atom = 64
Neighbor list builds = 0
Dangerous builds = 0
variable  natoms equal "count(all)"
variable xlength equal "lx"
variable  volume equal "vol"
variable  etotal equal "etotal"
variable    ecoh equal "pe/v_natoms"
print "${xlength}, ${volume}, ${etotal}, ${ecoh}" append lattice_cohesive_energy.txt screen no

next i
jump SELF loop

change_box all x scale 1.0025 y scale 1.0025 z scale 1.0025 remap
Changing box ...
  orthogonal box = (0.045105681 0.048758784 0.048758784) to (2.9748943 2.9712412 2.9712412)
  orthogonal box = (0.045105681 0.045105681 0.048758784) to (2.9748943 2.9748943 2.9712412)
  orthogonal box = (0.045105681 0.045105681 0.045105681) to (2.9748943 2.9748943 2.9748943)

run 1
WARNING: No fixes with time integration, atoms won't move (src/verlet.cpp:60)
WARNING: Proc sub-domain size < neighbor skin, could lead to lost atoms (src/domain.cpp:966)
Per MPI rank memory allocation (min/avg/max) = 8.572 | 8.573 | 8.573 Mbytes
   Step         PotEng         TotEng           Lx             Ly             Lz           Volume         Press           Pxx            Pyy            Pzz      
        24  -9.1502466     -9.1502466      2.9297886      2.9297886      2.9297886      25.148314      106444.85      106444.85      106444.85      106444.85    
        25  -9.1502466     -9.1502466      2.9297886      2.9297886      2.9297886      25.148314      106444.85      106444.85      106444.85      106444.85    
Loop time of 0.00016825 on 8 procs for 1 steps with 2 atoms

Performance: 513.522 ns/day, 0.047 hours/ns, 5943.536 timesteps/s, 11.887 katom-step/s
0.0% CPU use with 8 MPI tasks x 1 OpenMP threads

MPI task timing breakdown:
Section |  min time  |  avg time  |  max time  |%varavg| %total
---------------------------------------------------------------
Pair    | 0.000117   | 0.00012012 | 0.000126   |   0.0 | 71.40
Neigh   | 0          | 0          | 0          |   0.0 |  0.00
Comm    | 1.5e-05    | 2.1e-05    | 2.7e-05    |   0.0 | 12.48
Output  | 1.6e-05    | 2.1e-05    | 2.8e-05    |   0.0 | 12.48
Modify  | 0          | 0          | 0          |   0.0 |  0.00
Other   |            | 6.125e-06  |            |       |  3.64

Nlocal:           0.25 ave           2 max           0 min
Histogram: 7 0 0 0 0 0 0 0 0 1
Nghost:         249.75 ave         250 max         248 min
Histogram: 1 0 0 0 0 0 0 0 0 7
Neighs:              8 ave          64 max           0 min
Histogram: 7 0 0 0 0 0 0 0 0 1
FullNghs:           16 ave         128 max           0 min
Histogram: 7 0 0 0 0 0 0 0 0 1

Total # of neighbors = 128
Ave neighs/atom = 64
Neighbor list builds = 0
Dangerous builds = 0
variable  natoms equal "count(all)"
variable xlength equal "lx"
variable  volume equal "vol"
variable  etotal equal "etotal"
variable    ecoh equal "pe/v_natoms"
print "${xlength}, ${volume}, ${etotal}, ${ecoh}" append lattice_cohesive_energy.txt screen no

next i
jump SELF loop

change_box all x scale 1.0025 y scale 1.0025 z scale 1.0025 remap
Changing box ...
  orthogonal box = (0.041443446 0.045105681 0.045105681) to (2.9785566 2.9748943 2.9748943)
  orthogonal box = (0.041443446 0.041443446 0.045105681) to (2.9785566 2.9785566 2.9748943)
  orthogonal box = (0.041443446 0.041443446 0.041443446) to (2.9785566 2.9785566 2.9785566)

run 1
WARNING: No fixes with time integration, atoms won't move (src/verlet.cpp:60)
WARNING: Proc sub-domain size < neighbor skin, could lead to lost atoms (src/domain.cpp:966)
Per MPI rank memory allocation (min/avg/max) = 8.572 | 8.573 | 8.573 Mbytes
   Step         PotEng         TotEng           Lx             Ly             Lz           Volume         Press           Pxx            Pyy            Pzz      
        25  -9.1620793     -9.1620793      2.9371131      2.9371131      2.9371131      25.337398      94153.201      94153.201      94153.201      94153.201    
        26  -9.1620793     -9.1620793      2.9371131      2.9371131      2.9371131      25.337398      94153.201      94153.201      94153.201      94153.201    
Loop time of 0.00017225 on 8 procs for 1 steps with 2 atoms

Performance: 501.597 ns/day, 0.048 hours/ns, 5805.515 timesteps/s, 11.611 katom-step/s
1133.9% CPU use with 8 MPI tasks x 1 OpenMP threads

MPI task timing breakdown:
Section |  min time  |  avg time  |  max time  |%varavg| %total
---------------------------------------------------------------
Pair    | 0.000116   | 0.000121   | 0.00013    |   0.0 | 70.25
Neigh   | 0          | 0          | 0          |   0.0 |  0.00
Comm    | 1.4e-05    | 2.125e-05  | 3.3e-05    |   0.0 | 12.34
Output  | 1.5e-05    | 2.2125e-05 | 3.3e-05    |   0.0 | 12.84
Modify  | 0          | 3.75e-07   | 1e-06      |   0.0 |  0.22
Other   |            | 7.5e-06    |            |       |  4.35

Nlocal:           0.25 ave           2 max           0 min
Histogram: 7 0 0 0 0 0 0 0 0 1
Nghost:         249.75 ave         250 max         248 min
Histogram: 1 0 0 0 0 0 0 0 0 7
Neighs:              8 ave          64 max           0 min
Histogram: 7 0 0 0 0 0 0 0 0 1
FullNghs:           16 ave         128 max           0 min
Histogram: 7 0 0 0 0 0 0 0 0 1

Total # of neighbors = 128
Ave neighs/atom = 64
Neighbor list builds = 0
Dangerous builds = 0
variable  natoms equal "count(all)"
variable xlength equal "lx"
variable  volume equal "vol"
variable  etotal equal "etotal"
variable    ecoh equal "pe/v_natoms"
print "${xlength}, ${volume}, ${etotal}, ${ecoh}" append lattice_cohesive_energy.txt screen no

next i
jump SELF loop

change_box all x scale 1.0025 y scale 1.0025 z scale 1.0025 remap
Changing box ...
  orthogonal box = (0.037772054 0.041443446 0.041443446) to (2.9822279 2.9785566 2.9785566)
  orthogonal box = (0.037772054 0.037772054 0.041443446) to (2.9822279 2.9822279 2.9785566)
  orthogonal box = (0.037772054 0.037772054 0.037772054) to (2.9822279 2.9822279 2.9822279)

run 1
WARNING: No fixes with time integration, atoms won't move (src/verlet.cpp:60)
WARNING: Proc sub-domain size < neighbor skin, could lead to lost atoms (src/domain.cpp:966)
Per MPI rank memory allocation (min/avg/max) = 8.572 | 8.573 | 8.573 Mbytes
   Step         PotEng         TotEng           Lx             Ly             Lz           Volume         Press           Pxx            Pyy            Pzz      
        26  -9.1725596     -9.1725596      2.9444559      2.9444559      2.9444559      25.527904      82198.646      82198.646      82198.646      82198.646    
        27  -9.1725596     -9.1725596      2.9444559      2.9444559      2.9444559      25.527904      82198.646      82198.646      82198.646      82198.646    
Loop time of 0.000169125 on 8 procs for 1 steps with 2 atoms

Performance: 510.865 ns/day, 0.047 hours/ns, 5912.786 timesteps/s, 11.826 katom-step/s
0.0% CPU use with 8 MPI tasks x 1 OpenMP threads

MPI task timing breakdown:
Section |  min time  |  avg time  |  max time  |%varavg| %total
---------------------------------------------------------------
Pair    | 0.000115   | 0.0001185  | 0.000125   |   0.0 | 70.07
Neigh   | 0          | 0          | 0          |   0.0 |  0.00
Comm    | 1.4e-05    | 2.175e-05  | 2.8e-05    |   0.0 | 12.86
Output  | 1.5e-05    | 2.125e-05  | 3e-05      |   0.0 | 12.56
Modify  | 0          | 1.25e-07   | 1e-06      |   0.0 |  0.07
Other   |            | 7.5e-06    |            |       |  4.43

Nlocal:           0.25 ave           2 max           0 min
Histogram: 7 0 0 0 0 0 0 0 0 1
Nghost:         249.75 ave         250 max         248 min
Histogram: 1 0 0 0 0 0 0 0 0 7
Neighs:              8 ave          64 max           0 min
Histogram: 7 0 0 0 0 0 0 0 0 1
FullNghs:           16 ave         128 max           0 min
Histogram: 7 0 0 0 0 0 0 0 0 1

Total # of neighbors = 128
Ave neighs/atom = 64
Neighbor list builds = 0
Dangerous builds = 0
variable  natoms equal "count(all)"
variable xlength equal "lx"
variable  volume equal "vol"
variable  etotal equal "etotal"
variable    ecoh equal "pe/v_natoms"
print "${xlength}, ${volume}, ${etotal}, ${ecoh}" append lattice_cohesive_energy.txt screen no

next i
jump SELF loop

change_box all x scale 1.0025 y scale 1.0025 z scale 1.0025 remap
Changing box ...
  orthogonal box = (0.034091484 0.037772054 0.037772054) to (2.9859085 2.9822279 2.9822279)
  orthogonal box = (0.034091484 0.034091484 0.037772054) to (2.9859085 2.9859085 2.9822279)
  orthogonal box = (0.034091484 0.034091484 0.034091484) to (2.9859085 2.9859085 2.9859085)

run 1
WARNING: No fixes with time integration, atoms won't move (src/verlet.cpp:60)
WARNING: Proc sub-domain size < neighbor skin, could lead to lost atoms (src/domain.cpp:966)
Per MPI rank memory allocation (min/avg/max) = 8.572 | 8.573 | 8.573 Mbytes
   Step         PotEng         TotEng           Lx             Ly             Lz           Volume         Press           Pxx            Pyy            Pzz      
        27  -9.1817065     -9.1817065      2.951817       2.951817       2.951817       25.719842      70574.753      70574.753      70574.753      70574.753    
        28  -9.1817065     -9.1817065      2.951817       2.951817       2.951817       25.719842      70574.753      70574.753      70574.753      70574.753    
Loop time of 0.000167375 on 8 procs for 1 steps with 2 atoms

Performance: 516.206 ns/day, 0.046 hours/ns, 5974.608 timesteps/s, 11.949 katom-step/s
0.0% CPU use with 8 MPI tasks x 1 OpenMP threads

MPI task timing breakdown:
Section |  min time  |  avg time  |  max time  |%varavg| %total
---------------------------------------------------------------
Pair    | 0.000116   | 0.00011875 | 0.000125   |   0.0 | 70.95
Neigh   | 0          | 0          | 0          |   0.0 |  0.00
Comm    | 1.5e-05    | 2.1e-05    | 2.8e-05    |   0.0 | 12.55
Output  | 1.5e-05    | 2.025e-05  | 2.9e-05    |   0.0 | 12.10
Modify  | 0          | 2.5e-07    | 2e-06      |   0.0 |  0.15
Other   |            | 7.125e-06  |            |       |  4.26

Nlocal:           0.25 ave           2 max           0 min
Histogram: 7 0 0 0 0 0 0 0 0 1
Nghost:         249.75 ave         250 max         248 min
Histogram: 1 0 0 0 0 0 0 0 0 7
Neighs:              8 ave          64 max           0 min
Histogram: 7 0 0 0 0 0 0 0 0 1
FullNghs:           16 ave         128 max           0 min
Histogram: 7 0 0 0 0 0 0 0 0 1

Total # of neighbors = 128
Ave neighs/atom = 64
Neighbor list builds = 0
Dangerous builds = 0
variable  natoms equal "count(all)"
variable xlength equal "lx"
variable  volume equal "vol"
variable  etotal equal "etotal"
variable    ecoh equal "pe/v_natoms"
print "${xlength}, ${volume}, ${etotal}, ${ecoh}" append lattice_cohesive_energy.txt screen no

next i
jump SELF loop

change_box all x scale 1.0025 y scale 1.0025 z scale 1.0025 remap
Changing box ...
  orthogonal box = (0.030401713 0.034091484 0.034091484) to (2.9895983 2.9859085 2.9859085)
  orthogonal box = (0.030401713 0.030401713 0.034091484) to (2.9895983 2.9895983 2.9859085)
  orthogonal box = (0.030401713 0.030401713 0.030401713) to (2.9895983 2.9895983 2.9895983)

run 1
WARNING: No fixes with time integration, atoms won't move (src/verlet.cpp:60)
WARNING: Proc sub-domain size < neighbor skin, could lead to lost atoms (src/domain.cpp:966)
Per MPI rank memory allocation (min/avg/max) = 8.572 | 8.573 | 8.573 Mbytes
   Step         PotEng         TotEng           Lx             Ly             Lz           Volume         Press           Pxx            Pyy            Pzz      
        28  -9.1895388     -9.1895388      2.9591966      2.9591966      2.9591966      25.913224      59275.233      59275.233      59275.233      59275.233    
        29  -9.1895388     -9.1895388      2.9591966      2.9591966      2.9591966      25.913224      59275.233      59275.233      59275.233      59275.233    
Loop time of 0.000169875 on 8 procs for 1 steps with 2 atoms

Performance: 508.609 ns/day, 0.047 hours/ns, 5886.681 timesteps/s, 11.773 katom-step/s
0.0% CPU use with 8 MPI tasks x 1 OpenMP threads

MPI task timing breakdown:
Section |  min time  |  avg time  |  max time  |%varavg| %total
---------------------------------------------------------------
Pair    | 0.000119   | 0.0001215  | 0.000127   |   0.0 | 71.52
Neigh   | 0          | 0          | 0          |   0.0 |  0.00
Comm    | 1.6e-05    | 2.1625e-05 | 2.7e-05    |   0.0 | 12.73
Output  | 1.4e-05    | 1.975e-05  | 2.8e-05    |   0.0 | 11.63
Modify  | 0          | 1.25e-07   | 1e-06      |   0.0 |  0.07
Other   |            | 6.875e-06  |            |       |  4.05

Nlocal:           0.25 ave           2 max           0 min
Histogram: 7 0 0 0 0 0 0 0 0 1
Nghost:         249.75 ave         250 max         248 min
Histogram: 1 0 0 0 0 0 0 0 0 7
Neighs:              8 ave          64 max           0 min
Histogram: 7 0 0 0 0 0 0 0 0 1
FullNghs:           16 ave         128 max           0 min
Histogram: 7 0 0 0 0 0 0 0 0 1

Total # of neighbors = 128
Ave neighs/atom = 64
Neighbor list builds = 0
Dangerous builds = 0
variable  natoms equal "count(all)"
variable xlength equal "lx"
variable  volume equal "vol"
variable  etotal equal "etotal"
variable    ecoh equal "pe/v_natoms"
print "${xlength}, ${volume}, ${etotal}, ${ecoh}" append lattice_cohesive_energy.txt screen no

next i
jump SELF loop

change_box all x scale 1.0025 y scale 1.0025 z scale 1.0025 remap
Changing box ...
  orthogonal box = (0.026702717 0.030401713 0.030401713) to (2.9932973 2.9895983 2.9895983)
  orthogonal box = (0.026702717 0.026702717 0.030401713) to (2.9932973 2.9932973 2.9895983)
  orthogonal box = (0.026702717 0.026702717 0.026702717) to (2.9932973 2.9932973 2.9932973)

run 1
WARNING: No fixes with time integration, atoms won't move (src/verlet.cpp:60)
WARNING: Proc sub-domain size < neighbor skin, could lead to lost atoms (src/domain.cpp:966)
Per MPI rank memory allocation (min/avg/max) = 8.572 | 8.573 | 8.573 Mbytes
   Step         PotEng         TotEng           Lx             Ly             Lz           Volume         Press           Pxx            Pyy            Pzz      
        29  -9.1960754     -9.1960754      2.9665946      2.9665946      2.9665946      26.108059      48293.912      48293.912      48293.912      48293.912    
        30  -9.1960754     -9.1960754      2.9665946      2.9665946      2.9665946      26.108059      48293.912      48293.912      48293.912      48293.912    
Loop time of 0.0001795 on 8 procs for 1 steps with 2 atoms

Performance: 481.337 ns/day, 0.050 hours/ns, 5571.031 timesteps/s, 11.142 katom-step/s
2176.2% CPU use with 8 MPI tasks x 1 OpenMP threads

MPI task timing breakdown:
Section |  min time  |  avg time  |  max time  |%varavg| %total
---------------------------------------------------------------
Pair    | 0.000115   | 0.00012237 | 0.000138   |   0.0 | 68.18
Neigh   | 0          | 0          | 0          |   0.0 |  0.00
Comm    | 1.5e-05    | 2.375e-05  | 4.1e-05    |   0.0 | 13.23
Output  | 1.2e-05    | 2.675e-05  | 4.3e-05    |   0.0 | 14.90
Modify  | 0          | 3.75e-07   | 1e-06      |   0.0 |  0.21
Other   |            | 6.25e-06   |            |       |  3.48

Nlocal:           0.25 ave           2 max           0 min
Histogram: 7 0 0 0 0 0 0 0 0 1
Nghost:         249.75 ave         250 max         248 min
Histogram: 1 0 0 0 0 0 0 0 0 7
Neighs:              8 ave          64 max           0 min
Histogram: 7 0 0 0 0 0 0 0 0 1
FullNghs:           16 ave         128 max           0 min
Histogram: 7 0 0 0 0 0 0 0 0 1

Total # of neighbors = 128
Ave neighs/atom = 64
Neighbor list builds = 0
Dangerous builds = 0
variable  natoms equal "count(all)"
variable xlength equal "lx"
variable  volume equal "vol"
variable  etotal equal "etotal"
variable    ecoh equal "pe/v_natoms"
print "${xlength}, ${volume}, ${etotal}, ${ecoh}" append lattice_cohesive_energy.txt screen no

next i
jump SELF loop

change_box all x scale 1.0025 y scale 1.0025 z scale 1.0025 remap
Changing box ...
  orthogonal box = (0.022994474 0.026702717 0.026702717) to (2.9970055 2.9932973 2.9932973)
  orthogonal box = (0.022994474 0.022994474 0.026702717) to (2.9970055 2.9970055 2.9932973)
  orthogonal box = (0.022994474 0.022994474 0.022994474) to (2.9970055 2.9970055 2.9970055)

run 1
WARNING: No fixes with time integration, atoms won't move (src/verlet.cpp:60)
WARNING: Proc sub-domain size < neighbor skin, could lead to lost atoms (src/domain.cpp:966)
Per MPI rank memory allocation (min/avg/max) = 8.572 | 8.573 | 8.573 Mbytes
   Step         PotEng         TotEng           Lx             Ly             Lz           Volume         Press           Pxx            Pyy            Pzz      
        30  -9.2013348     -9.2013348      2.9740111      2.9740111      2.9740111      26.30436       37624.615      37624.615      37624.615      37624.615    
        31  -9.2013348     -9.2013348      2.9740111      2.9740111      2.9740111      26.30436       37624.615      37624.615      37624.615      37624.615    
Loop time of 0.000141 on 8 procs for 1 steps with 2 atoms

Performance: 612.766 ns/day, 0.039 hours/ns, 7092.199 timesteps/s, 14.184 katom-step/s
0.0% CPU use with 8 MPI tasks x 1 OpenMP threads

MPI task timing breakdown:
Section |  min time  |  avg time  |  max time  |%varavg| %total
---------------------------------------------------------------
Pair    | 0.000104   | 0.00010575 | 0.000107   |   0.0 | 75.00
Neigh   | 0          | 0          | 0          |   0.0 |  0.00
Comm    | 1.4e-05    | 1.65e-05   | 2e-05      |   0.0 | 11.70
Output  | 1.1e-05    | 1.4375e-05 | 1.7e-05    |   0.0 | 10.20
Modify  | 0          | 2.5e-07    | 1e-06      |   0.0 |  0.18
Other   |            | 4.125e-06  |            |       |  2.93

Nlocal:           0.25 ave           2 max           0 min
Histogram: 7 0 0 0 0 0 0 0 0 1
Nghost:         249.75 ave         250 max         248 min
Histogram: 1 0 0 0 0 0 0 0 0 7
Neighs:              8 ave          64 max           0 min
Histogram: 7 0 0 0 0 0 0 0 0 1
FullNghs:           16 ave         128 max           0 min
Histogram: 7 0 0 0 0 0 0 0 0 1

Total # of neighbors = 128
Ave neighs/atom = 64
Neighbor list builds = 0
Dangerous builds = 0
variable  natoms equal "count(all)"
variable xlength equal "lx"
variable  volume equal "vol"
variable  etotal equal "etotal"
variable    ecoh equal "pe/v_natoms"
print "${xlength}, ${volume}, ${etotal}, ${ecoh}" append lattice_cohesive_energy.txt screen no

next i
jump SELF loop

change_box all x scale 1.0025 y scale 1.0025 z scale 1.0025 remap
Changing box ...
  orthogonal box = (0.01927696 0.022994474 0.022994474) to (3.000723 2.9970055 2.9970055)
  orthogonal box = (0.01927696 0.01927696 0.022994474) to (3.000723 3.000723 2.9970055)
  orthogonal box = (0.01927696 0.01927696 0.01927696) to (3.000723 3.000723 3.000723)

run 1
WARNING: No fixes with time integration, atoms won't move (src/verlet.cpp:60)
WARNING: Proc sub-domain size < neighbor skin, could lead to lost atoms (src/domain.cpp:966)
Per MPI rank memory allocation (min/avg/max) = 8.572 | 8.573 | 8.573 Mbytes
   Step         PotEng         TotEng           Lx             Ly             Lz           Volume         Press           Pxx            Pyy            Pzz      
        31  -9.2053357     -9.2053357      2.9814461      2.9814461      2.9814461      26.502136      27261.4        27261.4        27261.4        27261.4      
        32  -9.2053357     -9.2053357      2.9814461      2.9814461      2.9814461      26.502136      27261.4        27261.4        27261.4        27261.4      
Loop time of 0.000141625 on 8 procs for 1 steps with 2 atoms

Performance: 610.062 ns/day, 0.039 hours/ns, 7060.900 timesteps/s, 14.122 katom-step/s
0.0% CPU use with 8 MPI tasks x 1 OpenMP threads

MPI task timing breakdown:
Section |  min time  |  avg time  |  max time  |%varavg| %total
---------------------------------------------------------------
Pair    | 0.000105   | 0.00010663 | 0.000108   |   0.0 | 75.29
Neigh   | 0          | 0          | 0          |   0.0 |  0.00
Comm    | 1.3e-05    | 1.625e-05  | 2.1e-05    |   0.0 | 11.47
Output  | 1e-05      | 1.4375e-05 | 1.8e-05    |   0.0 | 10.15
Modify  | 0          | 0          | 0          |   0.0 |  0.00
Other   |            | 4.375e-06  |            |       |  3.09

Nlocal:           0.25 ave           2 max           0 min
Histogram: 7 0 0 0 0 0 0 0 0 1
Nghost:         249.75 ave         250 max         248 min
Histogram: 1 0 0 0 0 0 0 0 0 7
Neighs:              8 ave          64 max           0 min
Histogram: 7 0 0 0 0 0 0 0 0 1
FullNghs:           16 ave         128 max           0 min
Histogram: 7 0 0 0 0 0 0 0 0 1

Total # of neighbors = 128
Ave neighs/atom = 64
Neighbor list builds = 0
Dangerous builds = 0
variable  natoms equal "count(all)"
variable xlength equal "lx"
variable  volume equal "vol"
variable  etotal equal "etotal"
variable    ecoh equal "pe/v_natoms"
print "${xlength}, ${volume}, ${etotal}, ${ecoh}" append lattice_cohesive_energy.txt screen no

next i
jump SELF loop

change_box all x scale 1.0025 y scale 1.0025 z scale 1.0025 remap
Changing box ...
  orthogonal box = (0.015550153 0.01927696 0.01927696) to (3.0044498 3.000723 3.000723)
  orthogonal box = (0.015550153 0.015550153 0.01927696) to (3.0044498 3.0044498 3.000723)
  orthogonal box = (0.015550153 0.015550153 0.015550153) to (3.0044498 3.0044498 3.0044498)

run 1
WARNING: No fixes with time integration, atoms won't move (src/verlet.cpp:60)
WARNING: Proc sub-domain size < neighbor skin, could lead to lost atoms (src/domain.cpp:966)
Per MPI rank memory allocation (min/avg/max) = 8.572 | 8.573 | 8.573 Mbytes
   Step         PotEng         TotEng           Lx             Ly             Lz           Volume         Press           Pxx            Pyy            Pzz      
        32  -9.2080966     -9.2080966      2.9888997      2.9888997      2.9888997      26.701399      17198.24       17198.24       17198.24       17198.24     
        33  -9.2080966     -9.2080966      2.9888997      2.9888997      2.9888997      26.701399      17198.24       17198.24       17198.24       17198.24     
Loop time of 0.00014 on 8 procs for 1 steps with 2 atoms

Performance: 617.143 ns/day, 0.039 hours/ns, 7142.857 timesteps/s, 14.286 katom-step/s
0.0% CPU use with 8 MPI tasks x 1 OpenMP threads

MPI task timing breakdown:
Section |  min time  |  avg time  |  max time  |%varavg| %total
---------------------------------------------------------------
Pair    | 0.000103   | 0.00010525 | 0.000106   |   0.0 | 75.18
Neigh   | 0          | 0          | 0          |   0.0 |  0.00
Comm    | 1.3e-05    | 1.5875e-05 | 1.9e-05    |   0.0 | 11.34
Output  | 1.1e-05    | 1.475e-05  | 1.8e-05    |   0.0 | 10.54
Modify  | 0          | 2.5e-07    | 1e-06      |   0.0 |  0.18
Other   |            | 3.875e-06  |            |       |  2.77

Nlocal:           0.25 ave           2 max           0 min
Histogram: 7 0 0 0 0 0 0 0 0 1
Nghost:         249.75 ave         250 max         248 min
Histogram: 1 0 0 0 0 0 0 0 0 7
Neighs:              8 ave          64 max           0 min
Histogram: 7 0 0 0 0 0 0 0 0 1
FullNghs:           16 ave         128 max           0 min
Histogram: 7 0 0 0 0 0 0 0 0 1

Total # of neighbors = 128
Ave neighs/atom = 64
Neighbor list builds = 0
Dangerous builds = 0
variable  natoms equal "count(all)"
variable xlength equal "lx"
variable  volume equal "vol"
variable  etotal equal "etotal"
variable    ecoh equal "pe/v_natoms"
print "${xlength}, ${volume}, ${etotal}, ${ecoh}" append lattice_cohesive_energy.txt screen no

next i
jump SELF loop

change_box all x scale 1.0025 y scale 1.0025 z scale 1.0025 remap
Changing box ...
  orthogonal box = (0.011814028 0.015550153 0.015550153) to (3.008186 3.0044498 3.0044498)
  orthogonal box = (0.011814028 0.011814028 0.015550153) to (3.008186 3.008186 3.0044498)
  orthogonal box = (0.011814028 0.011814028 0.011814028) to (3.008186 3.008186 3.008186)

run 1
WARNING: No fixes with time integration, atoms won't move (src/verlet.cpp:60)
WARNING: Proc sub-domain size < neighbor skin, could lead to lost atoms (src/domain.cpp:966)
Per MPI rank memory allocation (min/avg/max) = 8.572 | 8.573 | 8.573 Mbytes
   Step         PotEng         TotEng           Lx             Ly             Lz           Volume         Press           Pxx            Pyy            Pzz      
        33  -9.2096358     -9.2096358      2.9963719      2.9963719      2.9963719      26.902161      7429.3806      7429.3806      7429.3806      7429.3806    
        34  -9.2096358     -9.2096358      2.9963719      2.9963719      2.9963719      26.902161      7429.3806      7429.3806      7429.3806      7429.3806    
Loop time of 0.000139875 on 8 procs for 1 steps with 2 atoms

Performance: 617.694 ns/day, 0.039 hours/ns, 7149.240 timesteps/s, 14.298 katom-step/s
0.0% CPU use with 8 MPI tasks x 1 OpenMP threads

MPI task timing breakdown:
Section |  min time  |  avg time  |  max time  |%varavg| %total
---------------------------------------------------------------
Pair    | 0.000105   | 0.00010588 | 0.000108   |   0.0 | 75.69
Neigh   | 0          | 0          | 0          |   0.0 |  0.00
Comm    | 1.4e-05    | 1.65e-05   | 2.1e-05    |   0.0 | 11.80
Output  | 1e-05      | 1.4375e-05 | 1.7e-05    |   0.0 | 10.28
Modify  | 0          | 2.5e-07    | 1e-06      |   0.0 |  0.18
Other   |            | 2.875e-06  |            |       |  2.06

Nlocal:           0.25 ave           2 max           0 min
Histogram: 7 0 0 0 0 0 0 0 0 1
Nghost:         249.75 ave         250 max         248 min
Histogram: 1 0 0 0 0 0 0 0 0 7
Neighs:              8 ave          64 max           0 min
Histogram: 7 0 0 0 0 0 0 0 0 1
FullNghs:           16 ave         128 max           0 min
Histogram: 7 0 0 0 0 0 0 0 0 1

Total # of neighbors = 128
Ave neighs/atom = 64
Neighbor list builds = 0
Dangerous builds = 0
variable  natoms equal "count(all)"
variable xlength equal "lx"
variable  volume equal "vol"
variable  etotal equal "etotal"
variable    ecoh equal "pe/v_natoms"
print "${xlength}, ${volume}, ${etotal}, ${ecoh}" append lattice_cohesive_energy.txt screen no

next i
jump SELF loop

change_box all x scale 1.0025 y scale 1.0025 z scale 1.0025 remap
Changing box ...
  orthogonal box = (0.0080685632 0.011814028 0.011814028) to (3.0119314 3.008186 3.008186)
  orthogonal box = (0.0080685632 0.0080685632 0.011814028) to (3.0119314 3.0119314 3.008186)
  orthogonal box = (0.0080685632 0.0080685632 0.0080685632) to (3.0119314 3.0119314 3.0119314)

run 1
WARNING: No fixes with time integration, atoms won't move (src/verlet.cpp:60)
WARNING: Proc sub-domain size < neighbor skin, could lead to lost atoms (src/domain.cpp:966)
Per MPI rank memory allocation (min/avg/max) = 8.549 | 8.549 | 8.55 Mbytes
   Step         PotEng         TotEng           Lx             Ly             Lz           Volume         Press           Pxx            Pyy            Pzz      
        34  -9.2099715     -9.2099715      3.0038629      3.0038629      3.0038629      27.104432     -2051.033      -2051.033      -2051.033      -2051.033     
        35  -9.2099715     -9.2099715      3.0038629      3.0038629      3.0038629      27.104432     -2051.033      -2051.033      -2051.033      -2051.033     
Loop time of 0.000101375 on 8 procs for 1 steps with 2 atoms

Performance: 852.281 ns/day, 0.028 hours/ns, 9864.365 timesteps/s, 19.729 katom-step/s
0.0% CPU use with 8 MPI tasks x 1 OpenMP threads

MPI task timing breakdown:
Section |  min time  |  avg time  |  max time  |%varavg| %total
---------------------------------------------------------------
Pair    | 6.7e-05    | 6.85e-05   | 7.2e-05    |   0.0 | 67.57
Neigh   | 0          | 0          | 0          |   0.0 |  0.00
Comm    | 9e-06      | 1.35e-05   | 1.7e-05    |   0.0 | 13.32
Output  | 1.1e-05    | 1.6e-05    | 2.1e-05    |   0.0 | 15.78
Modify  | 0          | 2.5e-07    | 1e-06      |   0.0 |  0.25
Other   |            | 3.125e-06  |            |       |  3.08

Nlocal:           0.25 ave           2 max           0 min
Histogram: 7 0 0 0 0 0 0 0 0 1
Nghost:         127.75 ave         128 max         126 min
Histogram: 1 0 0 0 0 0 0 0 0 7
Neighs:           7.25 ave          58 max           0 min
Histogram: 7 0 0 0 0 0 0 0 0 1
FullNghs:         14.5 ave         116 max           0 min
Histogram: 7 0 0 0 0 0 0 0 0 1

Total # of neighbors = 116
Ave neighs/atom = 58
Neighbor list builds = 0
Dangerous builds = 0
variable  natoms equal "count(all)"
variable xlength equal "lx"
variable  volume equal "vol"
variable  etotal equal "etotal"
variable    ecoh equal "pe/v_natoms"
print "${xlength}, ${volume}, ${etotal}, ${ecoh}" append lattice_cohesive_energy.txt screen no

next i
jump SELF loop

change_box all x scale 1.0025 y scale 1.0025 z scale 1.0025 remap
Changing box ...
  orthogonal box = (0.0043137346 0.0080685632 0.0080685632) to (3.0156863 3.0119314 3.0119314)
  orthogonal box = (0.0043137346 0.0043137346 0.0080685632) to (3.0156863 3.0156863 3.0119314)
  orthogonal box = (0.0043137346 0.0043137346 0.0043137346) to (3.0156863 3.0156863 3.0156863)

run 1
WARNING: No fixes with time integration, atoms won't move (src/verlet.cpp:60)
WARNING: Proc sub-domain size < neighbor skin, could lead to lost atoms (src/domain.cpp:966)
Per MPI rank memory allocation (min/avg/max) = 8.549 | 8.549 | 8.55 Mbytes
   Step         PotEng         TotEng           Lx             Ly             Lz           Volume         Press           Pxx            Pyy            Pzz      
        35  -9.209122      -9.209122       3.0113725      3.0113725      3.0113725      27.308224     -11248.584     -11248.584     -11248.584     -11248.584    
        36  -9.209122      -9.209122       3.0113725      3.0113725      3.0113725      27.308224     -11248.584     -11248.584     -11248.584     -11248.584    
Loop time of 0.0001005 on 8 procs for 1 steps with 2 atoms

Performance: 859.701 ns/day, 0.028 hours/ns, 9950.249 timesteps/s, 19.900 katom-step/s
0.0% CPU use with 8 MPI tasks x 1 OpenMP threads

MPI task timing breakdown:
Section |  min time  |  avg time  |  max time  |%varavg| %total
---------------------------------------------------------------
Pair    | 6.7e-05    | 6.825e-05  | 7.1e-05    |   0.0 | 67.91
Neigh   | 0          | 0          | 0          |   0.0 |  0.00
Comm    | 9e-06      | 1.325e-05  | 1.7e-05    |   0.0 | 13.18
Output  | 1e-05      | 1.5125e-05 | 1.9e-05    |   0.0 | 15.05
Modify  | 0          | 3.75e-07   | 1e-06      |   0.0 |  0.37
Other   |            | 3.5e-06    |            |       |  3.48

Nlocal:           0.25 ave           2 max           0 min
Histogram: 7 0 0 0 0 0 0 0 0 1
Nghost:         127.75 ave         128 max         126 min
Histogram: 1 0 0 0 0 0 0 0 0 7
Neighs:           7.25 ave          58 max           0 min
Histogram: 7 0 0 0 0 0 0 0 0 1
FullNghs:         14.5 ave         116 max           0 min
Histogram: 7 0 0 0 0 0 0 0 0 1

Total # of neighbors = 116
Ave neighs/atom = 58
Neighbor list builds = 0
Dangerous builds = 0
variable  natoms equal "count(all)"
variable xlength equal "lx"
variable  volume equal "vol"
variable  etotal equal "etotal"
variable    ecoh equal "pe/v_natoms"
print "${xlength}, ${volume}, ${etotal}, ${ecoh}" append lattice_cohesive_energy.txt screen no

next i
jump SELF loop

change_box all x scale 1.0025 y scale 1.0025 z scale 1.0025 remap
Changing box ...
  orthogonal box = (0.0005495189 0.0043137346 0.0043137346) to (3.0194505 3.0156863 3.0156863)
  orthogonal box = (0.0005495189 0.0005495189 0.0043137346) to (3.0194505 3.0194505 3.0156863)
  orthogonal box = (0.0005495189 0.0005495189 0.0005495189) to (3.0194505 3.0194505 3.0194505)

run 1
WARNING: No fixes with time integration, atoms won't move (src/verlet.cpp:60)
WARNING: Proc sub-domain size < neighbor skin, could lead to lost atoms (src/domain.cpp:966)
Per MPI rank memory allocation (min/avg/max) = 8.549 | 8.549 | 8.55 Mbytes
   Step         PotEng         TotEng           Lx             Ly             Lz           Volume         Press           Pxx            Pyy            Pzz      
        36  -9.2071052     -9.2071052      3.018901       3.018901       3.018901       27.513548     -20168.952     -20168.952     -20168.952     -20168.952    
        37  -9.2071052     -9.2071052      3.018901       3.018901       3.018901       27.513548     -20168.952     -20168.952     -20168.952     -20168.952    
Loop time of 0.000102 on 8 procs for 1 steps with 2 atoms

Performance: 847.059 ns/day, 0.028 hours/ns, 9803.922 timesteps/s, 19.608 katom-step/s
0.0% CPU use with 8 MPI tasks x 1 OpenMP threads

MPI task timing breakdown:
Section |  min time  |  avg time  |  max time  |%varavg| %total
---------------------------------------------------------------
Pair    | 6.8e-05    | 6.9375e-05 | 7.3e-05    |   0.0 | 68.01
Neigh   | 0          | 0          | 0          |   0.0 |  0.00
Comm    | 9e-06      | 1.3125e-05 | 1.7e-05    |   0.0 | 12.87
Output  | 1.1e-05    | 1.5375e-05 | 2e-05      |   0.0 | 15.07
Modify  | 0          | 0          | 0          |   0.0 |  0.00
Other   |            | 4.125e-06  |            |       |  4.04

Nlocal:           0.25 ave           2 max           0 min
Histogram: 7 0 0 0 0 0 0 0 0 1
Nghost:         127.75 ave         128 max         126 min
Histogram: 1 0 0 0 0 0 0 0 0 7
Neighs:           7.25 ave          58 max           0 min
Histogram: 7 0 0 0 0 0 0 0 0 1
FullNghs:         14.5 ave         116 max           0 min
Histogram: 7 0 0 0 0 0 0 0 0 1

Total # of neighbors = 116
Ave neighs/atom = 58
Neighbor list builds = 0
Dangerous builds = 0
variable  natoms equal "count(all)"
variable xlength equal "lx"
variable  volume equal "vol"
variable  etotal equal "etotal"
variable    ecoh equal "pe/v_natoms"
print "${xlength}, ${volume}, ${etotal}, ${ecoh}" append lattice_cohesive_energy.txt screen no

next i
jump SELF loop

change_box all x scale 1.0025 y scale 1.0025 z scale 1.0025 remap
Changing box ...
  orthogonal box = (-0.0032241073 0.0005495189 0.0005495189) to (3.0232241 3.0194505 3.0194505)
  orthogonal box = (-0.0032241073 -0.0032241073 0.0005495189) to (3.0232241 3.0232241 3.0194505)
  orthogonal box = (-0.0032241073 -0.0032241073 -0.0032241073) to (3.0232241 3.0232241 3.0232241)

run 1
WARNING: No fixes with time integration, atoms won't move (src/verlet.cpp:60)
WARNING: Proc sub-domain size < neighbor skin, could lead to lost atoms (src/domain.cpp:966)
Per MPI rank memory allocation (min/avg/max) = 8.549 | 8.549 | 8.55 Mbytes
   Step         PotEng         TotEng           Lx             Ly             Lz           Volume         Press           Pxx            Pyy            Pzz      
        37  -9.2039391     -9.2039391      3.0264482      3.0264482      3.0264482      27.720416     -28817.564     -28817.564     -28817.564     -28817.564    
        38  -9.2039391     -9.2039391      3.0264482      3.0264482      3.0264482      27.720416     -28817.564     -28817.564     -28817.564     -28817.564    
Loop time of 0.0001075 on 8 procs for 1 steps with 2 atoms

Performance: 803.721 ns/day, 0.030 hours/ns, 9302.326 timesteps/s, 18.605 katom-step/s
0.0% CPU use with 8 MPI tasks x 1 OpenMP threads

MPI task timing breakdown:
Section |  min time  |  avg time  |  max time  |%varavg| %total
---------------------------------------------------------------
Pair    | 6.7e-05    | 6.8125e-05 | 7.1e-05    |   0.0 | 63.37
Neigh   | 0          | 0          | 0          |   0.0 |  0.00
Comm    | 1e-05      | 1.3e-05    | 1.6e-05    |   0.0 | 12.09
[...]
Histogram: 7 0 0 0 0 0 0 0 0 1

Total # of neighbors = 116
Ave neighs/atom = 58
Neighbor list builds = 0
Dangerous builds = 0
variable  natoms equal "count(all)"
variable xlength equal "lx"
variable  volume equal "vol"
variable  etotal equal "etotal"
variable    ecoh equal "pe/v_natoms"
print "${xlength}, ${volume}, ${etotal}, ${ecoh}" append lattice_cohesive_energy.txt screen no

next i
jump SELF loop

change_box all x scale 1.0025 y scale 1.0025 z scale 1.0025 remap
Changing box ...
  orthogonal box = (-0.060973904 -0.057056263 -0.057056263) to (3.0809739 3.0770563 3.0770563)
  orthogonal box = (-0.060973904 -0.060973904 -0.057056263) to (3.0809739 3.0809739 3.0770563)
  orthogonal box = (-0.060973904 -0.060973904 -0.060973904) to (3.0809739 3.0809739 3.0809739)

run 1
WARNING: No fixes with time integration, atoms won't move (src/verlet.cpp:60)
WARNING: Proc sub-domain size < neighbor skin, could lead to lost atoms (src/domain.cpp:966)
Per MPI rank memory allocation (min/avg/max) = 8.549 | 8.549 | 8.55 Mbytes
   Step         PotEng         TotEng           Lx             Ly             Lz           Volume         Press           Pxx            Pyy            Pzz      
        52  -9.0303876     -9.0303876      3.1419478      3.1419478      3.1419478      31.016794     -129440.58     -129440.58     -129440.58     -129440.58    
        53  -9.0303876     -9.0303876      3.1419478      3.1419478      3.1419478      31.016794     -129440.58     -129440.58     -129440.58     -129440.58    
Loop time of 0.000284375 on 8 procs for 1 steps with 2 atoms

Performance: 303.824 ns/day, 0.079 hours/ns, 3516.484 timesteps/s, 7.033 katom-step/s
0.0% CPU use with 8 MPI tasks x 1 OpenMP threads

MPI task timing breakdown:
Section |  min time  |  avg time  |  max time  |%varavg| %total
---------------------------------------------------------------
Pair    | 7.6e-05    | 0.00012038 | 0.000247   |   0.0 | 42.33
Neigh   | 0          | 0          | 0          |   0.0 |  0.00
Comm    | 1.1e-05    | 5.6125e-05 | 0.000187   |   0.0 | 19.74
Output  | 1.2e-05    | 0.00010162 | 0.00019    |   0.0 | 35.74
Modify  | 0          | 1.25e-07   | 1e-06      |   0.0 |  0.04
Other   |            | 6.125e-06  |            |       |  2.15

Nlocal:           0.25 ave           2 max           0 min
Histogram: 7 0 0 0 0 0 0 0 0 1
Nghost:         127.75 ave         128 max         126 min
Histogram: 1 0 0 0 0 0 0 0 0 7
Neighs:           7.25 ave          58 max           0 min
Histogram: 7 0 0 0 0 0 0 0 0 1
FullNghs:         14.5 ave         116 max           0 min
Histogram: 7 0 0 0 0 0 0 0 0 1

Total # of neighbors = 116
Ave neighs/atom = 58
Neighbor list builds = 0
Dangerous builds = 0
variable  natoms equal "count(all)"
variable xlength equal "lx"
variable  volume equal "vol"
variable  etotal equal "etotal"
variable    ecoh equal "pe/v_natoms"
print "${xlength}, ${volume}, ${etotal}, ${ecoh}" append lattice_cohesive_energy.txt screen no

next i
jump SELF loop

change_box all x scale 1.0025 y scale 1.0025 z scale 1.0025 remap
Changing box ...
  orthogonal box = (-0.064901339 -0.060973904 -0.060973904) to (3.0849013 3.0809739 3.0809739)
  orthogonal box = (-0.064901339 -0.064901339 -0.060973904) to (3.0849013 3.0849013 3.0809739)
  orthogonal box = (-0.064901339 -0.064901339 -0.064901339) to (3.0849013 3.0849013 3.0849013)

run 1
WARNING: No fixes with time integration, atoms won't move (src/verlet.cpp:60)
WARNING: Proc sub-domain size < neighbor skin, could lead to lost atoms (src/domain.cpp:966)
Per MPI rank memory allocation (min/avg/max) = 8.549 | 8.549 | 8.55 Mbytes
   Step         PotEng         TotEng           Lx             Ly             Lz           Volume         Press           Pxx            Pyy            Pzz      
        53  -9.011181      -9.011181       3.1498027      3.1498027      3.1498027      31.250002     -134426        -134426        -134426        -134426       
        54  -9.011181      -9.011181       3.1498027      3.1498027      3.1498027      31.250002     -134426        -134426        -134426        -134426       
Loop time of 0.000121875 on 8 procs for 1 steps with 2 atoms

Performance: 708.923 ns/day, 0.034 hours/ns, 8205.128 timesteps/s, 16.410 katom-step/s
0.0% CPU use with 8 MPI tasks x 1 OpenMP threads

MPI task timing breakdown:
Section |  min time  |  avg time  |  max time  |%varavg| %total
---------------------------------------------------------------
Pair    | 7.5e-05    | 7.825e-05  | 8.5e-05    |   0.0 | 64.21
Neigh   | 0          | 0          | 0          |   0.0 |  0.00
Comm    | 9e-06      | 1.55e-05   | 2.7e-05    |   0.0 | 12.72
Output  | 1.3e-05    | 2.1375e-05 | 2.9e-05    |   0.0 | 17.54
Modify  | 0          | 2.5e-07    | 1e-06      |   0.0 |  0.21
Other   |            | 6.5e-06    |            |       |  5.33

Nlocal:           0.25 ave           2 max           0 min
Histogram: 7 0 0 0 0 0 0 0 0 1
Nghost:         127.75 ave         128 max         126 min
Histogram: 1 0 0 0 0 0 0 0 0 7
Neighs:           7.25 ave          58 max           0 min
Histogram: 7 0 0 0 0 0 0 0 0 1
FullNghs:         14.5 ave         116 max           0 min
Histogram: 7 0 0 0 0 0 0 0 0 1

Total # of neighbors = 116
Ave neighs/atom = 58
Neighbor list builds = 0
Dangerous builds = 0
variable  natoms equal "count(all)"
variable xlength equal "lx"
variable  volume equal "vol"
variable  etotal equal "etotal"
variable    ecoh equal "pe/v_natoms"
print "${xlength}, ${volume}, ${etotal}, ${ecoh}" append lattice_cohesive_energy.txt screen no

next i
jump SELF loop

change_box all x scale 1.0025 y scale 1.0025 z scale 1.0025 remap
Changing box ...
  orthogonal box = (-0.068838592 -0.064901339 -0.064901339) to (3.0888386 3.0849013 3.0849013)
  orthogonal box = (-0.068838592 -0.068838592 -0.064901339) to (3.0888386 3.0888386 3.0849013)
  orthogonal box = (-0.068838592 -0.068838592 -0.068838592) to (3.0888386 3.0888386 3.0888386)

run 1
WARNING: No fixes with time integration, atoms won't move (src/verlet.cpp:60)
WARNING: Proc sub-domain size < neighbor skin, could lead to lost atoms (src/domain.cpp:966)
Per MPI rank memory allocation (min/avg/max) = 8.549 | 8.549 | 8.55 Mbytes
   Step         PotEng         TotEng           Lx             Ly             Lz           Volume         Press           Pxx            Pyy            Pzz      
        54  -8.9911129     -8.9911129      3.1576772      3.1576772      3.1576772      31.484963     -139221.42     -139221.42     -139221.42     -139221.42    
        55  -8.9911129     -8.9911129      3.1576772      3.1576772      3.1576772      31.484963     -139221.42     -139221.42     -139221.42     -139221.42    
Loop time of 0.00011825 on 8 procs for 1 steps with 2 atoms

Performance: 730.655 ns/day, 0.033 hours/ns, 8456.660 timesteps/s, 16.913 katom-step/s
0.0% CPU use with 8 MPI tasks x 1 OpenMP threads

MPI task timing breakdown:
Section |  min time  |  avg time  |  max time  |%varavg| %total
---------------------------------------------------------------
Pair    | 7.5e-05    | 7.65e-05   | 8.3e-05    |   0.0 | 64.69
Neigh   | 0          | 0          | 0          |   0.0 |  0.00
Comm    | 1e-05      | 1.5625e-05 | 2.4e-05    |   0.0 | 13.21
Output  | 1.2e-05    | 1.975e-05  | 2.6e-05    |   0.0 | 16.70
Modify  | 0          | 1.25e-07   | 1e-06      |   0.0 |  0.11
Other   |            | 6.25e-06   |            |       |  5.29

Nlocal:           0.25 ave           2 max           0 min
Histogram: 7 0 0 0 0 0 0 0 0 1
Nghost:         127.75 ave         128 max         126 min
Histogram: 1 0 0 0 0 0 0 0 0 7
Neighs:           7.25 ave          58 max           0 min
Histogram: 7 0 0 0 0 0 0 0 0 1
FullNghs:         14.5 ave         116 max           0 min
Histogram: 7 0 0 0 0 0 0 0 0 1

Total # of neighbors = 116
Ave neighs/atom = 58
Neighbor list builds = 0
Dangerous builds = 0
variable  natoms equal "count(all)"
variable xlength equal "lx"
variable  volume equal "vol"
variable  etotal equal "etotal"
variable    ecoh equal "pe/v_natoms"
print "${xlength}, ${volume}, ${etotal}, ${ecoh}" append lattice_cohesive_energy.txt screen no

next i
jump SELF loop

change_box all x scale 1.0025 y scale 1.0025 z scale 1.0025 remap
Changing box ...
  orthogonal box = (-0.072785688 -0.068838592 -0.068838592) to (3.0927857 3.0888386 3.0888386)
  orthogonal box = (-0.072785688 -0.072785688 -0.068838592) to (3.0927857 3.0927857 3.0888386)
  orthogonal box = (-0.072785688 -0.072785688 -0.072785688) to (3.0927857 3.0927857 3.0927857)

run 1
WARNING: No fixes with time integration, atoms won't move (src/verlet.cpp:60)
WARNING: Proc sub-domain size < neighbor skin, could lead to lost atoms (src/domain.cpp:966)
Per MPI rank memory allocation (min/avg/max) = 8.549 | 8.549 | 8.55 Mbytes
   Step         PotEng         TotEng           Lx             Ly             Lz           Volume         Press           Pxx            Pyy            Pzz      
        55  -8.9701991     -8.9701991      3.1655714      3.1655714      3.1655714      31.721691     -143830.99     -143830.99     -143830.99     -143830.99    
        56  -8.9701991     -8.9701991      3.1655714      3.1655714      3.1655714      31.721691     -143830.99     -143830.99     -143830.99     -143830.99    
Loop time of 0.000117875 on 8 procs for 1 steps with 2 atoms

Performance: 732.980 ns/day, 0.033 hours/ns, 8483.563 timesteps/s, 16.967 katom-step/s
0.0% CPU use with 8 MPI tasks x 1 OpenMP threads

MPI task timing breakdown:
Section |  min time  |  avg time  |  max time  |%varavg| %total
---------------------------------------------------------------
Pair    | 7.4e-05    | 7.5875e-05 | 8.3e-05    |   0.0 | 64.37
Neigh   | 0          | 0          | 0          |   0.0 |  0.00
Comm    | 1e-05      | 1.55e-05   | 2.5e-05    |   0.0 | 13.15
Output  | 1.3e-05    | 2.025e-05  | 2.6e-05    |   0.0 | 17.18
Modify  | 0          | 2.5e-07    | 1e-06      |   0.0 |  0.21
Other   |            | 6e-06      |            |       |  5.09

Nlocal:           0.25 ave           2 max           0 min
Histogram: 7 0 0 0 0 0 0 0 0 1
Nghost:         127.75 ave         128 max         126 min
Histogram: 1 0 0 0 0 0 0 0 0 7
Neighs:           7.25 ave          58 max           0 min
Histogram: 7 0 0 0 0 0 0 0 0 1
FullNghs:         14.5 ave         116 max           0 min
Histogram: 7 0 0 0 0 0 0 0 0 1

Total # of neighbors = 116
Ave neighs/atom = 58
Neighbor list builds = 0
Dangerous builds = 0
variable  natoms equal "count(all)"
variable xlength equal "lx"
variable  volume equal "vol"
variable  etotal equal "etotal"
variable    ecoh equal "pe/v_natoms"
print "${xlength}, ${volume}, ${etotal}, ${ecoh}" append lattice_cohesive_energy.txt screen no

next i
jump SELF loop

change_box all x scale 1.0025 y scale 1.0025 z scale 1.0025 remap
Changing box ...
  orthogonal box = (-0.076742653 -0.072785688 -0.072785688) to (3.0967427 3.0927857 3.0927857)
  orthogonal box = (-0.076742653 -0.076742653 -0.072785688) to (3.0967427 3.0967427 3.0927857)
  orthogonal box = (-0.076742653 -0.076742653 -0.076742653) to (3.0967427 3.0967427 3.0967427)

run 1
WARNING: No fixes with time integration, atoms won't move (src/verlet.cpp:60)
WARNING: Proc sub-domain size < neighbor skin, could lead to lost atoms (src/domain.cpp:966)
Per MPI rank memory allocation (min/avg/max) = 8.549 | 8.549 | 8.55 Mbytes
   Step         PotEng         TotEng           Lx             Ly             Lz           Volume         Press           Pxx            Pyy            Pzz      
        56  -8.9484555     -8.9484555      3.1734853      3.1734853      3.1734853      31.960199     -148258.78     -148258.78     -148258.78     -148258.78    
        57  -8.9484555     -8.9484555      3.1734853      3.1734853      3.1734853      31.960199     -148258.78     -148258.78     -148258.78     -148258.78    
Loop time of 0.000124 on 8 procs for 1 steps with 2 atoms

Performance: 696.774 ns/day, 0.034 hours/ns, 8064.516 timesteps/s, 16.129 katom-step/s
0.0% CPU use with 8 MPI tasks x 1 OpenMP threads

MPI task timing breakdown:
Section |  min time  |  avg time  |  max time  |%varavg| %total
---------------------------------------------------------------
Pair    | 7.6e-05    | 7.9375e-05 | 8.7e-05    |   0.0 | 64.01
Neigh   | 0          | 0          | 0          |   0.0 |  0.00
Comm    | 1e-05      | 1.65e-05   | 2.9e-05    |   0.0 | 13.31
Output  | 1.2e-05    | 2.1875e-05 | 3e-05      |   0.0 | 17.64
Modify  | 0          | 2.5e-07    | 1e-06      |   0.0 |  0.20
Other   |            | 6e-06      |            |       |  4.84

Nlocal:           0.25 ave           2 max           0 min
Histogram: 7 0 0 0 0 0 0 0 0 1
Nghost:         127.75 ave         128 max         126 min
Histogram: 1 0 0 0 0 0 0 0 0 7
Neighs:           7.25 ave          58 max           0 min
Histogram: 7 0 0 0 0 0 0 0 0 1
FullNghs:         14.5 ave         116 max           0 min
Histogram: 7 0 0 0 0 0 0 0 0 1

Total # of neighbors = 116
Ave neighs/atom = 58
Neighbor list builds = 0
Dangerous builds = 0
variable  natoms equal "count(all)"
variable xlength equal "lx"
variable  volume equal "vol"
variable  etotal equal "etotal"
variable    ecoh equal "pe/v_natoms"
print "${xlength}, ${volume}, ${etotal}, ${ecoh}" append lattice_cohesive_energy.txt screen no

next i
jump SELF loop

change_box all x scale 1.0025 y scale 1.0025 z scale 1.0025 remap
Changing box ...
  orthogonal box = (-0.080709509 -0.076742653 -0.076742653) to (3.1007095 3.0967427 3.0967427)
  orthogonal box = (-0.080709509 -0.080709509 -0.076742653) to (3.1007095 3.1007095 3.0967427)
  orthogonal box = (-0.080709509 -0.080709509 -0.080709509) to (3.1007095 3.1007095 3.1007095)

run 1
WARNING: No fixes with time integration, atoms won't move (src/verlet.cpp:60)
WARNING: Proc sub-domain size < neighbor skin, could lead to lost atoms (src/domain.cpp:966)
Per MPI rank memory allocation (min/avg/max) = 8.549 | 8.549 | 8.55 Mbytes
   Step         PotEng         TotEng           Lx             Ly             Lz           Volume         Press           Pxx            Pyy            Pzz      
        57  -8.9258977     -8.9258977      3.181419       3.181419       3.181419       32.2005       -152508.84     -152508.84     -152508.84     -152508.84    
        58  -8.9258977     -8.9258977      3.181419       3.181419       3.181419       32.2005       -152508.84     -152508.84     -152508.84     -152508.84    
Loop time of 0.00012075 on 8 procs for 1 steps with 2 atoms

Performance: 715.528 ns/day, 0.034 hours/ns, 8281.573 timesteps/s, 16.563 katom-step/s
0.0% CPU use with 8 MPI tasks x 1 OpenMP threads

MPI task timing breakdown:
Section |  min time  |  avg time  |  max time  |%varavg| %total
---------------------------------------------------------------
Pair    | 7.4e-05    | 7.75e-05   | 8.5e-05    |   0.0 | 64.18
Neigh   | 0          | 0          | 0          |   0.0 |  0.00
Comm    | 1e-05      | 1.575e-05  | 2.7e-05    |   0.0 | 13.04
Output  | 1.2e-05    | 2.125e-05  | 2.9e-05    |   0.0 | 17.60
Modify  | 0          | 0          | 0          |   0.0 |  0.00
Other   |            | 6.25e-06   |            |       |  5.18

Nlocal:           0.25 ave           2 max           0 min
Histogram: 7 0 0 0 0 0 0 0 0 1
Nghost:         127.75 ave         128 max         126 min
Histogram: 1 0 0 0 0 0 0 0 0 7
Neighs:           7.25 ave          58 max           0 min
Histogram: 7 0 0 0 0 0 0 0 0 1
FullNghs:         14.5 ave         116 max           0 min
Histogram: 7 0 0 0 0 0 0 0 0 1

Total # of neighbors = 116
Ave neighs/atom = 58
Neighbor list builds = 0
Dangerous builds = 0
variable  natoms equal "count(all)"
variable xlength equal "lx"
variable  volume equal "vol"
variable  etotal equal "etotal"
variable    ecoh equal "pe/v_natoms"
print "${xlength}, ${volume}, ${etotal}, ${ecoh}" append lattice_cohesive_energy.txt screen no

next i
jump SELF loop

change_box all x scale 1.0025 y scale 1.0025 z scale 1.0025 remap
Changing box ...
  orthogonal box = (-0.084686283 -0.080709509 -0.080709509) to (3.1046863 3.1007095 3.1007095)
  orthogonal box = (-0.084686283 -0.084686283 -0.080709509) to (3.1046863 3.1046863 3.1007095)
  orthogonal box = (-0.084686283 -0.084686283 -0.084686283) to (3.1046863 3.1046863 3.1046863)

run 1
WARNING: No fixes with time integration, atoms won't move (src/verlet.cpp:60)
Per MPI rank memory allocation (min/avg/max) = 8.549 | 8.549 | 8.55 Mbytes
   Step         PotEng         TotEng           Lx             Ly             Lz           Volume         Press           Pxx            Pyy            Pzz      
WARNING: Too many warnings: 101 vs 100. All future warnings will be suppressed (src/thermo.cpp:466)
        58  -8.9025413     -8.9025413      3.1893726      3.1893726      3.1893726      32.442608     -156585.09     -156585.09     -156585.09     -156585.09    
        59  -8.9025413     -8.9025413      3.1893726      3.1893726      3.1893726      32.442608     -156585.09     -156585.09     -156585.09     -156585.09    
Loop time of 0.00011975 on 8 procs for 1 steps with 2 atoms

Performance: 721.503 ns/day, 0.033 hours/ns, 8350.731 timesteps/s, 16.701 katom-step/s
0.0% CPU use with 8 MPI tasks x 1 OpenMP threads

MPI task timing breakdown:
Section |  min time  |  avg time  |  max time  |%varavg| %total
---------------------------------------------------------------
Pair    | 7.6e-05    | 7.7375e-05 | 8.4e-05    |   0.0 | 64.61
Neigh   | 0          | 0          | 0          |   0.0 |  0.00
Comm    | 1e-05      | 1.5625e-05 | 2.4e-05    |   0.0 | 13.05
Output  | 1.3e-05    | 2.0625e-05 | 2.7e-05    |   0.0 | 17.22
Modify  | 0          | 0          | 0          |   0.0 |  0.00
Other   |            | 6.125e-06  |            |       |  5.11

Nlocal:           0.25 ave           2 max           0 min
Histogram: 7 0 0 0 0 0 0 0 0 1
Nghost:         127.75 ave         128 max         126 min
Histogram: 1 0 0 0 0 0 0 0 0 7
Neighs:           7.25 ave          58 max           0 min
Histogram: 7 0 0 0 0 0 0 0 0 1
FullNghs:         14.5 ave         116 max           0 min
Histogram: 7 0 0 0 0 0 0 0 0 1

Total # of neighbors = 116
Ave neighs/atom = 58
Neighbor list builds = 0
Dangerous builds = 0
variable  natoms equal "count(all)"
variable xlength equal "lx"
variable  volume equal "vol"
variable  etotal equal "etotal"
variable    ecoh equal "pe/v_natoms"
print "${xlength}, ${volume}, ${etotal}, ${ecoh}" append lattice_cohesive_energy.txt screen no

next i
jump SELF loop

print "-------------------------------------------------------------"
-------------------------------------------------------------
print "Show results of 1st step (Running Minimization)"
Show results of 1st step (Running Minimization)
print "The number of atoms = ${natoms};"
The number of atoms = 2;
print "The lattice constant, x (Angstoms) = ${x0};"
The lattice constant, x (Angstoms) = 3.18937256612912;
print "The lattice constant, y (Angstoms) = ${y0};"
The lattice constant, y (Angstoms) = 3.18937256612912;
print "The lattice constant, z (Angstoms) = ${z0};"
The lattice constant, z (Angstoms) = 3.18937256612912;
print "The volume (Angstoms^3) = ${v0};"
The volume (Angstoms^3) = 32.4426082777657;
print "The total energy (eV) = ${etot0};"
The total energy (eV) = -8.90254125329655;
print "The cohesive energy (eV/atom) = ${ecoh0};"
The cohesive energy (eV/atom) = -4.45127062664828;
print "-------------------------------------------------------------"
-------------------------------------------------------------
print "Simulations completed !"
Simulations completed !
Total wall time: 0:00:00
