LAMMPS (22 Dec 2022)
  using 1 OpenMP thread(s) per MPI task
Loaded 1 plugins from C:\Program Files\LAMMPS 64-bit 23Jun2022\plugins
Loaded 0 plugins from C:\Program Files\LAMMPS 64-bit 23Jun2022-MPI\plugins
Loaded 1 plugins from C:\Program Files\LAMMPS 64-bit 22Dec2022-MSMPI\plugins
Loaded 1 plugins from C:\Program Files\LAMMPS 64-bit 28Mar2023-MPI\plugins
#------------------------------------------------------------------------------------------
# LAMMPS 64-bit 22Dec2022-MSMPI
#------------------------------------------------------------------------------------------
clear
  using 1 OpenMP thread(s) per MPI task
Loaded 1 plugins from C:\Program Files\LAMMPS 64-bit 23Jun2022\plugins
Loaded 0 plugins from C:\Program Files\LAMMPS 64-bit 23Jun2022-MPI\plugins
Loaded 1 plugins from C:\Program Files\LAMMPS 64-bit 22Dec2022-MSMPI\plugins
Loaded 1 plugins from C:\Program Files\LAMMPS 64-bit 28Mar2023-MPI\plugins
#echo both
# ---------- Initializing Simulation ---------------------------------
units metal
dimension 3
boundary p p p
atom_style atomic
atom_modify map array

read_data ./../../TiCr.data
Reading data file ...
  orthogonal box = (0 0 0) to (3.06 3.06 3.06)
  2 by 2 by 2 MPI processor grid
  reading atoms ...
  2 atoms
  read_data CPU = 0.001 seconds

replicate 1 1 1
Replication is creating a 1x1x1 = 1 times larger system...
  orthogonal box = (0 0 0) to (3.06 3.06 3.06)
  2 by 2 by 2 MPI processor grid
  2 atoms
  replicate CPU = 0.000 seconds

# ---------- Defining the Interatomic Potential ---------------------
pair_style meam
pair_coeff * * ./../../library.meam Ti Cr N ./../../TiCrN.meam Ti Cr

# ---------- Running Minimization -------------------------------------
fix 1 all box/relax iso 0.0 vmax 0.001

thermo 10
thermo_style custom step pe etotal lx ly lz vol press pxx pyy pzz

min_style cg
minimize 1e-25 1e-25 5000 10000
Neighbor list info ...
  update: every = 1 steps, delay = 0 steps, check = yes
  max neighbors/atom: 2000, page size: 100000
  master list distance cutoff = 7
  ghost atom cutoff = 7
  binsize = 3.5, bins = 1 1 1
  2 neighbor lists, perpetual/occasional/extra = 2 0 0
  (1) pair meam, perpetual
      attributes: full, newton on
      pair build: full/bin/atomonly
      stencil: full/bin/3d
      bin: standard
  (2) pair meam, perpetual, half/full from (1)
      attributes: half, newton on
      pair build: halffull/newton
      stencil: none
      bin: none
WARNING: Proc sub-domain size < neighbor skin, could lead to lost atoms (src/domain.cpp:966)
Per MPI rank memory allocation (min/avg/max) = 9.67 | 9.67 | 9.67 Mbytes
   Step         PotEng         TotEng           Lx             Ly             Lz           Volume         Press           Pxx            Pyy            Pzz      
         0  -9.1766707     -9.1766707      3.06           3.06           3.06           28.652616     -63894.46      -63894.46      -63894.46      -63894.46     
        10  -9.2023949     -9.2023949      3.0294         3.0294         3.0294         27.801605     -32121.672     -32121.672     -32121.672     -32121.672    
        20  -9.21          -9.21           3.0022214      3.0022214      3.0022214      27.060023     -0.00081202381 -0.00081202352 -0.00081202394 -0.00081202396
        22  -9.21          -9.21           3.0022214      3.0022214      3.0022214      27.060023      6.0735809e-10  9.654734e-10   1.0143633e-09 -1.5776246e-10
Loop time of 0.0043135 on 8 procs for 22 steps with 2 atoms

0.0% CPU use with 8 MPI tasks x 1 OpenMP threads

Minimization stats:
  Stopping criterion = quadratic factors are zero
  Energy initial, next-to-last, final = 
     -9.17667069385733  -9.20999999948062  -9.20999999948062
  Force two-norm initial, final = 3.4279808 3.1555845e-14
  Force max component initial, final = 3.4279808 3.1366249e-14
  Final line search alpha, max atom move = 1 3.1366249e-14
  Iterations, force evaluations = 22 26

MPI task timing breakdown:
Section |  min time  |  avg time  |  max time  |%varavg| %total
---------------------------------------------------------------
Pair    | 0.002509   | 0.0025468  | 0.002624   |   0.1 | 59.04
Neigh   | 0          | 0          | 0          |   0.0 |  0.00
Comm    | 0.000481   | 0.00056412 | 0.000668   |   0.0 | 13.08
Output  | 2.2e-05    | 2.2125e-05 | 2.3e-05    |   0.0 |  0.51
Modify  | 0          | 0          | 0          |   0.0 |  0.00
Other   |            | 0.001181   |            |       | 27.37

Nlocal:           0.25 ave           1 max           0 min
Histogram: 6 0 0 0 0 0 0 0 0 2
Nghost:         249.75 ave         250 max         249 min
Histogram: 2 0 0 0 0 0 0 0 0 6
Neighs:             14 ave          56 max           0 min
Histogram: 6 0 0 0 0 0 0 0 0 2
FullNghs:           28 ave         112 max           0 min
Histogram: 6 0 0 0 0 0 0 0 0 2

Total # of neighbors = 224
Ave neighs/atom = 112
Neighbor list builds = 0
Dangerous builds = 0

variable  natoms equal "count(all)"
variable      x0 equal "lx"
variable      y0 equal "ly"
variable      z0 equal "lz"
variable      v0 equal "vol"
variable   etot0 equal "etotal"
variable   ecoh0 equal "pe/v_natoms"

unfix 1
write_data ./../step2_elastic/data.in
System init for write_data ...
WARNING: Proc sub-domain size < neighbor skin, could lead to lost atoms (src/domain.cpp:966)

# ---------- For Equation of States -------------------------------------
change_box all x scale 0.94 y scale 0.94 z scale 0.94 remap
Changing box ...
  orthogonal box = (0.11895593 0.028889292 0.028889292) to (2.9410441 3.0311107 3.0311107)
  orthogonal box = (0.11895593 0.11895593 0.028889292) to (2.9410441 2.9410441 3.0311107)
  orthogonal box = (0.11895593 0.11895593 0.11895593) to (2.9410441 2.9410441 2.9410441)
run 1
WARNING: No fixes with time integration, atoms won't move (src/verlet.cpp:60)
WARNING: Proc sub-domain size < neighbor skin, could lead to lost atoms (src/domain.cpp:966)
Per MPI rank memory allocation (min/avg/max) = 8.545 | 8.545 | 8.547 Mbytes
   Step         PotEng         TotEng           Lx             Ly             Lz           Volume         Press           Pxx            Pyy            Pzz      
        22  -8.7972443     -8.7972443      2.8220881      2.8220881      2.8220881      22.475622      335906.31      335906.31      335906.31      335906.31    
        23  -8.7972443     -8.7972443      2.8220881      2.8220881      2.8220881      22.475622      335906.31      335906.31      335906.31      335906.31    
Loop time of 0.000143 on 8 procs for 1 steps with 2 atoms

Performance: 604.196 ns/day, 0.040 hours/ns, 6993.007 timesteps/s, 13.986 katom-step/s
0.0% CPU use with 8 MPI tasks x 1 OpenMP threads

MPI task timing breakdown:
Section |  min time  |  avg time  |  max time  |%varavg| %total
---------------------------------------------------------------
Pair    | 9.6e-05    | 9.8125e-05 | 0.000101   |   0.0 | 68.62
Neigh   | 0          | 0          | 0          |   0.0 |  0.00
Comm    | 2.2e-05    | 2.5e-05    | 2.8e-05    |   0.0 | 17.48
Output  | 1.2e-05    | 1.5125e-05 | 2e-05      |   0.0 | 10.58
Modify  | 0          | 0          | 0          |   0.0 |  0.00
Other   |            | 4.75e-06   |            |       |  3.32

Nlocal:           0.25 ave           1 max           0 min
Histogram: 6 0 0 0 0 0 0 0 0 2
Nghost:         249.75 ave         250 max         249 min
Histogram: 2 0 0 0 0 0 0 0 0 6
Neighs:             17 ave          68 max           0 min
Histogram: 6 0 0 0 0 0 0 0 0 2
FullNghs:           34 ave         136 max           0 min
Histogram: 6 0 0 0 0 0 0 0 0 2

Total # of neighbors = 272
Ave neighs/atom = 136
Neighbor list builds = 0
Dangerous builds = 0
print "# Lattice constant (Angstroms), Volume (Angstrom), Total energy (eV), Cohesive energy (eV/atom)" file lattice_cohesive_energy.txt screen no


# Loop over lattice constants
variable i loop 49 # Number of steps
label loop

change_box all x scale 1.0025 y scale 1.0025 z scale 1.0025 remap
Changing box ...
  orthogonal box = (0.11542832 0.11895593 0.11895593) to (2.9445717 2.9410441 2.9410441)
  orthogonal box = (0.11542832 0.11542832 0.11895593) to (2.9445717 2.9445717 2.9410441)
  orthogonal box = (0.11542832 0.11542832 0.11542832) to (2.9445717 2.9445717 2.9445717)

run 1
WARNING: No fixes with time integration, atoms won't move (src/verlet.cpp:60)
WARNING: Proc sub-domain size < neighbor skin, could lead to lost atoms (src/domain.cpp:966)
Per MPI rank memory allocation (min/avg/max) = 8.545 | 8.545 | 8.547 Mbytes
   Step         PotEng         TotEng           Lx             Ly             Lz           Volume         Press           Pxx            Pyy            Pzz      
        23  -8.8317099     -8.8317099      2.8291434      2.8291434      2.8291434      22.644611      317726.01      317726.01      317726.01      317726.01    
        24  -8.8317099     -8.8317099      2.8291434      2.8291434      2.8291434      22.644611      317726.01      317726.01      317726.01      317726.01    
Loop time of 0.0002385 on 8 procs for 1 steps with 2 atoms

Performance: 362.264 ns/day, 0.066 hours/ns, 4192.872 timesteps/s, 8.386 katom-step/s
0.0% CPU use with 8 MPI tasks x 1 OpenMP threads

MPI task timing breakdown:
Section |  min time  |  avg time  |  max time  |%varavg| %total
---------------------------------------------------------------
Pair    | 0.000197   | 0.0002     | 0.000203   |   0.0 | 83.86
Neigh   | 0          | 0          | 0          |   0.0 |  0.00
Comm    | 1.8e-05    | 1.9875e-05 | 2.3e-05    |   0.0 |  8.33
Output  | 1.1e-05    | 1.4e-05    | 1.9e-05    |   0.0 |  5.87
Modify  | 0          | 1.25e-07   | 1e-06      |   0.0 |  0.05
Other   |            | 4.5e-06    |            |       |  1.89

Nlocal:           0.25 ave           1 max           0 min
Histogram: 6 0 0 0 0 0 0 0 0 2
Nghost:         249.75 ave         250 max         249 min
Histogram: 2 0 0 0 0 0 0 0 0 6
Neighs:             17 ave          68 max           0 min
Histogram: 6 0 0 0 0 0 0 0 0 2
FullNghs:           34 ave         136 max           0 min
Histogram: 6 0 0 0 0 0 0 0 0 2

Total # of neighbors = 272
Ave neighs/atom = 136
Neighbor list builds = 0
Dangerous builds = 0
variable  natoms equal "count(all)"
variable xlength equal "lx"
variable  volume equal "vol"
variable  etotal equal "etotal"
variable    ecoh equal "pe/v_natoms"
print "${xlength}, ${volume}, ${etotal}, ${ecoh}" append lattice_cohesive_energy.txt screen no

next i
jump SELF loop

change_box all x scale 1.0025 y scale 1.0025 z scale 1.0025 remap
Changing box ...
  orthogonal box = (0.1118919 0.11542832 0.11542832) to (2.9481081 2.9445717 2.9445717)
  orthogonal box = (0.1118919 0.1118919 0.11542832) to (2.9481081 2.9481081 2.9445717)
  orthogonal box = (0.1118919 0.1118919 0.1118919) to (2.9481081 2.9481081 2.9481081)

run 1
WARNING: No fixes with time integration, atoms won't move (src/verlet.cpp:60)
WARNING: Proc sub-domain size < neighbor skin, could lead to lost atoms (src/domain.cpp:966)
Per MPI rank memory allocation (min/avg/max) = 8.545 | 8.545 | 8.547 Mbytes
   Step         PotEng         TotEng           Lx             Ly             Lz           Volume         Press           Pxx            Pyy            Pzz      
        24  -8.8645265     -8.8645265      2.8362162      2.8362162      2.8362162      22.81487       299990.43      299990.43      299990.43      299990.43    
        25  -8.8645265     -8.8645265      2.8362162      2.8362162      2.8362162      22.81487       299990.43      299990.43      299990.43      299990.43    
Loop time of 0.000129 on 8 procs for 1 steps with 2 atoms

Performance: 669.767 ns/day, 0.036 hours/ns, 7751.938 timesteps/s, 15.504 katom-step/s
0.0% CPU use with 8 MPI tasks x 1 OpenMP threads

MPI task timing breakdown:
Section |  min time  |  avg time  |  max time  |%varavg| %total
---------------------------------------------------------------
Pair    | 9.4e-05    | 9.4625e-05 | 9.5e-05    |   0.0 | 73.35
Neigh   | 0          | 0          | 0          |   0.0 |  0.00
Comm    | 1.6e-05    | 1.7875e-05 | 2e-05      |   0.0 | 13.86
Output  | 1.1e-05    | 1.25e-05   | 1.4e-05    |   0.0 |  9.69
Modify  | 0          | 1.25e-07   | 1e-06      |   0.0 |  0.10
Other   |            | 3.875e-06  |            |       |  3.00

Nlocal:           0.25 ave           1 max           0 min
Histogram: 6 0 0 0 0 0 0 0 0 2
Nghost:         249.75 ave         250 max         249 min
Histogram: 2 0 0 0 0 0 0 0 0 6
Neighs:             17 ave          68 max           0 min
Histogram: 6 0 0 0 0 0 0 0 0 2
FullNghs:           34 ave         136 max           0 min
Histogram: 6 0 0 0 0 0 0 0 0 2

Total # of neighbors = 272
Ave neighs/atom = 136
Neighbor list builds = 0
Dangerous builds = 0
variable  natoms equal "count(all)"
variable xlength equal "lx"
variable  volume equal "vol"
variable  etotal equal "etotal"
variable    ecoh equal "pe/v_natoms"
print "${xlength}, ${volume}, ${etotal}, ${ecoh}" append lattice_cohesive_energy.txt screen no

next i
jump SELF loop

change_box all x scale 1.0025 y scale 1.0025 z scale 1.0025 remap
Changing box ...
  orthogonal box = (0.10834663 0.1118919 0.1118919) to (2.9516534 2.9481081 2.9481081)
  orthogonal box = (0.10834663 0.10834663 0.1118919) to (2.9516534 2.9516534 2.9481081)
  orthogonal box = (0.10834663 0.10834663 0.10834663) to (2.9516534 2.9516534 2.9516534)

run 1
WARNING: No fixes with time integration, atoms won't move (src/verlet.cpp:60)
WARNING: Proc sub-domain size < neighbor skin, could lead to lost atoms (src/domain.cpp:966)
Per MPI rank memory allocation (min/avg/max) = 8.545 | 8.545 | 8.547 Mbytes
   Step         PotEng         TotEng           Lx             Ly             Lz           Volume         Press           Pxx            Pyy            Pzz      
        25  -8.8957144     -8.8957144      2.8433067      2.8433067      2.8433067      22.98641       282691.64      282691.64      282691.64      282691.64    
        26  -8.8957144     -8.8957144      2.8433067      2.8433067      2.8433067      22.98641       282691.64      282691.64      282691.64      282691.64    
Loop time of 0.00014275 on 8 procs for 1 steps with 2 atoms

Performance: 605.254 ns/day, 0.040 hours/ns, 7005.254 timesteps/s, 14.011 katom-step/s
0.0% CPU use with 8 MPI tasks x 1 OpenMP threads

MPI task timing breakdown:
Section |  min time  |  avg time  |  max time  |%varavg| %total
---------------------------------------------------------------
Pair    | 9.5e-05    | 9.725e-05  | 0.0001     |   0.0 | 68.13
Neigh   | 0          | 0          | 0          |   0.0 |  0.00
Comm    | 1.7e-05    | 1.975e-05  | 2.3e-05    |   0.0 | 13.84
Output  | 1.1e-05    | 1.4375e-05 | 2e-05      |   0.0 | 10.07
Modify  | 0          | 0          | 0          |   0.0 |  0.00
Other   |            | 1.137e-05  |            |       |  7.97

Nlocal:           0.25 ave           1 max           0 min
Histogram: 6 0 0 0 0 0 0 0 0 2
Nghost:         249.75 ave         250 max         249 min
Histogram: 2 0 0 0 0 0 0 0 0 6
Neighs:             17 ave          68 max           0 min
Histogram: 6 0 0 0 0 0 0 0 0 2
FullNghs:           34 ave         136 max           0 min
Histogram: 6 0 0 0 0 0 0 0 0 2

Total # of neighbors = 272
Ave neighs/atom = 136
Neighbor list builds = 0
Dangerous builds = 0
variable  natoms equal "count(all)"
variable xlength equal "lx"
variable  volume equal "vol"
variable  etotal equal "etotal"
variable    ecoh equal "pe/v_natoms"
print "${xlength}, ${volume}, ${etotal}, ${ecoh}" append lattice_cohesive_energy.txt screen no

next i
jump SELF loop

change_box all x scale 1.0025 y scale 1.0025 z scale 1.0025 remap
Changing box ...
  orthogonal box = (0.10479249 0.10834663 0.10834663) to (2.9552075 2.9516534 2.9516534)
  orthogonal box = (0.10479249 0.10479249 0.10834663) to (2.9552075 2.9552075 2.9516534)
  orthogonal box = (0.10479249 0.10479249 0.10479249) to (2.9552075 2.9552075 2.9552075)

run 1
WARNING: No fixes with time integration, atoms won't move (src/verlet.cpp:60)
WARNING: Proc sub-domain size < neighbor skin, could lead to lost atoms (src/domain.cpp:966)
Per MPI rank memory allocation (min/avg/max) = 8.545 | 8.545 | 8.547 Mbytes
   Step         PotEng         TotEng           Lx             Ly             Lz           Volume         Press           Pxx            Pyy            Pzz      
        26  -8.925294      -8.925294       2.850415       2.850415       2.850415       23.159239      265821.85      265821.85      265821.85      265821.85    
        27  -8.925294      -8.925294       2.850415       2.850415       2.850415       23.159239      265821.85      265821.85      265821.85      265821.85    
Loop time of 0.00013425 on 8 procs for 1 steps with 2 atoms

Performance: 643.575 ns/day, 0.037 hours/ns, 7448.790 timesteps/s, 14.898 katom-step/s
0.0% CPU use with 8 MPI tasks x 1 OpenMP threads

MPI task timing breakdown:
Section |  min time  |  avg time  |  max time  |%varavg| %total
---------------------------------------------------------------
Pair    | 9.5e-05    | 9.8375e-05 | 0.000101   |   0.0 | 73.28
Neigh   | 0          | 0          | 0          |   0.0 |  0.00
Comm    | 1.5e-05    | 1.925e-05  | 2.2e-05    |   0.0 | 14.34
Output  | 1.1e-05    | 1.2375e-05 | 1.5e-05    |   0.0 |  9.22
Modify  | 0          | 2.5e-07    | 1e-06      |   0.0 |  0.19
Other   |            | 4e-06      |            |       |  2.98

Nlocal:           0.25 ave           1 max           0 min
Histogram: 6 0 0 0 0 0 0 0 0 2
Nghost:         249.75 ave         250 max         249 min
Histogram: 2 0 0 0 0 0 0 0 0 6
Neighs:             17 ave          68 max           0 min
Histogram: 6 0 0 0 0 0 0 0 0 2
FullNghs:           34 ave         136 max           0 min
Histogram: 6 0 0 0 0 0 0 0 0 2

Total # of neighbors = 272
Ave neighs/atom = 136
Neighbor list builds = 0
Dangerous builds = 0
variable  natoms equal "count(all)"
variable xlength equal "lx"
variable  volume equal "vol"
variable  etotal equal "etotal"
variable    ecoh equal "pe/v_natoms"
print "${xlength}, ${volume}, ${etotal}, ${ecoh}" append lattice_cohesive_energy.txt screen no

next i
jump SELF loop

change_box all x scale 1.0025 y scale 1.0025 z scale 1.0025 remap
Changing box ...
  orthogonal box = (0.10122947 0.10479249 0.10479249) to (2.9587705 2.9552075 2.9552075)
  orthogonal box = (0.10122947 0.10122947 0.10479249) to (2.9587705 2.9587705 2.9552075)
  orthogonal box = (0.10122947 0.10122947 0.10122947) to (2.9587705 2.9587705 2.9587705)

run 1
WARNING: No fixes with time integration, atoms won't move (src/verlet.cpp:60)
WARNING: Proc sub-domain size < neighbor skin, could lead to lost atoms (src/domain.cpp:966)
Per MPI rank memory allocation (min/avg/max) = 8.545 | 8.545 | 8.547 Mbytes
   Step         PotEng         TotEng           Lx             Ly             Lz           Volume         Press           Pxx            Pyy            Pzz      
        27  -8.9532855     -8.9532855      2.8575411      2.8575411      2.8575411      23.333368      249373.36      249373.36      249373.36      249373.36    
        28  -8.9532855     -8.9532855      2.8575411      2.8575411      2.8575411      23.333368      249373.36      249373.36      249373.36      249373.36    
Loop time of 0.000127875 on 8 procs for 1 steps with 2 atoms

Performance: 675.660 ns/day, 0.036 hours/ns, 7820.137 timesteps/s, 15.640 katom-step/s
0.0% CPU use with 8 MPI tasks x 1 OpenMP threads

MPI task timing breakdown:
Section |  min time  |  avg time  |  max time  |%varavg| %total
---------------------------------------------------------------
Pair    | 9.3e-05    | 9.3875e-05 | 9.5e-05    |   0.0 | 73.41
Neigh   | 0          | 0          | 0          |   0.0 |  0.00
Comm    | 1.7e-05    | 1.7875e-05 | 1.9e-05    |   0.0 | 13.98
Output  | 1e-05      | 1.2125e-05 | 1.4e-05    |   0.0 |  9.48
Modify  | 0          | 2.5e-07    | 1e-06      |   0.0 |  0.20
Other   |            | 3.75e-06   |            |       |  2.93

Nlocal:           0.25 ave           1 max           0 min
Histogram: 6 0 0 0 0 0 0 0 0 2
Nghost:         249.75 ave         250 max         249 min
Histogram: 2 0 0 0 0 0 0 0 0 6
Neighs:             17 ave          68 max           0 min
Histogram: 6 0 0 0 0 0 0 0 0 2
FullNghs:           34 ave         136 max           0 min
Histogram: 6 0 0 0 0 0 0 0 0 2

Total # of neighbors = 272
Ave neighs/atom = 136
Neighbor list builds = 0
Dangerous builds = 0
variable  natoms equal "count(all)"
variable xlength equal "lx"
variable  volume equal "vol"
variable  etotal equal "etotal"
variable    ecoh equal "pe/v_natoms"
print "${xlength}, ${volume}, ${etotal}, ${ecoh}" append lattice_cohesive_energy.txt screen no

next i
jump SELF loop

change_box all x scale 1.0025 y scale 1.0025 z scale 1.0025 remap
Changing box ...
  orthogonal box = (0.097657547 0.10122947 0.10122947) to (2.9623425 2.9587705 2.9587705)
  orthogonal box = (0.097657547 0.097657547 0.10122947) to (2.9623425 2.9623425 2.9587705)
  orthogonal box = (0.097657547 0.097657547 0.097657547) to (2.9623425 2.9623425 2.9623425)

run 1
WARNING: No fixes with time integration, atoms won't move (src/verlet.cpp:60)
WARNING: Proc sub-domain size < neighbor skin, could lead to lost atoms (src/domain.cpp:966)
Per MPI rank memory allocation (min/avg/max) = 8.545 | 8.545 | 8.547 Mbytes
   Step         PotEng         TotEng           Lx             Ly             Lz           Volume         Press           Pxx            Pyy            Pzz      
        28  -8.9797091     -8.9797091      2.8646849      2.8646849      2.8646849      23.508806      233338.58      233338.58      233338.58      233338.58    
        29  -8.9797091     -8.9797091      2.8646849      2.8646849      2.8646849      23.508806      233338.58      233338.58      233338.58      233338.58    
Loop time of 0.000135 on 8 procs for 1 steps with 2 atoms

Performance: 640.000 ns/day, 0.037 hours/ns, 7407.407 timesteps/s, 14.815 katom-step/s
0.0% CPU use with 8 MPI tasks x 1 OpenMP threads

MPI task timing breakdown:
Section |  min time  |  avg time  |  max time  |%varavg| %total
---------------------------------------------------------------
Pair    | 9.4e-05    | 9.7625e-05 | 0.000101   |   0.0 | 72.31
Neigh   | 0          | 0          | 0          |   0.0 |  0.00
Comm    | 1.6e-05    | 2e-05      | 2.3e-05    |   0.0 | 14.81
Output  | 1e-05      | 1.325e-05  | 1.7e-05    |   0.0 |  9.81
Modify  | 0          | 1.25e-07   | 1e-06      |   0.0 |  0.09
Other   |            | 4e-06      |            |       |  2.96

Nlocal:           0.25 ave           1 max           0 min
Histogram: 6 0 0 0 0 0 0 0 0 2
Nghost:         249.75 ave         250 max         249 min
Histogram: 2 0 0 0 0 0 0 0 0 6
Neighs:             14 ave          56 max           0 min
Histogram: 6 0 0 0 0 0 0 0 0 2
FullNghs:           28 ave         112 max           0 min
Histogram: 6 0 0 0 0 0 0 0 0 2

Total # of neighbors = 224
Ave neighs/atom = 112
Neighbor list builds = 0
Dangerous builds = 0
variable  natoms equal "count(all)"
variable xlength equal "lx"
variable  volume equal "vol"
variable  etotal equal "etotal"
variable    ecoh equal "pe/v_natoms"
print "${xlength}, ${volume}, ${etotal}, ${ecoh}" append lattice_cohesive_energy.txt screen no

next i
jump SELF loop

change_box all x scale 1.0025 y scale 1.0025 z scale 1.0025 remap
Changing box ...
  orthogonal box = (0.09407669 0.097657547 0.097657547) to (2.9659233 2.9623425 2.9623425)
  orthogonal box = (0.09407669 0.09407669 0.097657547) to (2.9659233 2.9659233 2.9623425)
  orthogonal box = (0.09407669 0.09407669 0.09407669) to (2.9659233 2.9659233 2.9659233)

run 1
WARNING: No fixes with time integration, atoms won't move (src/verlet.cpp:60)
WARNING: Proc sub-domain size < neighbor skin, could lead to lost atoms (src/domain.cpp:966)
Per MPI rank memory allocation (min/avg/max) = 8.573 | 8.573 | 8.575 Mbytes
   Step         PotEng         TotEng           Lx             Ly             Lz           Volume         Press           Pxx            Pyy            Pzz      
        29  -9.0045849     -9.0045849      2.8718466      2.8718466      2.8718466      23.685564      217710.1       217710.1       217710.1       217710.1     
        30  -9.0045849     -9.0045849      2.8718466      2.8718466      2.8718466      23.685564      217710.1       217710.1       217710.1       217710.1     
Loop time of 0.00016925 on 8 procs for 1 steps with 2 atoms

Performance: 510.487 ns/day, 0.047 hours/ns, 5908.419 timesteps/s, 11.817 katom-step/s
0.0% CPU use with 8 MPI tasks x 1 OpenMP threads

MPI task timing breakdown:
Section |  min time  |  avg time  |  max time  |%varavg| %total
---------------------------------------------------------------
Pair    | 0.000123   | 0.00012463 | 0.000132   |   0.0 | 73.63
Neigh   | 0          | 0          | 0          |   0.0 |  0.00
Comm    | 1.4e-05    | 2.05e-05   | 3e-05      |   0.0 | 12.11
Output  | 1.2e-05    | 2e-05      | 2.7e-05    |   0.0 | 11.82
Modify  | 0          | 0          | 0          |   0.0 |  0.00
Other   |            | 4.125e-06  |            |       |  2.44

Nlocal:           0.25 ave           2 max           0 min
Histogram: 7 0 0 0 0 0 0 0 0 1
Nghost:         249.75 ave         250 max         248 min
Histogram: 1 0 0 0 0 0 0 0 0 7
Neighs:             14 ave         112 max           0 min
Histogram: 7 0 0 0 0 0 0 0 0 1
FullNghs:           28 ave         224 max           0 min
Histogram: 7 0 0 0 0 0 0 0 0 1

Total # of neighbors = 224
Ave neighs/atom = 112
Neighbor list builds = 0
Dangerous builds = 0
variable  natoms equal "count(all)"
variable xlength equal "lx"
variable  volume equal "vol"
variable  etotal equal "etotal"
variable    ecoh equal "pe/v_natoms"
print "${xlength}, ${volume}, ${etotal}, ${ecoh}" append lattice_cohesive_energy.txt screen no

next i
jump SELF loop

change_box all x scale 1.0025 y scale 1.0025 z scale 1.0025 remap
Changing box ...
  orthogonal box = (0.090486882 0.09407669 0.09407669) to (2.9695131 2.9659233 2.9659233)
  orthogonal box = (0.090486882 0.090486882 0.09407669) to (2.9695131 2.9695131 2.9659233)
  orthogonal box = (0.090486882 0.090486882 0.090486882) to (2.9695131 2.9695131 2.9695131)

run 1
WARNING: No fixes with time integration, atoms won't move (src/verlet.cpp:60)
WARNING: Proc sub-domain size < neighbor skin, could lead to lost atoms (src/domain.cpp:966)
Per MPI rank memory allocation (min/avg/max) = 8.573 | 8.573 | 8.575 Mbytes
   Step         PotEng         TotEng           Lx             Ly             Lz           Volume         Press           Pxx            Pyy            Pzz      
        30  -9.0279328     -9.0279328      2.8790262      2.8790262      2.8790262      23.86365       202480.54      202480.54      202480.54      202480.54    
        31  -9.0279328     -9.0279328      2.8790262      2.8790262      2.8790262      23.86365       202480.54      202480.54      202480.54      202480.54    
Loop time of 0.00015175 on 8 procs for 1 steps with 2 atoms

Performance: 569.357 ns/day, 0.042 hours/ns, 6589.786 timesteps/s, 13.180 katom-step/s
0.0% CPU use with 8 MPI tasks x 1 OpenMP threads

MPI task timing breakdown:
Section |  min time  |  avg time  |  max time  |%varavg| %total
---------------------------------------------------------------
Pair    | 0.000114   | 0.00011513 | 0.000118   |   0.0 | 75.86
Neigh   | 0          | 0          | 0          |   0.0 |  0.00
Comm    | 1.4e-05    | 1.8e-05    | 2.3e-05    |   0.0 | 11.86
Output  | 1e-05      | 1.5125e-05 | 1.9e-05    |   0.0 |  9.97
Modify  | 0          | 0          | 0          |   0.0 |  0.00
Other   |            | 3.5e-06    |            |       |  2.31

Nlocal:           0.25 ave           2 max           0 min
Histogram: 7 0 0 0 0 0 0 0 0 1
Nghost:         249.75 ave         250 max         248 min
Histogram: 1 0 0 0 0 0 0 0 0 7
Neighs:             14 ave         112 max           0 min
Histogram: 7 0 0 0 0 0 0 0 0 1
FullNghs:           28 ave         224 max           0 min
Histogram: 7 0 0 0 0 0 0 0 0 1

Total # of neighbors = 224
Ave neighs/atom = 112
Neighbor list builds = 0
Dangerous builds = 0
variable  natoms equal "count(all)"
variable xlength equal "lx"
variable  volume equal "vol"
variable  etotal equal "etotal"
variable    ecoh equal "pe/v_natoms"
print "${xlength}, ${volume}, ${etotal}, ${ecoh}" append lattice_cohesive_energy.txt screen no

next i
jump SELF loop

change_box all x scale 1.0025 y scale 1.0025 z scale 1.0025 remap
Changing box ...
  orthogonal box = (0.086888099 0.090486882 0.090486882) to (2.9731119 2.9695131 2.9695131)
  orthogonal box = (0.086888099 0.086888099 0.090486882) to (2.9731119 2.9731119 2.9695131)
  orthogonal box = (0.086888099 0.086888099 0.086888099) to (2.9731119 2.9731119 2.9731119)

run 1
WARNING: No fixes with time integration, atoms won't move (src/verlet.cpp:60)
WARNING: Proc sub-domain size < neighbor skin, could lead to lost atoms (src/domain.cpp:966)
Per MPI rank memory allocation (min/avg/max) = 8.573 | 8.573 | 8.575 Mbytes
   Step         PotEng         TotEng           Lx             Ly             Lz           Volume         Press           Pxx            Pyy            Pzz      
        31  -9.0497728     -9.0497728      2.8862238      2.8862238      2.8862238      24.043075      187642.61      187642.61      187642.61      187642.61    
        32  -9.0497728     -9.0497728      2.8862238      2.8862238      2.8862238      24.043075      187642.61      187642.61      187642.61      187642.61    
Loop time of 0.000152375 on 8 procs for 1 steps with 2 atoms

Performance: 567.022 ns/day, 0.042 hours/ns, 6562.756 timesteps/s, 13.126 katom-step/s
0.0% CPU use with 8 MPI tasks x 1 OpenMP threads

MPI task timing breakdown:
Section |  min time  |  avg time  |  max time  |%varavg| %total
---------------------------------------------------------------
Pair    | 0.000114   | 0.00011575 | 0.000118   |   0.0 | 75.96
Neigh   | 0          | 0          | 0          |   0.0 |  0.00
Comm    | 1.4e-05    | 1.7375e-05 | 2.2e-05    |   0.0 | 11.40
Output  | 1.1e-05    | 1.5375e-05 | 2e-05      |   0.0 | 10.09
Modify  | 0          | 1.25e-07   | 1e-06      |   0.0 |  0.08
Other   |            | 3.75e-06   |            |       |  2.46

Nlocal:           0.25 ave           2 max           0 min
Histogram: 7 0 0 0 0 0 0 0 0 1
Nghost:         249.75 ave         250 max         248 min
Histogram: 1 0 0 0 0 0 0 0 0 7
Neighs:             14 ave         112 max           0 min
Histogram: 7 0 0 0 0 0 0 0 0 1
FullNghs:           28 ave         224 max           0 min
Histogram: 7 0 0 0 0 0 0 0 0 1

Total # of neighbors = 224
Ave neighs/atom = 112
Neighbor list builds = 0
Dangerous builds = 0
variable  natoms equal "count(all)"
variable xlength equal "lx"
variable  volume equal "vol"
variable  etotal equal "etotal"
variable    ecoh equal "pe/v_natoms"
print "${xlength}, ${volume}, ${etotal}, ${ecoh}" append lattice_cohesive_energy.txt screen no

next i
jump SELF loop

change_box all x scale 1.0025 y scale 1.0025 z scale 1.0025 remap
Changing box ...
  orthogonal box = (0.08328032 0.086888099 0.086888099) to (2.9767197 2.9731119 2.9731119)
  orthogonal box = (0.08328032 0.08328032 0.086888099) to (2.9767197 2.9767197 2.9731119)
  orthogonal box = (0.08328032 0.08328032 0.08328032) to (2.9767197 2.9767197 2.9767197)

run 1
WARNING: No fixes with time integration, atoms won't move (src/verlet.cpp:60)
WARNING: Proc sub-domain size < neighbor skin, could lead to lost atoms (src/domain.cpp:966)
Per MPI rank memory allocation (min/avg/max) = 8.573 | 8.573 | 8.575 Mbytes
   Step         PotEng         TotEng           Lx             Ly             Lz           Volume         Press           Pxx            Pyy            Pzz      
        32  -9.0701246     -9.0701246      2.8934394      2.8934394      2.8934394      24.223849      173189.16      173189.16      173189.16      173189.16    
        33  -9.0701246     -9.0701246      2.8934394      2.8934394      2.8934394      24.223849      173189.16      173189.16      173189.16      173189.16    
Loop time of 0.0001505 on 8 procs for 1 steps with 2 atoms

Performance: 574.086 ns/day, 0.042 hours/ns, 6644.518 timesteps/s, 13.289 katom-step/s
0.0% CPU use with 8 MPI tasks x 1 OpenMP threads

MPI task timing breakdown:
Section |  min time  |  avg time  |  max time  |%varavg| %total
---------------------------------------------------------------
Pair    | 0.000113   | 0.00011387 | 0.000117   |   0.0 | 75.66
Neigh   | 0          | 0          | 0          |   0.0 |  0.00
Comm    | 1.3e-05    | 1.7e-05    | 2.1e-05    |   0.0 | 11.30
Output  | 1.1e-05    | 1.5625e-05 | 2e-05      |   0.0 | 10.38
Modify  | 0          | 0          | 0          |   0.0 |  0.00
Other   |            | 4e-06      |            |       |  2.66

Nlocal:           0.25 ave           2 max           0 min
Histogram: 7 0 0 0 0 0 0 0 0 1
Nghost:         249.75 ave         250 max         248 min
Histogram: 1 0 0 0 0 0 0 0 0 7
Neighs:             14 ave         112 max           0 min
Histogram: 7 0 0 0 0 0 0 0 0 1
FullNghs:           28 ave         224 max           0 min
Histogram: 7 0 0 0 0 0 0 0 0 1

Total # of neighbors = 224
Ave neighs/atom = 112
Neighbor list builds = 0
Dangerous builds = 0
variable  natoms equal "count(all)"
variable xlength equal "lx"
variable  volume equal "vol"
variable  etotal equal "etotal"
variable    ecoh equal "pe/v_natoms"
print "${xlength}, ${volume}, ${etotal}, ${ecoh}" append lattice_cohesive_energy.txt screen no

next i
jump SELF loop

change_box all x scale 1.0025 y scale 1.0025 z scale 1.0025 remap
Changing box ...
  orthogonal box = (0.07966352 0.08328032 0.08328032) to (2.9803365 2.9767197 2.9767197)
  orthogonal box = (0.07966352 0.07966352 0.08328032) to (2.9803365 2.9803365 2.9767197)
  orthogonal box = (0.07966352 0.07966352 0.07966352) to (2.9803365 2.9803365 2.9803365)

run 1
WARNING: No fixes with time integration, atoms won't move (src/verlet.cpp:60)
WARNING: Proc sub-domain size < neighbor skin, could lead to lost atoms (src/domain.cpp:966)
Per MPI rank memory allocation (min/avg/max) = 8.573 | 8.573 | 8.575 Mbytes
   Step         PotEng         TotEng           Lx             Ly             Lz           Volume         Press           Pxx            Pyy            Pzz      
        33  -9.0890079     -9.0890079      2.900673       2.900673       2.900673       24.405983      159113.09      159113.09      159113.09      159113.09    
        34  -9.0890079     -9.0890079      2.900673       2.900673       2.900673       24.405983      159113.09      159113.09      159113.09      159113.09    
Loop time of 0.000156 on 8 procs for 1 steps with 2 atoms

Performance: 553.846 ns/day, 0.043 hours/ns, 6410.256 timesteps/s, 12.821 katom-step/s
0.0% CPU use with 8 MPI tasks x 1 OpenMP threads

MPI task timing breakdown:
Section |  min time  |  avg time  |  max time  |%varavg| %total
---------------------------------------------------------------
Pair    | 0.000115   | 0.000116   | 0.00012    |   0.0 | 74.36
Neigh   | 0          | 0          | 0          |   0.0 |  0.00
Comm    | 1.4e-05    | 1.85e-05   | 2.4e-05    |   0.0 | 11.86
Output  | 1e-05      | 1.65e-05   | 2.2e-05    |   0.0 | 10.58
Modify  | 0          | 1.25e-07   | 1e-06      |   0.0 |  0.08
Other   |            | 4.875e-06  |            |       |  3.12

Nlocal:           0.25 ave           2 max           0 min
Histogram: 7 0 0 0 0 0 0 0 0 1
Nghost:         249.75 ave         250 max         248 min
Histogram: 1 0 0 0 0 0 0 0 0 7
Neighs:             14 ave         112 max           0 min
Histogram: 7 0 0 0 0 0 0 0 0 1
FullNghs:           28 ave         224 max           0 min
Histogram: 7 0 0 0 0 0 0 0 0 1

Total # of neighbors = 224
Ave neighs/atom = 112
Neighbor list builds = 0
Dangerous builds = 0
variable  natoms equal "count(all)"
variable xlength equal "lx"
variable  volume equal "vol"
variable  etotal equal "etotal"
variable    ecoh equal "pe/v_natoms"
print "${xlength}, ${volume}, ${etotal}, ${ecoh}" append lattice_cohesive_energy.txt screen no

next i
jump SELF loop

change_box all x scale 1.0025 y scale 1.0025 z scale 1.0025 remap
Changing box ...
  orthogonal box = (0.076037679 0.07966352 0.07966352) to (2.9839623 2.9803365 2.9803365)
  orthogonal box = (0.076037679 0.076037679 0.07966352) to (2.9839623 2.9839623 2.9803365)
  orthogonal box = (0.076037679 0.076037679 0.076037679) to (2.9839623 2.9839623 2.9839623)

run 1
WARNING: No fixes with time integration, atoms won't move (src/verlet.cpp:60)
WARNING: Proc sub-domain size < neighbor skin, could lead to lost atoms (src/domain.cpp:966)
Per MPI rank memory allocation (min/avg/max) = 8.573 | 8.573 | 8.575 Mbytes
   Step         PotEng         TotEng           Lx             Ly             Lz           Volume         Press           Pxx            Pyy            Pzz      
        34  -9.1064423     -9.1064423      2.9079246      2.9079246      2.9079246      24.589486      145407.43      145407.43      145407.43      145407.43    
        35  -9.1064423     -9.1064423      2.9079246      2.9079246      2.9079246      24.589486      145407.43      145407.43      145407.43      145407.43    
Loop time of 0.000153375 on 8 procs for 1 steps with 2 atoms

Performance: 563.325 ns/day, 0.043 hours/ns, 6519.967 timesteps/s, 13.040 katom-step/s
0.0% CPU use with 8 MPI tasks x 1 OpenMP threads

MPI task timing breakdown:
Section |  min time  |  avg time  |  max time  |%varavg| %total
---------------------------------------------------------------
Pair    | 0.000113   | 0.00011512 | 0.000118   |   0.0 | 75.06
Neigh   | 0          | 0          | 0          |   0.0 |  0.00
Comm    | 1.4e-05    | 1.775e-05  | 2.3e-05    |   0.0 | 11.57
Output  | 1e-05      | 1.5125e-05 | 1.9e-05    |   0.0 |  9.86
Modify  | 0          | 1.25e-07   | 1e-06      |   0.0 |  0.08
Other   |            | 5.25e-06   |            |       |  3.42

Nlocal:           0.25 ave           2 max           0 min
Histogram: 7 0 0 0 0 0 0 0 0 1
Nghost:         249.75 ave         250 max         248 min
Histogram: 1 0 0 0 0 0 0 0 0 7
Neighs:             14 ave         112 max           0 min
Histogram: 7 0 0 0 0 0 0 0 0 1
FullNghs:           28 ave         224 max           0 min
Histogram: 7 0 0 0 0 0 0 0 0 1

Total # of neighbors = 224
Ave neighs/atom = 112
Neighbor list builds = 0
Dangerous builds = 0
variable  natoms equal "count(all)"
variable xlength equal "lx"
variable  volume equal "vol"
variable  etotal equal "etotal"
variable    ecoh equal "pe/v_natoms"
print "${xlength}, ${volume}, ${etotal}, ${ecoh}" append lattice_cohesive_energy.txt screen no

next i
jump SELF loop

change_box all x scale 1.0025 y scale 1.0025 z scale 1.0025 remap
Changing box ...
  orthogonal box = (0.072402773 0.076037679 0.076037679) to (2.9875972 2.9839623 2.9839623)
  orthogonal box = (0.072402773 0.072402773 0.076037679) to (2.9875972 2.9875972 2.9839623)
  orthogonal box = (0.072402773 0.072402773 0.072402773) to (2.9875972 2.9875972 2.9875972)

run 1
WARNING: No fixes with time integration, atoms won't move (src/verlet.cpp:60)
WARNING: Proc sub-domain size < neighbor skin, could lead to lost atoms (src/domain.cpp:966)
Per MPI rank memory allocation (min/avg/max) = 8.573 | 8.573 | 8.575 Mbytes
   Step         PotEng         TotEng           Lx             Ly             Lz           Volume         Press           Pxx            Pyy            Pzz      
        35  -9.1224473     -9.1224473      2.9151945      2.9151945      2.9151945      24.774368      132065.3       132065.3       132065.3       132065.3     
        36  -9.1224473     -9.1224473      2.9151945      2.9151945      2.9151945      24.774368      132065.3       132065.3       132065.3       132065.3     
Loop time of 0.000168625 on 8 procs for 1 steps with 2 atoms

Performance: 512.380 ns/day, 0.047 hours/ns, 5930.319 timesteps/s, 11.861 katom-step/s
0.0% CPU use with 8 MPI tasks x 1 OpenMP threads

MPI task timing breakdown:
Section |  min time  |  avg time  |  max time  |%varavg| %total
---------------------------------------------------------------
Pair    | 0.00012    | 0.00012263 | 0.000129   |   0.0 | 72.72
Neigh   | 0          | 0          | 0          |   0.0 |  0.00
Comm    | 1.4e-05    | 1.95e-05   | 3e-05      |   0.0 | 11.56
Output  | 1.3e-05    | 2.125e-05  | 2.8e-05    |   0.0 | 12.60
Modify  | 0          | 1.25e-07   | 1e-06      |   0.0 |  0.07
Other   |            | 5.125e-06  |            |       |  3.04

Nlocal:           0.25 ave           2 max           0 min
Histogram: 7 0 0 0 0 0 0 0 0 1
Nghost:         249.75 ave         250 max         248 min
Histogram: 1 0 0 0 0 0 0 0 0 7
Neighs:             14 ave         112 max           0 min
Histogram: 7 0 0 0 0 0 0 0 0 1
FullNghs:           28 ave         224 max           0 min
Histogram: 7 0 0 0 0 0 0 0 0 1

Total # of neighbors = 224
Ave neighs/atom = 112
Neighbor list builds = 0
Dangerous builds = 0
variable  natoms equal "count(all)"
variable xlength equal "lx"
variable  volume equal "vol"
variable  etotal equal "etotal"
variable    ecoh equal "pe/v_natoms"
print "${xlength}, ${volume}, ${etotal}, ${ecoh}" append lattice_cohesive_energy.txt screen no

next i
jump SELF loop

change_box all x scale 1.0025 y scale 1.0025 z scale 1.0025 remap
Changing box ...
  orthogonal box = (0.06875878 0.072402773 0.072402773) to (2.9912412 2.9875972 2.9875972)
  orthogonal box = (0.06875878 0.06875878 0.072402773) to (2.9912412 2.9912412 2.9875972)
  orthogonal box = (0.06875878 0.06875878 0.06875878) to (2.9912412 2.9912412 2.9912412)

run 1
WARNING: No fixes with time integration, atoms won't move (src/verlet.cpp:60)
WARNING: Proc sub-domain size < neighbor skin, could lead to lost atoms (src/domain.cpp:966)
Per MPI rank memory allocation (min/avg/max) = 8.573 | 8.573 | 8.575 Mbytes
   Step         PotEng         TotEng           Lx             Ly             Lz           Volume         Press           Pxx            Pyy            Pzz      
        36  -9.1370423     -9.1370423      2.9224824      2.9224824      2.9224824      24.960641      119079.98      119079.98      119079.98      119079.98    
        37  -9.1370423     -9.1370423      2.9224824      2.9224824      2.9224824      24.960641      119079.98      119079.98      119079.98      119079.98    
Loop time of 0.0001515 on 8 procs for 1 steps with 2 atoms

Performance: 570.297 ns/day, 0.042 hours/ns, 6600.660 timesteps/s, 13.201 katom-step/s
0.0% CPU use with 8 MPI tasks x 1 OpenMP threads

MPI task timing breakdown:
Section |  min time  |  avg time  |  max time  |%varavg| %total
---------------------------------------------------------------
Pair    | 0.000113   | 0.00011462 | 0.000117   |   0.0 | 75.66
Neigh   | 0          | 0          | 0          |   0.0 |  0.00
Comm    | 1.3e-05    | 1.6625e-05 | 2.1e-05    |   0.0 | 10.97
Output  | 1.1e-05    | 1.5875e-05 | 2e-05      |   0.0 | 10.48
Modify  | 0          | 0          | 0          |   0.0 |  0.00
Other   |            | 4.375e-06  |            |       |  2.89

Nlocal:           0.25 ave           2 max           0 min
Histogram: 7 0 0 0 0 0 0 0 0 1
Nghost:         249.75 ave         250 max         248 min
Histogram: 1 0 0 0 0 0 0 0 0 7
Neighs:             14 ave         112 max           0 min
Histogram: 7 0 0 0 0 0 0 0 0 1
FullNghs:           28 ave         224 max           0 min
Histogram: 7 0 0 0 0 0 0 0 0 1

Total # of neighbors = 224
Ave neighs/atom = 112
Neighbor list builds = 0
Dangerous builds = 0
variable  natoms equal "count(all)"
variable xlength equal "lx"
variable  volume equal "vol"
variable  etotal equal "etotal"
variable    ecoh equal "pe/v_natoms"
print "${xlength}, ${volume}, ${etotal}, ${ecoh}" append lattice_cohesive_energy.txt screen no

next i
jump SELF loop

change_box all x scale 1.0025 y scale 1.0025 z scale 1.0025 remap
Changing box ...
  orthogonal box = (0.065105677 0.06875878 0.06875878) to (2.9948943 2.9912412 2.9912412)
  orthogonal box = (0.065105677 0.065105677 0.06875878) to (2.9948943 2.9948943 2.9912412)
  orthogonal box = (0.065105677 0.065105677 0.065105677) to (2.9948943 2.9948943 2.9948943)

run 1
WARNING: No fixes with time integration, atoms won't move (src/verlet.cpp:60)
WARNING: Proc sub-domain size < neighbor skin, could lead to lost atoms (src/domain.cpp:966)
Per MPI rank memory allocation (min/avg/max) = 8.573 | 8.573 | 8.575 Mbytes
   Step         PotEng         TotEng           Lx             Ly             Lz           Volume         Press           Pxx            Pyy            Pzz      
        37  -9.1502466     -9.1502466      2.9297886      2.9297886      2.9297886      25.148314      106444.8       106444.8       106444.8       106444.8     
        38  -9.1502466     -9.1502466      2.9297886      2.9297886      2.9297886      25.148314      106444.8       106444.8       106444.8       106444.8     
Loop time of 0.000152875 on 8 procs for 1 steps with 2 atoms

Performance: 565.168 ns/day, 0.042 hours/ns, 6541.292 timesteps/s, 13.083 katom-step/s
0.0% CPU use with 8 MPI tasks x 1 OpenMP threads

MPI task timing breakdown:
Section |  min time  |  avg time  |  max time  |%varavg| %total
---------------------------------------------------------------
Pair    | 0.000113   | 0.000114   | 0.000117   |   0.0 | 74.57
Neigh   | 0          | 0          | 0          |   0.0 |  0.00
Comm    | 1.4e-05    | 1.8e-05    | 2.3e-05    |   0.0 | 11.77
Output  | 1.1e-05    | 1.6e-05    | 2e-05      |   0.0 | 10.47
Modify  | 0          | 2.5e-07    | 1e-06      |   0.0 |  0.16
Other   |            | 4.625e-06  |            |       |  3.03

Nlocal:           0.25 ave           2 max           0 min
Histogram: 7 0 0 0 0 0 0 0 0 1
Nghost:         249.75 ave         250 max         248 min
Histogram: 1 0 0 0 0 0 0 0 0 7
Neighs:             14 ave         112 max           0 min
Histogram: 7 0 0 0 0 0 0 0 0 1
FullNghs:           28 ave         224 max           0 min
Histogram: 7 0 0 0 0 0 0 0 0 1

Total # of neighbors = 224
Ave neighs/atom = 112
Neighbor list builds = 0
Dangerous builds = 0
variable  natoms equal "count(all)"
variable xlength equal "lx"
variable  volume equal "vol"
variable  etotal equal "etotal"
variable    ecoh equal "pe/v_natoms"
print "${xlength}, ${volume}, ${etotal}, ${ecoh}" append lattice_cohesive_energy.txt screen no

next i
jump SELF loop

change_box all x scale 1.0025 y scale 1.0025 z scale 1.0025 remap
Changing box ...
  orthogonal box = (0.061443441 0.065105677 0.065105677) to (2.9985566 2.9948943 2.9948943)
  orthogonal box = (0.061443441 0.061443441 0.065105677) to (2.9985566 2.9985566 2.9948943)
  orthogonal box = (0.061443441 0.061443441 0.061443441) to (2.9985566 2.9985566 2.9985566)

run 1
WARNING: No fixes with time integration, atoms won't move (src/verlet.cpp:60)
WARNING: Proc sub-domain size < neighbor skin, could lead to lost atoms (src/domain.cpp:966)
Per MPI rank memory allocation (min/avg/max) = 8.573 | 8.573 | 8.575 Mbytes
   Step         PotEng         TotEng           Lx             Ly             Lz           Volume         Press           Pxx            Pyy            Pzz      
        38  -9.1620793     -9.1620793      2.9371131      2.9371131      2.9371131      25.337398      94153.193      94153.193      94153.193      94153.193    
        39  -9.1620793     -9.1620793      2.9371131      2.9371131      2.9371131      25.337398      94153.193      94153.193      94153.193      94153.193    
Loop time of 0.00015275 on 8 procs for 1 steps with 2 atoms

Performance: 565.630 ns/day, 0.042 hours/ns, 6546.645 timesteps/s, 13.093 katom-step/s
0.0% CPU use with 8 MPI tasks x 1 OpenMP threads

MPI task timing breakdown:
Section |  min time  |  avg time  |  max time  |%varavg| %total
---------------------------------------------------------------
Pair    | 0.000111   | 0.00011288 | 0.000116   |   0.0 | 73.90
Neigh   | 0          | 0          | 0          |   0.0 |  0.00
Comm    | 1.3e-05    | 1.725e-05  | 2.2e-05    |   0.0 | 11.29
Output  | 1.1e-05    | 1.575e-05  | 2e-05      |   0.0 | 10.31
Modify  | 0          | 0          | 0          |   0.0 |  0.00
Other   |            | 6.875e-06  |            |       |  4.50

Nlocal:           0.25 ave           2 max           0 min
Histogram: 7 0 0 0 0 0 0 0 0 1
Nghost:         249.75 ave         250 max         248 min
Histogram: 1 0 0 0 0 0 0 0 0 7
Neighs:             14 ave         112 max           0 min
Histogram: 7 0 0 0 0 0 0 0 0 1
FullNghs:           28 ave         224 max           0 min
Histogram: 7 0 0 0 0 0 0 0 0 1

Total # of neighbors = 224
Ave neighs/atom = 112
Neighbor list builds = 0
Dangerous builds = 0
variable  natoms equal "count(all)"
variable xlength equal "lx"
variable  volume equal "vol"
variable  etotal equal "etotal"
variable    ecoh equal "pe/v_natoms"
print "${xlength}, ${volume}, ${etotal}, ${ecoh}" append lattice_cohesive_energy.txt screen no

next i
jump SELF loop

change_box all x scale 1.0025 y scale 1.0025 z scale 1.0025 remap
Changing box ...
  orthogonal box = (0.05777205 0.061443441 0.061443441) to (3.0022279 2.9985566 2.9985566)
  orthogonal box = (0.05777205 0.05777205 0.061443441) to (3.0022279 3.0022279 2.9985566)
  orthogonal box = (0.05777205 0.05777205 0.05777205) to (3.0022279 3.0022279 3.0022279)

run 1
WARNING: No fixes with time integration, atoms won't move (src/verlet.cpp:60)
WARNING: Proc sub-domain size < neighbor skin, could lead to lost atoms (src/domain.cpp:966)
Per MPI rank memory allocation (min/avg/max) = 8.573 | 8.573 | 8.575 Mbytes
   Step         PotEng         TotEng           Lx             Ly             Lz           Volume         Press           Pxx            Pyy            Pzz      
        39  -9.1725597     -9.1725597      2.9444559      2.9444559      2.9444559      25.527904      82198.649      82198.649      82198.649      82198.649    
        40  -9.1725597     -9.1725597      2.9444559      2.9444559      2.9444559      25.527904      82198.649      82198.649      82198.649      82198.649    
Loop time of 0.000152875 on 8 procs for 1 steps with 2 atoms

Performance: 565.168 ns/day, 0.042 hours/ns, 6541.292 timesteps/s, 13.083 katom-step/s
0.0% CPU use with 8 MPI tasks x 1 OpenMP threads

MPI task timing breakdown:
Section |  min time  |  avg time  |  max time  |%varavg| %total
---------------------------------------------------------------
Pair    | 0.000113   | 0.00011463 | 0.000117   |   0.0 | 74.98
Neigh   | 0          | 0          | 0          |   0.0 |  0.00
Comm    | 1.4e-05    | 1.7625e-05 | 2.2e-05    |   0.0 | 11.53
Output  | 1.1e-05    | 1.55e-05   | 1.9e-05    |   0.0 | 10.14
Modify  | 0          | 3.75e-07   | 1e-06      |   0.0 |  0.25
Other   |            | 4.75e-06   |            |       |  3.11

Nlocal:           0.25 ave           2 max           0 min
Histogram: 7 0 0 0 0 0 0 0 0 1
Nghost:         249.75 ave         250 max         248 min
Histogram: 1 0 0 0 0 0 0 0 0 7
Neighs:             14 ave         112 max           0 min
Histogram: 7 0 0 0 0 0 0 0 0 1
FullNghs:           28 ave         224 max           0 min
Histogram: 7 0 0 0 0 0 0 0 0 1

Total # of neighbors = 224
Ave neighs/atom = 112
Neighbor list builds = 0
Dangerous builds = 0
variable  natoms equal "count(all)"
variable xlength equal "lx"
variable  volume equal "vol"
variable  etotal equal "etotal"
variable    ecoh equal "pe/v_natoms"
print "${xlength}, ${volume}, ${etotal}, ${ecoh}" append lattice_cohesive_energy.txt screen no

next i
jump SELF loop

change_box all x scale 1.0025 y scale 1.0025 z scale 1.0025 remap
Changing box ...
  orthogonal box = (0.05409148 0.05777205 0.05777205) to (3.0059085 3.0022279 3.0022279)
  orthogonal box = (0.05409148 0.05409148 0.05777205) to (3.0059085 3.0059085 3.0022279)
  orthogonal box = (0.05409148 0.05409148 0.05409148) to (3.0059085 3.0059085 3.0059085)

run 1
WARNING: No fixes with time integration, atoms won't move (src/verlet.cpp:60)
WARNING: Proc sub-domain size < neighbor skin, could lead to lost atoms (src/domain.cpp:966)
Per MPI rank memory allocation (min/avg/max) = 8.573 | 8.573 | 8.575 Mbytes
   Step         PotEng         TotEng           Lx             Ly             Lz           Volume         Press           Pxx            Pyy            Pzz      
        40  -9.1817065     -9.1817065      2.951817       2.951817       2.951817       25.719843      70574.765      70574.765      70574.765      70574.765    
        41  -9.1817065     -9.1817065      2.951817       2.951817       2.951817       25.719843      70574.765      70574.765      70574.765      70574.765    
Loop time of 0.00021375 on 8 procs for 1 steps with 2 atoms

Performance: 404.211 ns/day, 0.059 hours/ns, 4678.363 timesteps/s, 9.357 katom-step/s
0.0% CPU use with 8 MPI tasks x 1 OpenMP threads

MPI task timing breakdown:
Section |  min time  |  avg time  |  max time  |%varavg| %total
---------------------------------------------------------------
Pair    | 0.000134   | 0.000149   | 0.000167   |   0.0 | 69.71
Neigh   | 0          | 0          | 0          |   0.0 |  0.00
Comm    | 1.3e-05    | 2.5625e-05 | 5.1e-05    |   0.0 | 11.99
Output  | 1.6e-05    | 2.975e-05  | 5.6e-05    |   0.0 | 13.92
Modify  | 0          | 1.25e-07   | 1e-06      |   0.0 |  0.06
Other   |            | 9.25e-06   |            |       |  4.33

Nlocal:           0.25 ave           2 max           0 min
Histogram: 7 0 0 0 0 0 0 0 0 1
Nghost:         249.75 ave         250 max         248 min
Histogram: 1 0 0 0 0 0 0 0 0 7
Neighs:             14 ave         112 max           0 min
Histogram: 7 0 0 0 0 0 0 0 0 1
FullNghs:           28 ave         224 max           0 min
Histogram: 7 0 0 0 0 0 0 0 0 1

Total # of neighbors = 224
Ave neighs/atom = 112
Neighbor list builds = 0
Dangerous builds = 0
variable  natoms equal "count(all)"
variable xlength equal "lx"
variable  volume equal "vol"
variable  etotal equal "etotal"
variable    ecoh equal "pe/v_natoms"
print "${xlength}, ${volume}, ${etotal}, ${ecoh}" append lattice_cohesive_energy.txt screen no

next i
jump SELF loop

change_box all x scale 1.0025 y scale 1.0025 z scale 1.0025 remap
Changing box ...
  orthogonal box = (0.050401709 0.05409148 0.05409148) to (3.0095983 3.0059085 3.0059085)
  orthogonal box = (0.050401709 0.050401709 0.05409148) to (3.0095983 3.0095983 3.0059085)
  orthogonal box = (0.050401709 0.050401709 0.050401709) to (3.0095983 3.0095983 3.0095983)

run 1
WARNING: No fixes with time integration, atoms won't move (src/verlet.cpp:60)
WARNING: Proc sub-domain size < neighbor skin, could lead to lost atoms (src/domain.cpp:966)
Per MPI rank memory allocation (min/avg/max) = 8.573 | 8.573 | 8.575 Mbytes
   Step         PotEng         TotEng           Lx             Ly             Lz           Volume         Press           Pxx            Pyy            Pzz      
        41  -9.1895388     -9.1895388      2.9591966      2.9591966      2.9591966      25.913224      59275.24       59275.24       59275.24       59275.24     
        42  -9.1895388     -9.1895388      2.9591966      2.9591966      2.9591966      25.913224      59275.24       59275.24       59275.24       59275.24     
Loop time of 0.000226375 on 8 procs for 1 steps with 2 atoms

Performance: 381.668 ns/day, 0.063 hours/ns, 4417.449 timesteps/s, 8.835 katom-step/s
862.8% CPU use with 8 MPI tasks x 1 OpenMP threads

MPI task timing breakdown:
Section |  min time  |  avg time  |  max time  |%varavg| %total
---------------------------------------------------------------
Pair    | 0.000141   | 0.0001575  | 0.000176   |   0.0 | 69.57
Neigh   | 0          | 0          | 0          |   0.0 |  0.00
Comm    | 1.4e-05    | 2.6625e-05 | 5.3e-05    |   0.0 | 11.76
Output  | 1.5e-05    | 3.025e-05  | 5.7e-05    |   0.0 | 13.36
Modify  | 0          | 1.25e-07   | 1e-06      |   0.0 |  0.06
Other   |            | 1.187e-05  |            |       |  5.25

Nlocal:           0.25 ave           2 max           0 min
Histogram: 7 0 0 0 0 0 0 0 0 1
Nghost:         249.75 ave         250 max         248 min
Histogram: 1 0 0 0 0 0 0 0 0 7
Neighs:             14 ave         112 max           0 min
Histogram: 7 0 0 0 0 0 0 0 0 1
FullNghs:           28 ave         224 max           0 min
Histogram: 7 0 0 0 0 0 0 0 0 1

Total # of neighbors = 224
Ave neighs/atom = 112
Neighbor list builds = 0
Dangerous builds = 0
variable  natoms equal "count(all)"
variable xlength equal "lx"
variable  volume equal "vol"
variable  etotal equal "etotal"
variable    ecoh equal "pe/v_natoms"
print "${xlength}, ${volume}, ${etotal}, ${ecoh}" append lattice_cohesive_energy.txt screen no

next i
jump SELF loop

change_box all x scale 1.0025 y scale 1.0025 z scale 1.0025 remap
Changing box ...
  orthogonal box = (0.046702713 0.050401709 0.050401709) to (3.0132973 3.0095983 3.0095983)
  orthogonal box = (0.046702713 0.046702713 0.050401709) to (3.0132973 3.0132973 3.0095983)
  orthogonal box = (0.046702713 0.046702713 0.046702713) to (3.0132973 3.0132973 3.0132973)

run 1
WARNING: No fixes with time integration, atoms won't move (src/verlet.cpp:60)
WARNING: Proc sub-domain size < neighbor skin, could lead to lost atoms (src/domain.cpp:966)
Per MPI rank memory allocation (min/avg/max) = 8.573 | 8.573 | 8.575 Mbytes
   Step         PotEng         TotEng           Lx             Ly             Lz           Volume         Press           Pxx            Pyy            Pzz      
        42  -9.1960754     -9.1960754      2.9665946      2.9665946      2.9665946      26.10806       48293.868      48293.868      48293.868      48293.868    
        43  -9.1960754     -9.1960754      2.9665946      2.9665946      2.9665946      26.10806       48293.868      48293.868      48293.868      48293.868    
Loop time of 0.000213875 on 8 procs for 1 steps with 2 atoms

Performance: 403.974 ns/day, 0.059 hours/ns, 4675.628 timesteps/s, 9.351 katom-step/s
0.0% CPU use with 8 MPI tasks x 1 OpenMP threads

MPI task timing breakdown:
Section |  min time  |  avg time  |  max time  |%varavg| %total
---------------------------------------------------------------
Pair    | 0.000136   | 0.000151   | 0.000168   |   0.0 | 70.60
Neigh   | 0          | 0          | 0          |   0.0 |  0.00
Comm    | 1.3e-05    | 2.575e-05  | 5.1e-05    |   0.0 | 12.04
Output  | 1.6e-05    | 2.9375e-05 | 5.5e-05    |   0.0 | 13.73
Modify  | 0          | 3.75e-07   | 1e-06      |   0.0 |  0.18
Other   |            | 7.375e-06  |            |       |  3.45

Nlocal:           0.25 ave           2 max           0 min
Histogram: 7 0 0 0 0 0 0 0 0 1
Nghost:         249.75 ave         250 max         248 min
Histogram: 1 0 0 0 0 0 0 0 0 7
Neighs:             14 ave         112 max           0 min
Histogram: 7 0 0 0 0 0 0 0 0 1
FullNghs:           28 ave         224 max           0 min
Histogram: 7 0 0 0 0 0 0 0 0 1

Total # of neighbors = 224
Ave neighs/atom = 112
Neighbor list builds = 0
Dangerous builds = 0
variable  natoms equal "count(all)"
variable xlength equal "lx"
variable  volume equal "vol"
variable  etotal equal "etotal"
variable    ecoh equal "pe/v_natoms"
print "${xlength}, ${volume}, ${etotal}, ${ecoh}" append lattice_cohesive_energy.txt screen no

next i
jump SELF loop

change_box all x scale 1.0025 y scale 1.0025 z scale 1.0025 remap
Changing box ...
  orthogonal box = (0.04299447 0.046702713 0.046702713) to (3.0170055 3.0132973 3.0132973)
  orthogonal box = (0.04299447 0.04299447 0.046702713) to (3.0170055 3.0170055 3.0132973)
  orthogonal box = (0.04299447 0.04299447 0.04299447) to (3.0170055 3.0170055 3.0170055)

run 1
WARNING: No fixes with time integration, atoms won't move (src/verlet.cpp:60)
WARNING: Proc sub-domain size < neighbor skin, could lead to lost atoms (src/domain.cpp:966)
Per MPI rank memory allocation (min/avg/max) = 8.573 | 8.573 | 8.575 Mbytes
   Step         PotEng         TotEng           Lx             Ly             Lz           Volume         Press           Pxx            Pyy            Pzz      
        43  -9.2013348     -9.2013348      2.9740111      2.9740111      2.9740111      26.30436       37624.587      37624.587      37624.587      37624.587    
        44  -9.2013348     -9.2013348      2.9740111      2.9740111      2.9740111      26.30436       37624.587      37624.587      37624.587      37624.587    
Loop time of 0.000219125 on 8 procs for 1 steps with 2 atoms

Performance: 394.295 ns/day, 0.061 hours/ns, 4563.605 timesteps/s, 9.127 katom-step/s
0.0% CPU use with 8 MPI tasks x 1 OpenMP threads

MPI task timing breakdown:
Section |  min time  |  avg time  |  max time  |%varavg| %total
---------------------------------------------------------------
Pair    | 0.000138   | 0.00015437 | 0.000172   |   0.0 | 70.45
Neigh   | 0          | 0          | 0          |   0.0 |  0.00
Comm    | 1.3e-05    | 2.7e-05    | 5.2e-05    |   0.0 | 12.32
Output  | 1.5e-05    | 2.9125e-05 | 5.7e-05    |   0.0 | 13.29
Modify  | 0          | 1.25e-07   | 1e-06      |   0.0 |  0.06
Other   |            | 8.5e-06    |            |       |  3.88

Nlocal:           0.25 ave           2 max           0 min
Histogram: 7 0 0 0 0 0 0 0 0 1
Nghost:         249.75 ave         250 max         248 min
Histogram: 1 0 0 0 0 0 0 0 0 7
Neighs:             14 ave         112 max           0 min
Histogram: 7 0 0 0 0 0 0 0 0 1
FullNghs:           28 ave         224 max           0 min
Histogram: 7 0 0 0 0 0 0 0 0 1

Total # of neighbors = 224
Ave neighs/atom = 112
Neighbor list builds = 0
Dangerous builds = 0
variable  natoms equal "count(all)"
variable xlength equal "lx"
variable  volume equal "vol"
variable  etotal equal "etotal"
variable    ecoh equal "pe/v_natoms"
print "${xlength}, ${volume}, ${etotal}, ${ecoh}" append lattice_cohesive_energy.txt screen no

next i
jump SELF loop

change_box all x scale 1.0025 y scale 1.0025 z scale 1.0025 remap
Changing box ...
  orthogonal box = (0.039276956 0.04299447 0.04299447) to (3.020723 3.0170055 3.0170055)
  orthogonal box = (0.039276956 0.039276956 0.04299447) to (3.020723 3.020723 3.0170055)
  orthogonal box = (0.039276956 0.039276956 0.039276956) to (3.020723 3.020723 3.020723)

run 1
WARNING: No fixes with time integration, atoms won't move (src/verlet.cpp:60)
WARNING: Proc sub-domain size < neighbor skin, could lead to lost atoms (src/domain.cpp:966)
Per MPI rank memory allocation (min/avg/max) = 8.573 | 8.573 | 8.575 Mbytes
   Step         PotEng         TotEng           Lx             Ly             Lz           Volume         Press           Pxx            Pyy            Pzz      
        44  -9.2053357     -9.2053357      2.9814461      2.9814461      2.9814461      26.502136      27261.37       27261.37       27261.37       27261.37     
        45  -9.2053357     -9.2053357      2.9814461      2.9814461      2.9814461      26.502136      27261.37       27261.37       27261.37       27261.37     
Loop time of 0.00031475 on 8 procs for 1 steps with 2 atoms

Performance: 274.504 ns/day, 0.087 hours/ns, 3177.125 timesteps/s, 6.354 katom-step/s
0.0% CPU use with 8 MPI tasks x 1 OpenMP threads

MPI task timing breakdown:
Section |  min time  |  avg time  |  max time  |%varavg| %total
---------------------------------------------------------------
Pair    | 0.000165   | 0.00020275 | 0.000269   |   0.0 | 64.42
Neigh   | 0          | 0          | 0          |   0.0 |  0.00
Comm    | 1.3e-05    | 4.275e-05  | 0.000111   |   0.0 | 13.58
Output  | 1.5e-05    | 6.0125e-05 | 0.000126   |   0.0 | 19.10
Modify  | 0          | 3.75e-07   | 2e-06      |   0.0 |  0.12
Other   |            | 8.75e-06   |            |       |  2.78

Nlocal:           0.25 ave           2 max           0 min
Histogram: 7 0 0 0 0 0 0 0 0 1
Nghost:         249.75 ave         250 max         248 min
Histogram: 1 0 0 0 0 0 0 0 0 7
Neighs:             14 ave         112 max           0 min
Histogram: 7 0 0 0 0 0 0 0 0 1
FullNghs:           28 ave         224 max           0 min
Histogram: 7 0 0 0 0 0 0 0 0 1

Total # of neighbors = 224
Ave neighs/atom = 112
Neighbor list builds = 0
Dangerous builds = 0
variable  natoms equal "count(all)"
variable xlength equal "lx"
variable  volume equal "vol"
variable  etotal equal "etotal"
variable    ecoh equal "pe/v_natoms"
print "${xlength}, ${volume}, ${etotal}, ${ecoh}" append lattice_cohesive_energy.txt screen no

next i
jump SELF loop

change_box all x scale 1.0025 y scale 1.0025 z scale 1.0025 remap
Changing box ...
  orthogonal box = (0.035550148 0.039276956 0.039276956) to (3.0244499 3.020723 3.020723)
  orthogonal box = (0.035550148 0.035550148 0.039276956) to (3.0244499 3.0244499 3.020723)
  orthogonal box = (0.035550148 0.035550148 0.035550148) to (3.0244499 3.0244499 3.0244499)

run 1
WARNING: No fixes with time integration, atoms won't move (src/verlet.cpp:60)
WARNING: Proc sub-domain size < neighbor skin, could lead to lost atoms (src/domain.cpp:966)
Per MPI rank memory allocation (min/avg/max) = 8.573 | 8.573 | 8.575 Mbytes
   Step         PotEng         TotEng           Lx             Ly             Lz           Volume         Press           Pxx            Pyy            Pzz      
        45  -9.2080966     -9.2080966      2.9888997      2.9888997      2.9888997      26.7014        17198.255      17198.255      17198.255      17198.255    
        46  -9.2080966     -9.2080966      2.9888997      2.9888997      2.9888997      26.7014        17198.255      17198.255      17198.255      17198.255    
Loop time of 0.00019675 on 8 procs for 1 steps with 2 atoms

Performance: 439.136 ns/day, 0.055 hours/ns, 5082.592 timesteps/s, 10.165 katom-step/s
0.0% CPU use with 8 MPI tasks x 1 OpenMP threads

MPI task timing breakdown:
Section |  min time  |  avg time  |  max time  |%varavg| %total
---------------------------------------------------------------
Pair    | 0.000123   | 0.00013075 | 0.000151   |   0.0 | 66.45
Neigh   | 0          | 0          | 0          |   0.0 |  0.00
Comm    | 1.3e-05    | 2.475e-05  | 4.7e-05    |   0.0 | 12.58
Output  | 1.4e-05    | 3.2375e-05 | 5e-05      |   0.0 | 16.45
Modify  | 0          | 2.5e-07    | 1e-06      |   0.0 |  0.13
Other   |            | 8.625e-06  |            |       |  4.38

Nlocal:           0.25 ave           2 max           0 min
Histogram: 7 0 0 0 0 0 0 0 0 1
Nghost:         249.75 ave         250 max         248 min
Histogram: 1 0 0 0 0 0 0 0 0 7
Neighs:             14 ave         112 max           0 min
Histogram: 7 0 0 0 0 0 0 0 0 1
FullNghs:           28 ave         224 max           0 min
Histogram: 7 0 0 0 0 0 0 0 0 1

Total # of neighbors = 224
Ave neighs/atom = 112
Neighbor list builds = 0
Dangerous builds = 0
variable  natoms equal "count(all)"
variable xlength equal "lx"
variable  volume equal "vol"
variable  etotal equal "etotal"
variable    ecoh equal "pe/v_natoms"
print "${xlength}, ${volume}, ${etotal}, ${ecoh}" append lattice_cohesive_energy.txt screen no

next i
jump SELF loop

change_box all x scale 1.0025 y scale 1.0025 z scale 1.0025 remap
Changing box ...
  orthogonal box = (0.031814024 0.035550148 0.035550148) to (3.028186 3.0244499 3.0244499)
  orthogonal box = (0.031814024 0.031814024 0.035550148) to (3.028186 3.028186 3.0244499)
  orthogonal box = (0.031814024 0.031814024 0.031814024) to (3.028186 3.028186 3.028186)

run 1
WARNING: No fixes with time integration, atoms won't move (src/verlet.cpp:60)
WARNING: Proc sub-domain size < neighbor skin, could lead to lost atoms (src/domain.cpp:966)
Per MPI rank memory allocation (min/avg/max) = 8.573 | 8.573 | 8.575 Mbytes
   Step         PotEng         TotEng           Lx             Ly             Lz           Volume         Press           Pxx            Pyy            Pzz      
        46  -9.2096358     -9.2096358      2.996372       2.996372       2.996372       26.902161      7429.3802      7429.3802      7429.3802      7429.3802    
        47  -9.2096358     -9.2096358      2.996372       2.996372       2.996372       26.902161      7429.3802      7429.3802      7429.3802      7429.3802    
Loop time of 0.0001935 on 8 procs for 1 steps with 2 atoms

Performance: 446.512 ns/day, 0.054 hours/ns, 5167.959 timesteps/s, 10.336 katom-step/s
0.0% CPU use with 8 MPI tasks x 1 OpenMP threads

MPI task timing breakdown:
Section |  min time  |  avg time  |  max time  |%varavg| %total
---------------------------------------------------------------
Pair    | 0.000121   | 0.00013    | 0.000149   |   0.0 | 67.18
Neigh   | 0          | 0          | 0          |   0.0 |  0.00
Comm    | 1.4e-05    | 2.4e-05    | 4.5e-05    |   0.0 | 12.40
Output  | 1.4e-05    | 3.075e-05  | 4.7e-05    |   0.0 | 15.89
Modify  | 0          | 1.25e-07   | 1e-06      |   0.0 |  0.06
Other   |            | 8.625e-06  |            |       |  4.46

Nlocal:           0.25 ave           2 max           0 min
Histogram: 7 0 0 0 0 0 0 0 0 1
Nghost:         249.75 ave         250 max         248 min
Histogram: 1 0 0 0 0 0 0 0 0 7
Neighs:             14 ave         112 max           0 min
Histogram: 7 0 0 0 0 0 0 0 0 1
FullNghs:           28 ave         224 max           0 min
Histogram: 7 0 0 0 0 0 0 0 0 1

Total # of neighbors = 224
Ave neighs/atom = 112
Neighbor list builds = 0
Dangerous builds = 0
variable  natoms equal "count(all)"
variable xlength equal "lx"
variable  volume equal "vol"
variable  etotal equal "etotal"
variable    ecoh equal "pe/v_natoms"
print "${xlength}, ${volume}, ${etotal}, ${ecoh}" append lattice_cohesive_energy.txt screen no

next i
jump SELF loop

change_box all x scale 1.0025 y scale 1.0025 z scale 1.0025 remap
Changing box ...
  orthogonal box = (0.028068559 0.031814024 0.031814024) to (3.0319314 3.028186 3.028186)
  orthogonal box = (0.028068559 0.028068559 0.031814024) to (3.0319314 3.0319314 3.028186)
  orthogonal box = (0.028068559 0.028068559 0.028068559) to (3.0319314 3.0319314 3.0319314)

run 1
WARNING: No fixes with time integration, atoms won't move (src/verlet.cpp:60)
WARNING: Proc sub-domain size < neighbor skin, could lead to lost atoms (src/domain.cpp:966)
Per MPI rank memory allocation (min/avg/max) = 8.573 | 8.573 | 8.575 Mbytes
   Step         PotEng         TotEng           Lx             Ly             Lz           Volume         Press           Pxx            Pyy            Pzz      
        47  -9.2099715     -9.2099715      3.0038629      3.0038629      3.0038629      27.104432     -2051.0246     -2051.0246     -2051.0246     -2051.0246    
        48  -9.2099715     -9.2099715      3.0038629      3.0038629      3.0038629      27.104432     -2051.0246     -2051.0246     -2051.0246     -2051.0246    
Loop time of 0.0001955 on 8 procs for 1 steps with 2 atoms

Performance: 441.944 ns/day, 0.054 hours/ns, 5115.090 timesteps/s, 10.230 katom-step/s
0.0% CPU use with 8 MPI tasks x 1 OpenMP threads

MPI task timing breakdown:
Section |  min time  |  avg time  |  max time  |%varavg| %total
---------------------------------------------------------------
Pair    | 0.000123   | 0.00013137 | 0.000152   |   0.0 | 67.20
Neigh   | 0          | 0          | 0          |   0.0 |  0.00
Comm    | 1.3e-05    | 2.4375e-05 | 4.6e-05    |   0.0 | 12.47
Output  | 1.4e-05    | 3.1375e-05 | 4.9e-05    |   0.0 | 16.05
Modify  | 0          | 2.5e-07    | 1e-06      |   0.0 |  0.13
Other   |            | 8.125e-06  |            |       |  4.16

Nlocal:           0.25 ave           2 max           0 min
Histogram: 7 0 0 0 0 0 0 0 0 1
Nghost:         249.75 ave         250 max         248 min
Histogram: 1 0 0 0 0 0 0 0 0 7
Neighs:             14 ave         112 max           0 min
Histogram: 7 0 0 0 0 0 0 0 0 1
FullNghs:           28 ave         224 max           0 min
Histogram: 7 0 0 0 0 0 0 0 0 1

Total # of neighbors = 224
Ave neighs/atom = 112
Neighbor list builds = 0
Dangerous builds = 0
variable  natoms equal "count(all)"
variable xlength equal "lx"
variable  volume equal "vol"
variable  etotal equal "etotal"
variable    ecoh equal "pe/v_natoms"
print "${xlength}, ${volume}, ${etotal}, ${ecoh}" append lattice_cohesive_energy.txt screen no

next i
jump SELF loop

change_box all x scale 1.0025 y scale 1.0025 z scale 1.0025 remap
Changing box ...
  orthogonal box = (0.02431373 0.028068559 0.028068559) to (3.0356863 3.0319314 3.0319314)
  orthogonal box = (0.02431373 0.02431373 0.028068559) to (3.0356863 3.0356863 3.0319314)
  orthogonal box = (0.02431373 0.02431373 0.02431373) to (3.0356863 3.0356863 3.0356863)

run 1
WARNING: No fixes with time integration, atoms won't move (src/verlet.cpp:60)
WARNING: Proc sub-domain size < neighbor skin, could lead to lost atoms (src/domain.cpp:966)
Per MPI rank memory allocation (min/avg/max) = 8.573 | 8.573 | 8.575 Mbytes
   Step         PotEng         TotEng           Lx             Ly             Lz           Volume         Press           Pxx            Pyy            Pzz      
        48  -9.209122      -9.209122       3.0113725      3.0113725      3.0113725      27.308224     -11248.626     -11248.626     -11248.626     -11248.626    
        49  -9.209122      -9.209122       3.0113725      3.0113725      3.0113725      27.308224     -11248.626     -11248.626     -11248.626     -11248.626    
Loop time of 0.000196125 on 8 procs for 1 steps with 2 atoms

Performance: 440.535 ns/day, 0.054 hours/ns, 5098.789 timesteps/s, 10.198 katom-step/s
0.0% CPU use with 8 MPI tasks x 1 OpenMP threads

MPI task timing breakdown:
Section |  min time  |  avg time  |  max time  |%varavg| %total
---------------------------------------------------------------
Pair    | 0.000123   | 0.00013075 | 0.00015    |   0.0 | 66.67
Neigh   | 0          | 0          | 0          |   0.0 |  0.00
Comm    | 1.3e-05    | 2.425e-05  | 4.6e-05    |   0.0 | 12.36
Output  | 1.4e-05    | 3.225e-05  | 5e-05      |   0.0 | 16.44
Modify  | 0          | 1.25e-07   | 1e-06      |   0.0 |  0.06
Other   |            | 8.75e-06   |            |       |  4.46

Nlocal:           0.25 ave           2 max           0 min
Histogram: 7 0 0 0 0 0 0 0 0 1
Nghost:         249.75 ave         250 max         248 min
Histogram: 1 0 0 0 0 0 0 0 0 7
Neighs:             14 ave         112 max           0 min
Histogram: 7 0 0 0 0 0 0 0 0 1
FullNghs:           28 ave         224 max           0 min
Histogram: 7 0 0 0 0 0 0 0 0 1

Total # of neighbors = 224
Ave neighs/atom = 112
Neighbor list builds = 0
Dangerous builds = 0
variable  natoms equal "count(all)"
variable xlength equal "lx"
variable  volume equal "vol"
variable  etotal equal "etotal"
variable    ecoh equal "pe/v_natoms"
print "${xlength}, ${volume}, ${etotal}, ${ecoh}" append lattice_cohesive_energy.txt screen no

next i
jump SELF loop

change_box all x scale 1.0025 y scale 1.0025 z scale 1.0025 remap
Changing box ...
  orthogonal box = (0.020549515 0.02431373 0.02431373) to (3.0394505 3.0356863 3.0356863)
  orthogonal box = (0.020549515 0.020549515 0.02431373) to (3.0394505 3.0394505 3.0356863)
  orthogonal box = (0.020549515 0.020549515 0.020549515) to (3.0394505 3.0394505 3.0394505)

run 1
WARNING: No fixes with time integration, atoms won't move (src/verlet.cpp:60)
WARNING: Proc sub-domain size < neighbor skin, could lead to lost atoms (src/domain.cpp:966)
Per MPI rank memory allocation (min/avg/max) = 8.573 | 8.573 | 8.575 Mbytes
   Step         PotEng         TotEng           Lx             Ly             Lz           Volume         Press           Pxx            Pyy            Pzz      
        49  -9.2071052     -9.2071052      3.018901       3.018901       3.018901       27.513548     -20168.969     -20168.969     -20168.969     -20168.969    
        50  -9.2071052     -9.2071052      3.018901       3.018901       3.018901       27.513548     -20168.969     -20168.969     -20168.969     -20168.969    
Loop time of 0.000194125 on 8 procs for 1 steps with 2 atoms

Performance: 445.074 ns/day, 0.054 hours/ns, 5151.320 timesteps/s, 10.303 katom-step/s
0.0% CPU use with 8 MPI tasks x 1 OpenMP threads

MPI task timing breakdown:
Section |  min time  |  avg time  |  max time  |%varavg| %total
---------------------------------------------------------------
Pair    | 0.000122   | 0.00013012 | 0.00015    |   0.0 | 67.03
Neigh   | 0          | 0          | 0          |   0.0 |  0.00
Comm    | 1.3e-05    | 2.425e-05  | 4.6e-05    |   0.0 | 12.49
Output  | 1.4e-05    | 3.15e-05   | 4.8e-05    |   0.0 | 16.23
Modify  | 0          | 1.25e-07   | 1e-06      |   0.0 |  0.06
Other   |            | 8.125e-06  |            |       |  4.19

Nlocal:           0.25 ave           2 max           0 min
Histogram: 7 0 0 0 0 0 0 0 0 1
Nghost:         249.75 ave         250 max         248 min
Histogram: 1 0 0 0 0 0 0 0 0 7
Neighs:             14 ave         112 max           0 min
Histogram: 7 0 0 0 0 0 0 0 0 1
FullNghs:           28 ave         224 max           0 min
Histogram: 7 0 0 0 0 0 0 0 0 1

Total # of neighbors = 224
Ave neighs/atom = 112
Neighbor list builds = 0
Dangerous builds = 0
variable  natoms equal "count(all)"
variable xlength equal "lx"
variable  volume equal "vol"
variable  etotal equal "etotal"
variable    ecoh equal "pe/v_natoms"
print "${xlength}, ${volume}, ${etotal}, ${ecoh}" append lattice_cohesive_energy.txt screen no

next i
jump SELF loop

change_box all x scale 1.0025 y scale 1.0025 z scale 1.0025 remap
Changing box ...
  orthogonal box = (0.016775888 0.020549515 0.020549515) to (3.0432241 3.0394505 3.0394505)
  orthogonal box = (0.016775888 0.016775888 0.020549515) to (3.0432241 3.0432241 3.0394505)
  orthogonal box = (0.016775888 0.016775888 0.016775888) to (3.0432241 3.0432241 3.0432241)

run 1
WARNING: No fixes with time integration, atoms won't move (src/verlet.cpp:60)
WARNING: Proc sub-domain size < neighbor skin, could lead to lost atoms (src/domain.cpp:966)
Per MPI rank memory allocation (min/avg/max) = 8.573 | 8.573 | 8.575 Mbytes
   Step         PotEng         TotEng           Lx             Ly             Lz           Volume         Press           Pxx            Pyy            Pzz      
        50  -9.2039391     -9.2039391      3.0264482      3.0264482      3.0264482      27.720416     -28817.576     -28817.576     -28817.576     -28817.576    
        51  -9.2039391     -9.2039391      3.0264482      3.0264482      3.0264482      27.720416     -28817.576     -28817.576     -28817.576     -28817.576    
Loop time of 0.00019625 on 8 procs for 1 steps with 2 atoms

Performance: 440.255 ns/day, 0.055 hours/ns, 5095.541 timesteps/s, 10.191 katom-step/s
0.0% CPU use with 8 MPI tasks x 1 OpenMP threads

MPI task timing breakdown:
[...]
Histogram: 7 0 0 0 0 0 0 0 0 1
FullNghs:           22 ave         176 max           0 min
Histogram: 7 0 0 0 0 0 0 0 0 1

Total # of neighbors = 176
Ave neighs/atom = 88
Neighbor list builds = 0
Dangerous builds = 0
variable  natoms equal "count(all)"
variable xlength equal "lx"
variable  volume equal "vol"
variable  etotal equal "etotal"
variable    ecoh equal "pe/v_natoms"
print "${xlength}, ${volume}, ${etotal}, ${ecoh}" append lattice_cohesive_energy.txt screen no

next i
jump SELF loop

change_box all x scale 1.0025 y scale 1.0025 z scale 1.0025 remap
Changing box ...
  orthogonal box = (-0.040973908 -0.037056268 -0.037056268) to (3.1009739 3.0970563 3.0970563)
  orthogonal box = (-0.040973908 -0.040973908 -0.037056268) to (3.1009739 3.1009739 3.0970563)
  orthogonal box = (-0.040973908 -0.040973908 -0.040973908) to (3.1009739 3.1009739 3.1009739)

run 1
WARNING: No fixes with time integration, atoms won't move (src/verlet.cpp:60)
WARNING: Proc sub-domain size < neighbor skin, could lead to lost atoms (src/domain.cpp:966)
Per MPI rank memory allocation (min/avg/max) = 8.573 | 8.573 | 8.575 Mbytes
   Step         PotEng         TotEng           Lx             Ly             Lz           Volume         Press           Pxx            Pyy            Pzz      
        65  -9.0303876     -9.0303876      3.1419478      3.1419478      3.1419478      31.016794     -129440.57     -129440.57     -129440.57     -129440.57    
        66  -9.0303876     -9.0303876      3.1419478      3.1419478      3.1419478      31.016794     -129440.57     -129440.57     -129440.57     -129440.57    
Loop time of 0.000228875 on 8 procs for 1 steps with 2 atoms

Performance: 377.499 ns/day, 0.064 hours/ns, 4369.197 timesteps/s, 8.738 katom-step/s
0.0% CPU use with 8 MPI tasks x 1 OpenMP threads

MPI task timing breakdown:
Section |  min time  |  avg time  |  max time  |%varavg| %total
---------------------------------------------------------------
Pair    | 0.000149   | 0.000162   | 0.000177   |   0.0 | 70.78
Neigh   | 0          | 0          | 0          |   0.0 |  0.00
Comm    | 1.5e-05    | 2.85e-05   | 5e-05      |   0.0 | 12.45
Output  | 1.6e-05    | 2.9125e-05 | 5.3e-05    |   0.0 | 12.73
Modify  | 0          | 1.25e-07   | 1e-06      |   0.0 |  0.05
Other   |            | 9.125e-06  |            |       |  3.99

Nlocal:           0.25 ave           2 max           0 min
Histogram: 7 0 0 0 0 0 0 0 0 1
Nghost:         249.75 ave         250 max         248 min
Histogram: 1 0 0 0 0 0 0 0 0 7
Neighs:             11 ave          88 max           0 min
Histogram: 7 0 0 0 0 0 0 0 0 1
FullNghs:           22 ave         176 max           0 min
Histogram: 7 0 0 0 0 0 0 0 0 1

Total # of neighbors = 176
Ave neighs/atom = 88
Neighbor list builds = 0
Dangerous builds = 0
variable  natoms equal "count(all)"
variable xlength equal "lx"
variable  volume equal "vol"
variable  etotal equal "etotal"
variable    ecoh equal "pe/v_natoms"
print "${xlength}, ${volume}, ${etotal}, ${ecoh}" append lattice_cohesive_energy.txt screen no

next i
jump SELF loop

change_box all x scale 1.0025 y scale 1.0025 z scale 1.0025 remap
Changing box ...
  orthogonal box = (-0.044901343 -0.040973908 -0.040973908) to (3.1049013 3.1009739 3.1009739)
  orthogonal box = (-0.044901343 -0.044901343 -0.040973908) to (3.1049013 3.1049013 3.1009739)
  orthogonal box = (-0.044901343 -0.044901343 -0.044901343) to (3.1049013 3.1049013 3.1049013)

run 1
WARNING: No fixes with time integration, atoms won't move (src/verlet.cpp:60)
WARNING: Proc sub-domain size < neighbor skin, could lead to lost atoms (src/domain.cpp:966)
Per MPI rank memory allocation (min/avg/max) = 8.573 | 8.573 | 8.575 Mbytes
   Step         PotEng         TotEng           Lx             Ly             Lz           Volume         Press           Pxx            Pyy            Pzz      
        66  -9.011181      -9.011181       3.1498027      3.1498027      3.1498027      31.250002     -134426.01     -134426.01     -134426.01     -134426.01    
        67  -9.011181      -9.011181       3.1498027      3.1498027      3.1498027      31.250002     -134426.01     -134426.01     -134426.01     -134426.01    
Loop time of 0.000231 on 8 procs for 1 steps with 2 atoms

Performance: 374.026 ns/day, 0.064 hours/ns, 4329.004 timesteps/s, 8.658 katom-step/s
0.0% CPU use with 8 MPI tasks x 1 OpenMP threads

MPI task timing breakdown:
Section |  min time  |  avg time  |  max time  |%varavg| %total
---------------------------------------------------------------
Pair    | 0.000151   | 0.0001635  | 0.000179   |   0.0 | 70.78
Neigh   | 0          | 0          | 0          |   0.0 |  0.00
Comm    | 1.5e-05    | 2.85e-05   | 5e-05      |   0.0 | 12.34
Output  | 1.6e-05    | 2.9125e-05 | 5.4e-05    |   0.0 | 12.61
Modify  | 0          | 0          | 0          |   0.0 |  0.00
Other   |            | 9.875e-06  |            |       |  4.27

Nlocal:           0.25 ave           2 max           0 min
Histogram: 7 0 0 0 0 0 0 0 0 1
Nghost:         249.75 ave         250 max         248 min
Histogram: 1 0 0 0 0 0 0 0 0 7
Neighs:             11 ave          88 max           0 min
Histogram: 7 0 0 0 0 0 0 0 0 1
FullNghs:           22 ave         176 max           0 min
Histogram: 7 0 0 0 0 0 0 0 0 1

Total # of neighbors = 176
Ave neighs/atom = 88
Neighbor list builds = 0
Dangerous builds = 0
variable  natoms equal "count(all)"
variable xlength equal "lx"
variable  volume equal "vol"
variable  etotal equal "etotal"
variable    ecoh equal "pe/v_natoms"
print "${xlength}, ${volume}, ${etotal}, ${ecoh}" append lattice_cohesive_energy.txt screen no

next i
jump SELF loop

change_box all x scale 1.0025 y scale 1.0025 z scale 1.0025 remap
Changing box ...
  orthogonal box = (-0.048838596 -0.044901343 -0.044901343) to (3.1088386 3.1049013 3.1049013)
  orthogonal box = (-0.048838596 -0.048838596 -0.044901343) to (3.1088386 3.1088386 3.1049013)
  orthogonal box = (-0.048838596 -0.048838596 -0.048838596) to (3.1088386 3.1088386 3.1088386)

run 1
WARNING: No fixes with time integration, atoms won't move (src/verlet.cpp:60)
WARNING: Proc sub-domain size < neighbor skin, could lead to lost atoms (src/domain.cpp:966)
Per MPI rank memory allocation (min/avg/max) = 8.573 | 8.573 | 8.575 Mbytes
   Step         PotEng         TotEng           Lx             Ly             Lz           Volume         Press           Pxx            Pyy            Pzz      
        67  -8.9911128     -8.9911128      3.1576772      3.1576772      3.1576772      31.484963     -139221.44     -139221.44     -139221.44     -139221.44    
        68  -8.9911128     -8.9911128      3.1576772      3.1576772      3.1576772      31.484963     -139221.44     -139221.44     -139221.44     -139221.44    
Loop time of 0.000278875 on 8 procs for 1 steps with 2 atoms

Performance: 309.816 ns/day, 0.077 hours/ns, 3585.836 timesteps/s, 7.172 katom-step/s
0.0% CPU use with 8 MPI tasks x 1 OpenMP threads

MPI task timing breakdown:
Section |  min time  |  avg time  |  max time  |%varavg| %total
---------------------------------------------------------------
Pair    | 0.000162   | 0.00019838 | 0.00023    |   0.0 | 71.13
Neigh   | 0          | 0          | 0          |   0.0 |  0.00
Comm    | 1.6e-05    | 3.2875e-05 | 6.3e-05    |   0.0 | 11.79
Output  | 1.6e-05    | 3.8375e-05 | 8.8e-05    |   0.0 | 13.76
Modify  | 0          | 1.25e-07   | 1e-06      |   0.0 |  0.04
Other   |            | 9.125e-06  |            |       |  3.27

Nlocal:           0.25 ave           2 max           0 min
Histogram: 7 0 0 0 0 0 0 0 0 1
Nghost:         249.75 ave         250 max         248 min
Histogram: 1 0 0 0 0 0 0 0 0 7
Neighs:             11 ave          88 max           0 min
Histogram: 7 0 0 0 0 0 0 0 0 1
FullNghs:           22 ave         176 max           0 min
Histogram: 7 0 0 0 0 0 0 0 0 1

Total # of neighbors = 176
Ave neighs/atom = 88
Neighbor list builds = 0
Dangerous builds = 0
variable  natoms equal "count(all)"
variable xlength equal "lx"
variable  volume equal "vol"
variable  etotal equal "etotal"
variable    ecoh equal "pe/v_natoms"
print "${xlength}, ${volume}, ${etotal}, ${ecoh}" append lattice_cohesive_energy.txt screen no

next i
jump SELF loop

change_box all x scale 1.0025 y scale 1.0025 z scale 1.0025 remap
Changing box ...
  orthogonal box = (-0.052785693 -0.048838596 -0.048838596) to (3.1127857 3.1088386 3.1088386)
  orthogonal box = (-0.052785693 -0.052785693 -0.048838596) to (3.1127857 3.1127857 3.1088386)
  orthogonal box = (-0.052785693 -0.052785693 -0.052785693) to (3.1127857 3.1127857 3.1127857)

run 1
WARNING: No fixes with time integration, atoms won't move (src/verlet.cpp:60)
WARNING: Proc sub-domain size < neighbor skin, could lead to lost atoms (src/domain.cpp:966)
Per MPI rank memory allocation (min/avg/max) = 8.573 | 8.573 | 8.575 Mbytes
   Step         PotEng         TotEng           Lx             Ly             Lz           Volume         Press           Pxx            Pyy            Pzz      
        68  -8.9701991     -8.9701991      3.1655714      3.1655714      3.1655714      31.721691     -143830.99     -143830.99     -143830.99     -143830.99    
        69  -8.9701991     -8.9701991      3.1655714      3.1655714      3.1655714      31.721691     -143830.99     -143830.99     -143830.99     -143830.99    
Loop time of 0.000232125 on 8 procs for 1 steps with 2 atoms

Performance: 372.213 ns/day, 0.064 hours/ns, 4308.024 timesteps/s, 8.616 katom-step/s
0.0% CPU use with 8 MPI tasks x 1 OpenMP threads

MPI task timing breakdown:
Section |  min time  |  avg time  |  max time  |%varavg| %total
---------------------------------------------------------------
Pair    | 0.000153   | 0.00016525 | 0.00018    |   0.0 | 71.19
Neigh   | 0          | 0          | 0          |   0.0 |  0.00
Comm    | 1.5e-05    | 2.8375e-05 | 4.9e-05    |   0.0 | 12.22
Output  | 1.6e-05    | 2.9125e-05 | 5.3e-05    |   0.0 | 12.55
Modify  | 0          | 1.25e-07   | 1e-06      |   0.0 |  0.05
Other   |            | 9.25e-06   |            |       |  3.98

Nlocal:           0.25 ave           2 max           0 min
Histogram: 7 0 0 0 0 0 0 0 0 1
Nghost:         249.75 ave         250 max         248 min
Histogram: 1 0 0 0 0 0 0 0 0 7
Neighs:             11 ave          88 max           0 min
Histogram: 7 0 0 0 0 0 0 0 0 1
FullNghs:           22 ave         176 max           0 min
Histogram: 7 0 0 0 0 0 0 0 0 1

Total # of neighbors = 176
Ave neighs/atom = 88
Neighbor list builds = 0
Dangerous builds = 0
variable  natoms equal "count(all)"
variable xlength equal "lx"
variable  volume equal "vol"
variable  etotal equal "etotal"
variable    ecoh equal "pe/v_natoms"
print "${xlength}, ${volume}, ${etotal}, ${ecoh}" append lattice_cohesive_energy.txt screen no

next i
jump SELF loop

change_box all x scale 1.0025 y scale 1.0025 z scale 1.0025 remap
Changing box ...
  orthogonal box = (-0.056742657 -0.052785693 -0.052785693) to (3.1167427 3.1127857 3.1127857)
  orthogonal box = (-0.056742657 -0.056742657 -0.052785693) to (3.1167427 3.1167427 3.1127857)
  orthogonal box = (-0.056742657 -0.056742657 -0.056742657) to (3.1167427 3.1167427 3.1167427)

run 1
WARNING: No fixes with time integration, atoms won't move (src/verlet.cpp:60)
WARNING: Proc sub-domain size < neighbor skin, could lead to lost atoms (src/domain.cpp:966)
Per MPI rank memory allocation (min/avg/max) = 8.573 | 8.573 | 8.575 Mbytes
   Step         PotEng         TotEng           Lx             Ly             Lz           Volume         Press           Pxx            Pyy            Pzz      
        69  -8.9484555     -8.9484555      3.1734853      3.1734853      3.1734853      31.960199     -148258.78     -148258.78     -148258.78     -148258.78    
        70  -8.9484555     -8.9484555      3.1734853      3.1734853      3.1734853      31.960199     -148258.78     -148258.78     -148258.78     -148258.78    
Loop time of 0.000228125 on 8 procs for 1 steps with 2 atoms

Performance: 378.740 ns/day, 0.063 hours/ns, 4383.562 timesteps/s, 8.767 katom-step/s
0.0% CPU use with 8 MPI tasks x 1 OpenMP threads

MPI task timing breakdown:
Section |  min time  |  avg time  |  max time  |%varavg| %total
---------------------------------------------------------------
Pair    | 0.00015    | 0.00016212 | 0.000177   |   0.0 | 71.07
Neigh   | 0          | 0          | 0          |   0.0 |  0.00
Comm    | 1.6e-05    | 2.8e-05    | 4.8e-05    |   0.0 | 12.27
Output  | 1.6e-05    | 2.8625e-05 | 5.2e-05    |   0.0 | 12.55
Modify  | 0          | 1.25e-07   | 1e-06      |   0.0 |  0.05
Other   |            | 9.25e-06   |            |       |  4.05

Nlocal:           0.25 ave           2 max           0 min
Histogram: 7 0 0 0 0 0 0 0 0 1
Nghost:         249.75 ave         250 max         248 min
Histogram: 1 0 0 0 0 0 0 0 0 7
Neighs:             11 ave          88 max           0 min
Histogram: 7 0 0 0 0 0 0 0 0 1
FullNghs:           22 ave         176 max           0 min
Histogram: 7 0 0 0 0 0 0 0 0 1

Total # of neighbors = 176
Ave neighs/atom = 88
Neighbor list builds = 0
Dangerous builds = 0
variable  natoms equal "count(all)"
variable xlength equal "lx"
variable  volume equal "vol"
variable  etotal equal "etotal"
variable    ecoh equal "pe/v_natoms"
print "${xlength}, ${volume}, ${etotal}, ${ecoh}" append lattice_cohesive_energy.txt screen no

next i
jump SELF loop

change_box all x scale 1.0025 y scale 1.0025 z scale 1.0025 remap
Changing box ...
  orthogonal box = (-0.060709514 -0.056742657 -0.056742657) to (3.1207095 3.1167427 3.1167427)
  orthogonal box = (-0.060709514 -0.060709514 -0.056742657) to (3.1207095 3.1207095 3.1167427)
  orthogonal box = (-0.060709514 -0.060709514 -0.060709514) to (3.1207095 3.1207095 3.1207095)

run 1
WARNING: No fixes with time integration, atoms won't move (src/verlet.cpp:60)
WARNING: Proc sub-domain size < neighbor skin, could lead to lost atoms (src/domain.cpp:966)
Per MPI rank memory allocation (min/avg/max) = 8.573 | 8.573 | 8.575 Mbytes
   Step         PotEng         TotEng           Lx             Ly             Lz           Volume         Press           Pxx            Pyy            Pzz      
        70  -8.9258977     -8.9258977      3.181419       3.181419       3.181419       32.200501     -152508.83     -152508.83     -152508.83     -152508.83    
        71  -8.9258977     -8.9258977      3.181419       3.181419       3.181419       32.200501     -152508.83     -152508.83     -152508.83     -152508.83    
Loop time of 0.000228875 on 8 procs for 1 steps with 2 atoms

Performance: 377.499 ns/day, 0.064 hours/ns, 4369.197 timesteps/s, 8.738 katom-step/s
0.0% CPU use with 8 MPI tasks x 1 OpenMP threads

MPI task timing breakdown:
Section |  min time  |  avg time  |  max time  |%varavg| %total
---------------------------------------------------------------
Pair    | 0.000149   | 0.00016187 | 0.000177   |   0.0 | 70.73
Neigh   | 0          | 0          | 0          |   0.0 |  0.00
Comm    | 1.5e-05    | 2.8e-05    | 4.9e-05    |   0.0 | 12.23
Output  | 1.6e-05    | 2.9125e-05 | 5.3e-05    |   0.0 | 12.73
Modify  | 0          | 2.5e-07    | 1e-06      |   0.0 |  0.11
Other   |            | 9.625e-06  |            |       |  4.21

Nlocal:           0.25 ave           2 max           0 min
Histogram: 7 0 0 0 0 0 0 0 0 1
Nghost:         249.75 ave         250 max         248 min
Histogram: 1 0 0 0 0 0 0 0 0 7
Neighs:             11 ave          88 max           0 min
Histogram: 7 0 0 0 0 0 0 0 0 1
FullNghs:           22 ave         176 max           0 min
Histogram: 7 0 0 0 0 0 0 0 0 1

Total # of neighbors = 176
Ave neighs/atom = 88
Neighbor list builds = 0
Dangerous builds = 0
variable  natoms equal "count(all)"
variable xlength equal "lx"
variable  volume equal "vol"
variable  etotal equal "etotal"
variable    ecoh equal "pe/v_natoms"
print "${xlength}, ${volume}, ${etotal}, ${ecoh}" append lattice_cohesive_energy.txt screen no

next i
jump SELF loop

change_box all x scale 1.0025 y scale 1.0025 z scale 1.0025 remap
Changing box ...
  orthogonal box = (-0.064686288 -0.060709514 -0.060709514) to (3.1246863 3.1207095 3.1207095)
  orthogonal box = (-0.064686288 -0.064686288 -0.060709514) to (3.1246863 3.1246863 3.1207095)
  orthogonal box = (-0.064686288 -0.064686288 -0.064686288) to (3.1246863 3.1246863 3.1246863)

run 1
Per MPI rank memory allocation (min/avg/max) = 8.573 | 8.573 | 8.575 Mbytes
   Step         PotEng         TotEng           Lx             Ly             Lz           Volume         Press           Pxx            Pyy            Pzz      
WARNING: Too many warnings: 102 vs 100. All future warnings will be suppressed (src/thermo.cpp:466)
        71  -8.9025412     -8.9025412      3.1893726      3.1893726      3.1893726      32.442609     -156585.11     -156585.11     -156585.11     -156585.11    
        72  -8.9025412     -8.9025412      3.1893726      3.1893726      3.1893726      32.442609     -156585.11     -156585.11     -156585.11     -156585.11    
Loop time of 0.000228 on 8 procs for 1 steps with 2 atoms

Performance: 378.947 ns/day, 0.063 hours/ns, 4385.965 timesteps/s, 8.772 katom-step/s
0.0% CPU use with 8 MPI tasks x 1 OpenMP threads

MPI task timing breakdown:
Section |  min time  |  avg time  |  max time  |%varavg| %total
---------------------------------------------------------------
Pair    | 0.000148   | 0.000161   | 0.000176   |   0.0 | 70.61
Neigh   | 0          | 0          | 0          |   0.0 |  0.00
Comm    | 1.5e-05    | 2.825e-05  | 5e-05      |   0.0 | 12.39
Output  | 1.6e-05    | 2.9375e-05 | 5.4e-05    |   0.0 | 12.88
Modify  | 0          | 0          | 0          |   0.0 |  0.00
Other   |            | 9.375e-06  |            |       |  4.11

Nlocal:           0.25 ave           2 max           0 min
Histogram: 7 0 0 0 0 0 0 0 0 1
Nghost:         249.75 ave         250 max         248 min
Histogram: 1 0 0 0 0 0 0 0 0 7
Neighs:             11 ave          88 max           0 min
Histogram: 7 0 0 0 0 0 0 0 0 1
FullNghs:           22 ave         176 max           0 min
Histogram: 7 0 0 0 0 0 0 0 0 1

Total # of neighbors = 176
Ave neighs/atom = 88
Neighbor list builds = 0
Dangerous builds = 0
variable  natoms equal "count(all)"
variable xlength equal "lx"
variable  volume equal "vol"
variable  etotal equal "etotal"
variable    ecoh equal "pe/v_natoms"
print "${xlength}, ${volume}, ${etotal}, ${ecoh}" append lattice_cohesive_energy.txt screen no

next i
jump SELF loop

print "-------------------------------------------------------------"
-------------------------------------------------------------
print "Show results of 1st step (Running Minimization)"
Show results of 1st step (Running Minimization)
print "The number of atoms = ${natoms};"
The number of atoms = 2;
print "The lattice constant, x (Angstoms) = ${x0};"
The lattice constant, x (Angstoms) = 3.18937257512848;
print "The lattice constant, y (Angstoms) = ${y0};"
The lattice constant, y (Angstoms) = 3.18937257512848;
print "The lattice constant, z (Angstoms) = ${z0};"
The lattice constant, z (Angstoms) = 3.18937257512848;
print "The volume (Angstoms^3) = ${v0};"
The volume (Angstoms^3) = 32.4426085523928;
print "The total energy (eV) = ${etot0};"
The total energy (eV) = -8.9025412264157;
print "The cohesive energy (eV/atom) = ${ecoh0};"
The cohesive energy (eV/atom) = -4.45127061320785;
print "-------------------------------------------------------------"
-------------------------------------------------------------
print "Simulations completed !"
Simulations completed !
Total wall time: 0:00:00
