LAMMPS (22 Dec 2022)
  using 1 OpenMP thread(s) per MPI task
Loaded 1 plugins from C:\Program Files\LAMMPS 64-bit 23Jun2022\plugins
Loaded 0 plugins from C:\Program Files\LAMMPS 64-bit 23Jun2022-MPI\plugins
Loaded 1 plugins from C:\Program Files\LAMMPS 64-bit 22Dec2022-MSMPI\plugins
Loaded 1 plugins from C:\Program Files\LAMMPS 64-bit 28Mar2023-MPI\plugins
#------------------------------------------------------------------------------------------
# LAMMPS 64-bit 22Dec2022-MSMPI
#------------------------------------------------------------------------------------------
clear
  using 1 OpenMP thread(s) per MPI task
Loaded 1 plugins from C:\Program Files\LAMMPS 64-bit 23Jun2022\plugins
Loaded 0 plugins from C:\Program Files\LAMMPS 64-bit 23Jun2022-MPI\plugins
Loaded 1 plugins from C:\Program Files\LAMMPS 64-bit 22Dec2022-MSMPI\plugins
Loaded 1 plugins from C:\Program Files\LAMMPS 64-bit 28Mar2023-MPI\plugins
#echo both
# ---------- Initializing Simulation ---------------------------------
units metal
dimension 3
boundary p p p
atom_style atomic
atom_modify map array

read_data ./../../TiCr.data
Reading data file ...
  orthogonal box = (0 0 0) to (3.02 3.02 3.02)
  2 by 2 by 2 MPI processor grid
  reading atoms ...
  2 atoms
  read_data CPU = 0.001 seconds

replicate 1 1 1
Replication is creating a 1x1x1 = 1 times larger system...
  orthogonal box = (0 0 0) to (3.02 3.02 3.02)
  2 by 2 by 2 MPI processor grid
  2 atoms
  replicate CPU = 0.000 seconds

# ---------- Defining the Interatomic Potential ---------------------
pair_style meam
pair_coeff * * ./../../library.meam Ti Cr N ./../../TiCrN.meam Ti Cr

# ---------- Running Minimization -------------------------------------
fix 1 all box/relax iso 0.0 vmax 0.001

thermo 10
thermo_style custom step pe etotal lx ly lz vol press pxx pyy pzz

min_style cg
minimize 1e-25 1e-25 5000 10000
Neighbor list info ...
  update: every = 1 steps, delay = 0 steps, check = yes
  max neighbors/atom: 2000, page size: 100000
  master list distance cutoff = 7
  ghost atom cutoff = 7
  binsize = 3.5, bins = 1 1 1
  2 neighbor lists, perpetual/occasional/extra = 2 0 0
  (1) pair meam, perpetual
      attributes: full, newton on
      pair build: full/bin/atomonly
      stencil: full/bin/3d
      bin: standard
  (2) pair meam, perpetual, half/full from (1)
      attributes: half, newton on
      pair build: halffull/newton
      stencil: none
      bin: none
WARNING: Proc sub-domain size < neighbor skin, could lead to lost atoms (src/domain.cpp:966)
Per MPI rank memory allocation (min/avg/max) = 9.67 | 9.67 | 9.67 Mbytes
   Step         PotEng         TotEng           Lx             Ly             Lz           Volume         Press           Pxx            Pyy            Pzz      
         0  -9.2068866     -9.2068866      3.02           3.02           3.02           27.543608     -21468.139     -21468.139     -21468.139     -21468.139    
        10  -9.2101785     -9.2101785      3.0022034      3.0022034      3.0022034      27.059536      6.5913576e-10  6.9535878e-10  3.6811904e-10  9.1392946e-10
        20  -9.2101785     -9.2101785      3.0022034      3.0022034      3.0022034      27.059536     -1.8734629e-10 -1.9679578e-10 -1.9926086e-10 -1.6598224e-10
        23  -9.2101785     -9.2101785      3.0022034      3.0022034      3.0022034      27.059536     -1.8741477e-10 -1.9679578e-10 -1.9946629e-10 -1.6598224e-10
Loop time of 0.011873 on 8 procs for 23 steps with 2 atoms

49.4% CPU use with 8 MPI tasks x 1 OpenMP threads

Minimization stats:
  Stopping criterion = energy tolerance
  Energy initial, next-to-last, final = 
     -9.20688662573813  -9.21017848200039  -9.21017848200039
  Force two-norm initial, final = 1.1072001 1.0604508e-14
  Force max component initial, final = 1.1072001 9.5521664e-15
  Final line search alpha, max atom move = 1 9.5521664e-15
  Iterations, force evaluations = 23 41

MPI task timing breakdown:
Section |  min time  |  avg time  |  max time  |%varavg| %total
---------------------------------------------------------------
Pair    | 0.006279   | 0.0067122  | 0.008049   |   0.8 | 56.53
Neigh   | 0          | 0          | 0          |   0.0 |  0.00
Comm    | 0.001017   | 0.002042   | 0.002975   |   1.9 | 17.20
Output  | 3.5e-05    | 3.6625e-05 | 4.2e-05    |   0.0 |  0.31
Modify  | 0          | 0          | 0          |   0.0 |  0.00
Other   |            | 0.003082   |            |       | 25.96

Nlocal:           0.25 ave           1 max           0 min
Histogram: 6 0 0 0 0 0 0 0 0 2
Nghost:         249.75 ave         250 max         249 min
Histogram: 2 0 0 0 0 0 0 0 0 6
Neighs:             14 ave          56 max           0 min
Histogram: 6 0 0 0 0 0 0 0 0 2
FullNghs:           28 ave         112 max           0 min
Histogram: 6 0 0 0 0 0 0 0 0 2

Total # of neighbors = 224
Ave neighs/atom = 112
Neighbor list builds = 0
Dangerous builds = 0

variable  natoms equal "count(all)"
variable      x0 equal "lx"
variable      y0 equal "ly"
variable      z0 equal "lz"
variable      v0 equal "vol"
variable   etot0 equal "etotal"
variable   ecoh0 equal "pe/v_natoms"

unfix 1
#write_data ./../step2_elastic/data.in

# ---------- For Equation of States -------------------------------------
change_box all x scale 0.94 y scale 0.94 z scale 0.94 remap
Changing box ...
  orthogonal box = (0.0989644 0.008898298 0.008898298) to (2.9210356 3.0111017 3.0111017)
  orthogonal box = (0.0989644 0.0989644 0.008898298) to (2.9210356 2.9210356 3.0111017)
  orthogonal box = (0.0989644 0.0989644 0.0989644) to (2.9210356 2.9210356 2.9210356)
run 1
WARNING: No fixes with time integration, atoms won't move (src/verlet.cpp:60)
WARNING: Proc sub-domain size < neighbor skin, could lead to lost atoms (src/domain.cpp:966)
Per MPI rank memory allocation (min/avg/max) = 8.573 | 8.573 | 8.575 Mbytes
   Step         PotEng         TotEng           Lx             Ly             Lz           Volume         Press           Pxx            Pyy            Pzz      
        23  -8.7974175     -8.7974175      2.8220712      2.8220712      2.8220712      22.475217      335916.92      335916.92      335916.92      335916.92    
        24  -8.7974175     -8.7974175      2.8220712      2.8220712      2.8220712      22.475217      335916.92      335916.92      335916.92      335916.92    
Loop time of 0.000231875 on 8 procs for 1 steps with 2 atoms

Performance: 372.615 ns/day, 0.064 hours/ns, 4312.668 timesteps/s, 8.625 katom-step/s
0.0% CPU use with 8 MPI tasks x 1 OpenMP threads

MPI task timing breakdown:
Section |  min time  |  avg time  |  max time  |%varavg| %total
---------------------------------------------------------------
Pair    | 0.000147   | 0.0001625  | 0.000185   |   0.0 | 70.08
Neigh   | 0          | 0          | 0          |   0.0 |  0.00
Comm    | 1.3e-05    | 2.7625e-05 | 5.8e-05    |   0.0 | 11.91
Output  | 1.5e-05    | 3.15e-05   | 6e-05      |   0.0 | 13.58
Modify  | 0          | 3.75e-07   | 1e-06      |   0.0 |  0.16
Other   |            | 9.875e-06  |            |       |  4.26

Nlocal:           0.25 ave           2 max           0 min
Histogram: 7 0 0 0 0 0 0 0 0 1
Nghost:         249.75 ave         250 max         248 min
Histogram: 1 0 0 0 0 0 0 0 0 7
Neighs:             17 ave         136 max           0 min
Histogram: 7 0 0 0 0 0 0 0 0 1
FullNghs:           34 ave         272 max           0 min
Histogram: 7 0 0 0 0 0 0 0 0 1

Total # of neighbors = 272
Ave neighs/atom = 136
Neighbor list builds = 0
Dangerous builds = 0
print "# Lattice constant (Angstroms), Volume (Angstrom), Total energy (eV), Cohesive energy (eV/atom)" file lattice_cohesive_energy.txt screen no


# Loop over lattice constants
variable i loop 49 # Number of steps
label loop

change_box all x scale 1.0025 y scale 1.0025 z scale 1.0025 remap
Changing box ...
  orthogonal box = (0.095436811 0.0989644 0.0989644) to (2.9245632 2.9210356 2.9210356)
  orthogonal box = (0.095436811 0.095436811 0.0989644) to (2.9245632 2.9245632 2.9210356)
  orthogonal box = (0.095436811 0.095436811 0.095436811) to (2.9245632 2.9245632 2.9245632)

run 1
WARNING: No fixes with time integration, atoms won't move (src/verlet.cpp:60)
WARNING: Proc sub-domain size < neighbor skin, could lead to lost atoms (src/domain.cpp:966)
Per MPI rank memory allocation (min/avg/max) = 8.573 | 8.573 | 8.575 Mbytes
   Step         PotEng         TotEng           Lx             Ly             Lz           Volume         Press           Pxx            Pyy            Pzz      
        24  -8.8318836     -8.8318836      2.8291264      2.8291264      2.8291264      22.644203      317736.02      317736.02      317736.02      317736.02    
        25  -8.8318836     -8.8318836      2.8291264      2.8291264      2.8291264      22.644203      317736.02      317736.02      317736.02      317736.02    
Loop time of 0.000165 on 8 procs for 1 steps with 2 atoms

Performance: 523.636 ns/day, 0.046 hours/ns, 6060.606 timesteps/s, 12.121 katom-step/s
0.0% CPU use with 8 MPI tasks x 1 OpenMP threads

MPI task timing breakdown:
Section |  min time  |  avg time  |  max time  |%varavg| %total
---------------------------------------------------------------
Pair    | 0.000121   | 0.000123   | 0.000131   |   0.0 | 74.55
Neigh   | 0          | 0          | 0          |   0.0 |  0.00
Comm    | 1.4e-05    | 1.975e-05  | 2.9e-05    |   0.0 | 11.97
Output  | 1.1e-05    | 1.8e-05    | 2.5e-05    |   0.0 | 10.91
Modify  | 0          | 2.5e-07    | 1e-06      |   0.0 |  0.15
Other   |            | 4e-06      |            |       |  2.42

Nlocal:           0.25 ave           2 max           0 min
Histogram: 7 0 0 0 0 0 0 0 0 1
Nghost:         249.75 ave         250 max         248 min
Histogram: 1 0 0 0 0 0 0 0 0 7
Neighs:             17 ave         136 max           0 min
Histogram: 7 0 0 0 0 0 0 0 0 1
FullNghs:           34 ave         272 max           0 min
Histogram: 7 0 0 0 0 0 0 0 0 1

Total # of neighbors = 272
Ave neighs/atom = 136
Neighbor list builds = 0
Dangerous builds = 0
variable  natoms equal "count(all)"
variable xlength equal "lx"
variable  volume equal "vol"
variable  etotal equal "etotal"
variable    ecoh equal "pe/v_natoms"
print "${xlength}, ${volume}, ${etotal}, ${ecoh}" append lattice_cohesive_energy.txt screen no

next i
jump SELF loop

change_box all x scale 1.0025 y scale 1.0025 z scale 1.0025 remap
Changing box ...
  orthogonal box = (0.091900403 0.095436811 0.095436811) to (2.9280996 2.9245632 2.9245632)
  orthogonal box = (0.091900403 0.091900403 0.095436811) to (2.9280996 2.9280996 2.9245632)
  orthogonal box = (0.091900403 0.091900403 0.091900403) to (2.9280996 2.9280996 2.9280996)

run 1
WARNING: No fixes with time integration, atoms won't move (src/verlet.cpp:60)
WARNING: Proc sub-domain size < neighbor skin, could lead to lost atoms (src/domain.cpp:966)
Per MPI rank memory allocation (min/avg/max) = 8.573 | 8.573 | 8.575 Mbytes
   Step         PotEng         TotEng           Lx             Ly             Lz           Volume         Press           Pxx            Pyy            Pzz      
        25  -8.8647006     -8.8647006      2.8361992      2.8361992      2.8361992      22.81446       299999.85      299999.85      299999.85      299999.85    
        26  -8.8647006     -8.8647006      2.8361992      2.8361992      2.8361992      22.81446       299999.85      299999.85      299999.85      299999.85    
Loop time of 0.00018 on 8 procs for 1 steps with 2 atoms

Performance: 480.000 ns/day, 0.050 hours/ns, 5555.556 timesteps/s, 11.111 katom-step/s
0.0% CPU use with 8 MPI tasks x 1 OpenMP threads

MPI task timing breakdown:
Section |  min time  |  avg time  |  max time  |%varavg| %total
---------------------------------------------------------------
Pair    | 0.00013    | 0.000133   | 0.000146   |   0.0 | 73.89
Neigh   | 0          | 0          | 0          |   0.0 |  0.00
Comm    | 1.3e-05    | 2.0625e-05 | 3.3e-05    |   0.0 | 11.46
Output  | 1.1e-05    | 2.1875e-05 | 3.2e-05    |   0.0 | 12.15
Modify  | 0          | 1.25e-07   | 1e-06      |   0.0 |  0.07
Other   |            | 4.375e-06  |            |       |  2.43

Nlocal:           0.25 ave           2 max           0 min
Histogram: 7 0 0 0 0 0 0 0 0 1
Nghost:         249.75 ave         250 max         248 min
Histogram: 1 0 0 0 0 0 0 0 0 7
Neighs:             17 ave         136 max           0 min
Histogram: 7 0 0 0 0 0 0 0 0 1
FullNghs:           34 ave         272 max           0 min
Histogram: 7 0 0 0 0 0 0 0 0 1

Total # of neighbors = 272
Ave neighs/atom = 136
Neighbor list builds = 0
Dangerous builds = 0
variable  natoms equal "count(all)"
variable xlength equal "lx"
variable  volume equal "vol"
variable  etotal equal "etotal"
variable    ecoh equal "pe/v_natoms"
print "${xlength}, ${volume}, ${etotal}, ${ecoh}" append lattice_cohesive_energy.txt screen no

next i
jump SELF loop

change_box all x scale 1.0025 y scale 1.0025 z scale 1.0025 remap
Changing box ...
  orthogonal box = (0.088355154 0.091900403 0.091900403) to (2.9316448 2.9280996 2.9280996)
  orthogonal box = (0.088355154 0.088355154 0.091900403) to (2.9316448 2.9316448 2.9280996)
  orthogonal box = (0.088355154 0.088355154 0.088355154) to (2.9316448 2.9316448 2.9316448)

run 1
WARNING: No fixes with time integration, atoms won't move (src/verlet.cpp:60)
WARNING: Proc sub-domain size < neighbor skin, could lead to lost atoms (src/domain.cpp:966)
Per MPI rank memory allocation (min/avg/max) = 8.573 | 8.573 | 8.575 Mbytes
   Step         PotEng         TotEng           Lx             Ly             Lz           Volume         Press           Pxx            Pyy            Pzz      
        26  -8.8958889     -8.8958889      2.8432897      2.8432897      2.8432897      22.985996      282700.49      282700.49      282700.49      282700.49    
        27  -8.8958889     -8.8958889      2.8432897      2.8432897      2.8432897      22.985996      282700.49      282700.49      282700.49      282700.49    
Loop time of 0.000206625 on 8 procs for 1 steps with 2 atoms

Performance: 418.149 ns/day, 0.057 hours/ns, 4839.685 timesteps/s, 9.679 katom-step/s
0.0% CPU use with 8 MPI tasks x 1 OpenMP threads

MPI task timing breakdown:
Section |  min time  |  avg time  |  max time  |%varavg| %total
---------------------------------------------------------------
Pair    | 0.000128   | 0.00014188 | 0.00017    |   0.0 | 68.66
Neigh   | 0          | 0          | 0          |   0.0 |  0.00
Comm    | 1.3e-05    | 2.8e-05    | 5.5e-05    |   0.0 | 13.55
Output  | 1.2e-05    | 3.325e-05  | 5.7e-05    |   0.0 | 16.09
Modify  | 0          | 0          | 0          |   0.0 |  0.00
Other   |            | 3.5e-06    |            |       |  1.69

Nlocal:           0.25 ave           2 max           0 min
Histogram: 7 0 0 0 0 0 0 0 0 1
Nghost:         249.75 ave         250 max         248 min
Histogram: 1 0 0 0 0 0 0 0 0 7
Neighs:             17 ave         136 max           0 min
Histogram: 7 0 0 0 0 0 0 0 0 1
FullNghs:           34 ave         272 max           0 min
Histogram: 7 0 0 0 0 0 0 0 0 1

Total # of neighbors = 272
Ave neighs/atom = 136
Neighbor list builds = 0
Dangerous builds = 0
variable  natoms equal "count(all)"
variable xlength equal "lx"
variable  volume equal "vol"
variable  etotal equal "etotal"
variable    ecoh equal "pe/v_natoms"
print "${xlength}, ${volume}, ${etotal}, ${ecoh}" append lattice_cohesive_energy.txt screen no

next i
jump SELF loop

change_box all x scale 1.0025 y scale 1.0025 z scale 1.0025 remap
Changing box ...
  orthogonal box = (0.084801042 0.088355154 0.088355154) to (2.935199 2.9316448 2.9316448)
  orthogonal box = (0.084801042 0.084801042 0.088355154) to (2.935199 2.935199 2.9316448)
  orthogonal box = (0.084801042 0.084801042 0.084801042) to (2.935199 2.935199 2.935199)

run 1
WARNING: No fixes with time integration, atoms won't move (src/verlet.cpp:60)
WARNING: Proc sub-domain size < neighbor skin, could lead to lost atoms (src/domain.cpp:966)
Per MPI rank memory allocation (min/avg/max) = 8.573 | 8.573 | 8.575 Mbytes
   Step         PotEng         TotEng           Lx             Ly             Lz           Volume         Press           Pxx            Pyy            Pzz      
        27  -8.9254688     -8.9254688      2.8503979      2.8503979      2.8503979      23.158823      265830.15      265830.15      265830.15      265830.15    
        28  -8.9254688     -8.9254688      2.8503979      2.8503979      2.8503979      23.158823      265830.15      265830.15      265830.15      265830.15    
Loop time of 0.000162 on 8 procs for 1 steps with 2 atoms

Performance: 533.333 ns/day, 0.045 hours/ns, 6172.840 timesteps/s, 12.346 katom-step/s
0.0% CPU use with 8 MPI tasks x 1 OpenMP threads

MPI task timing breakdown:
Section |  min time  |  avg time  |  max time  |%varavg| %total
---------------------------------------------------------------
Pair    | 0.00012    | 0.000122   | 0.00013    |   0.0 | 75.31
Neigh   | 0          | 0          | 0          |   0.0 |  0.00
Comm    | 1.3e-05    | 1.8375e-05 | 2.7e-05    |   0.0 | 11.34
Output  | 1e-05      | 1.75e-05   | 2.4e-05    |   0.0 | 10.80
Modify  | 0          | 1.25e-07   | 1e-06      |   0.0 |  0.08
Other   |            | 4e-06      |            |       |  2.47

Nlocal:           0.25 ave           2 max           0 min
Histogram: 7 0 0 0 0 0 0 0 0 1
Nghost:         249.75 ave         250 max         248 min
Histogram: 1 0 0 0 0 0 0 0 0 7
Neighs:             17 ave         136 max           0 min
Histogram: 7 0 0 0 0 0 0 0 0 1
FullNghs:           34 ave         272 max           0 min
Histogram: 7 0 0 0 0 0 0 0 0 1

Total # of neighbors = 272
Ave neighs/atom = 136
Neighbor list builds = 0
Dangerous builds = 0
variable  natoms equal "count(all)"
variable xlength equal "lx"
variable  volume equal "vol"
variable  etotal equal "etotal"
variable    ecoh equal "pe/v_natoms"
print "${xlength}, ${volume}, ${etotal}, ${ecoh}" append lattice_cohesive_energy.txt screen no

next i
jump SELF loop

change_box all x scale 1.0025 y scale 1.0025 z scale 1.0025 remap
Changing box ...
  orthogonal box = (0.081238045 0.084801042 0.084801042) to (2.938762 2.935199 2.935199)
  orthogonal box = (0.081238045 0.081238045 0.084801042) to (2.938762 2.938762 2.935199)
  orthogonal box = (0.081238045 0.081238045 0.081238045) to (2.938762 2.938762 2.938762)

run 1
WARNING: No fixes with time integration, atoms won't move (src/verlet.cpp:60)
WARNING: Proc sub-domain size < neighbor skin, could lead to lost atoms (src/domain.cpp:966)
Per MPI rank memory allocation (min/avg/max) = 8.573 | 8.573 | 8.575 Mbytes
   Step         PotEng         TotEng           Lx             Ly             Lz           Volume         Press           Pxx            Pyy            Pzz      
        28  -8.9534607     -8.9534607      2.8575239      2.8575239      2.8575239      23.332948      249381.12      249381.12      249381.12      249381.12    
        29  -8.9534607     -8.9534607      2.8575239      2.8575239      2.8575239      23.332948      249381.12      249381.12      249381.12      249381.12    
Loop time of 0.000166875 on 8 procs for 1 steps with 2 atoms

Performance: 517.753 ns/day, 0.046 hours/ns, 5992.509 timesteps/s, 11.985 katom-step/s
0.0% CPU use with 8 MPI tasks x 1 OpenMP threads

MPI task timing breakdown:
Section |  min time  |  avg time  |  max time  |%varavg| %total
---------------------------------------------------------------
Pair    | 0.000123   | 0.00012575 | 0.000133   |   0.0 | 75.36
Neigh   | 0          | 0          | 0          |   0.0 |  0.00
Comm    | 1.3e-05    | 1.8625e-05 | 2.6e-05    |   0.0 | 11.16
Output  | 1e-05      | 1.75e-05   | 2.4e-05    |   0.0 | 10.49
Modify  | 0          | 3.75e-07   | 1e-06      |   0.0 |  0.22
Other   |            | 4.625e-06  |            |       |  2.77

Nlocal:           0.25 ave           2 max           0 min
Histogram: 7 0 0 0 0 0 0 0 0 1
Nghost:         249.75 ave         250 max         248 min
Histogram: 1 0 0 0 0 0 0 0 0 7
Neighs:             17 ave         136 max           0 min
Histogram: 7 0 0 0 0 0 0 0 0 1
FullNghs:           34 ave         272 max           0 min
Histogram: 7 0 0 0 0 0 0 0 0 1

Total # of neighbors = 272
Ave neighs/atom = 136
Neighbor list builds = 0
Dangerous builds = 0
variable  natoms equal "count(all)"
variable xlength equal "lx"
variable  volume equal "vol"
variable  etotal equal "etotal"
variable    ecoh equal "pe/v_natoms"
print "${xlength}, ${volume}, ${etotal}, ${ecoh}" append lattice_cohesive_energy.txt screen no

next i
jump SELF loop

change_box all x scale 1.0025 y scale 1.0025 z scale 1.0025 remap
Changing box ...
  orthogonal box = (0.07766614 0.081238045 0.081238045) to (2.9423339 2.938762 2.938762)
  orthogonal box = (0.07766614 0.07766614 0.081238045) to (2.9423339 2.9423339 2.938762)
  orthogonal box = (0.07766614 0.07766614 0.07766614) to (2.9423339 2.9423339 2.9423339)

run 1
WARNING: No fixes with time integration, atoms won't move (src/verlet.cpp:60)
WARNING: Proc sub-domain size < neighbor skin, could lead to lost atoms (src/domain.cpp:966)
Per MPI rank memory allocation (min/avg/max) = 8.573 | 8.573 | 8.575 Mbytes
   Step         PotEng         TotEng           Lx             Ly             Lz           Volume         Press           Pxx            Pyy            Pzz      
        29  -8.9798847     -8.9798847      2.8646677      2.8646677      2.8646677      23.508383      233345.82      233345.82      233345.82      233345.82    
        30  -8.9798847     -8.9798847      2.8646677      2.8646677      2.8646677      23.508383      233345.82      233345.82      233345.82      233345.82    
Loop time of 0.000161 on 8 procs for 1 steps with 2 atoms

Performance: 536.646 ns/day, 0.045 hours/ns, 6211.180 timesteps/s, 12.422 katom-step/s
0.0% CPU use with 8 MPI tasks x 1 OpenMP threads

MPI task timing breakdown:
Section |  min time  |  avg time  |  max time  |%varavg| %total
---------------------------------------------------------------
Pair    | 0.000118   | 0.00012012 | 0.000127   |   0.0 | 74.61
Neigh   | 0          | 0          | 0          |   0.0 |  0.00
Comm    | 1.3e-05    | 1.85e-05   | 2.6e-05    |   0.0 | 11.49
Output  | 1.1e-05    | 1.825e-05  | 2.5e-05    |   0.0 | 11.34
Modify  | 0          | 1.25e-07   | 1e-06      |   0.0 |  0.08
Other   |            | 4e-06      |            |       |  2.48

Nlocal:           0.25 ave           2 max           0 min
Histogram: 7 0 0 0 0 0 0 0 0 1
Nghost:         249.75 ave         250 max         248 min
Histogram: 1 0 0 0 0 0 0 0 0 7
Neighs:             14 ave         112 max           0 min
Histogram: 7 0 0 0 0 0 0 0 0 1
FullNghs:           28 ave         224 max           0 min
Histogram: 7 0 0 0 0 0 0 0 0 1

Total # of neighbors = 224
Ave neighs/atom = 112
Neighbor list builds = 0
Dangerous builds = 0
variable  natoms equal "count(all)"
variable xlength equal "lx"
variable  volume equal "vol"
variable  etotal equal "etotal"
variable    ecoh equal "pe/v_natoms"
print "${xlength}, ${volume}, ${etotal}, ${ecoh}" append lattice_cohesive_energy.txt screen no

next i
jump SELF loop

change_box all x scale 1.0025 y scale 1.0025 z scale 1.0025 remap
Changing box ...
  orthogonal box = (0.074085305 0.07766614 0.07766614) to (2.9459147 2.9423339 2.9423339)
  orthogonal box = (0.074085305 0.074085305 0.07766614) to (2.9459147 2.9459147 2.9423339)
  orthogonal box = (0.074085305 0.074085305 0.074085305) to (2.9459147 2.9459147 2.9459147)

run 1
WARNING: No fixes with time integration, atoms won't move (src/verlet.cpp:60)
WARNING: Proc sub-domain size < neighbor skin, could lead to lost atoms (src/domain.cpp:966)
Per MPI rank memory allocation (min/avg/max) = 8.573 | 8.573 | 8.575 Mbytes
   Step         PotEng         TotEng           Lx             Ly             Lz           Volume         Press           Pxx            Pyy            Pzz      
        30  -9.0047608     -9.0047608      2.8718294      2.8718294      2.8718294      23.685137      217716.83      217716.83      217716.83      217716.83    
        31  -9.0047608     -9.0047608      2.8718294      2.8718294      2.8718294      23.685137      217716.83      217716.83      217716.83      217716.83    
Loop time of 0.00022175 on 8 procs for 1 steps with 2 atoms

Performance: 389.628 ns/day, 0.062 hours/ns, 4509.583 timesteps/s, 9.019 katom-step/s
0.0% CPU use with 8 MPI tasks x 1 OpenMP threads

MPI task timing breakdown:
Section |  min time  |  avg time  |  max time  |%varavg| %total
---------------------------------------------------------------
Pair    | 0.000139   | 0.00015388 | 0.00017    |   0.0 | 69.39
Neigh   | 0          | 0          | 0          |   0.0 |  0.00
Comm    | 1.6e-05    | 2.6125e-05 | 4.6e-05    |   0.0 | 11.78
Output  | 1.5e-05    | 3.25e-05   | 5.7e-05    |   0.0 | 14.66
Modify  | 0          | 3.75e-07   | 1e-06      |   0.0 |  0.17
Other   |            | 8.875e-06  |            |       |  4.00

Nlocal:           0.25 ave           2 max           0 min
Histogram: 7 0 0 0 0 0 0 0 0 1
Nghost:         249.75 ave         250 max         248 min
Histogram: 1 0 0 0 0 0 0 0 0 7
Neighs:             14 ave         112 max           0 min
Histogram: 7 0 0 0 0 0 0 0 0 1
FullNghs:           28 ave         224 max           0 min
Histogram: 7 0 0 0 0 0 0 0 0 1

Total # of neighbors = 224
Ave neighs/atom = 112
Neighbor list builds = 0
Dangerous builds = 0
variable  natoms equal "count(all)"
variable xlength equal "lx"
variable  volume equal "vol"
variable  etotal equal "etotal"
variable    ecoh equal "pe/v_natoms"
print "${xlength}, ${volume}, ${etotal}, ${ecoh}" append lattice_cohesive_energy.txt screen no

next i
jump SELF loop

change_box all x scale 1.0025 y scale 1.0025 z scale 1.0025 remap
Changing box ...
  orthogonal box = (0.070495518 0.074085305 0.074085305) to (2.9495045 2.9459147 2.9459147)
  orthogonal box = (0.070495518 0.070495518 0.074085305) to (2.9495045 2.9495045 2.9459147)
  orthogonal box = (0.070495518 0.070495518 0.070495518) to (2.9495045 2.9495045 2.9495045)

run 1
WARNING: No fixes with time integration, atoms won't move (src/verlet.cpp:60)
WARNING: Proc sub-domain size < neighbor skin, could lead to lost atoms (src/domain.cpp:966)
Per MPI rank memory allocation (min/avg/max) = 8.573 | 8.573 | 8.575 Mbytes
   Step         PotEng         TotEng           Lx             Ly             Lz           Volume         Press           Pxx            Pyy            Pzz      
        31  -9.028109      -9.028109       2.879009       2.879009       2.879009       23.86322       202486.78      202486.78      202486.78      202486.78    
        32  -9.028109      -9.028109       2.879009       2.879009       2.879009       23.86322       202486.78      202486.78      202486.78      202486.78    
Loop time of 0.00021675 on 8 procs for 1 steps with 2 atoms

Performance: 398.616 ns/day, 0.060 hours/ns, 4613.610 timesteps/s, 9.227 katom-step/s
0.0% CPU use with 8 MPI tasks x 1 OpenMP threads

MPI task timing breakdown:
Section |  min time  |  avg time  |  max time  |%varavg| %total
---------------------------------------------------------------
Pair    | 0.000137   | 0.0001515  | 0.000167   |   0.0 | 69.90
Neigh   | 0          | 0          | 0          |   0.0 |  0.00
Comm    | 1.4e-05    | 2.475e-05  | 4.6e-05    |   0.0 | 11.42
Output  | 1.5e-05    | 3.1625e-05 | 5.5e-05    |   0.0 | 14.59
Modify  | 0          | 2.5e-07    | 1e-06      |   0.0 |  0.12
Other   |            | 8.625e-06  |            |       |  3.98

Nlocal:           0.25 ave           2 max           0 min
Histogram: 7 0 0 0 0 0 0 0 0 1
Nghost:         249.75 ave         250 max         248 min
Histogram: 1 0 0 0 0 0 0 0 0 7
Neighs:             14 ave         112 max           0 min
Histogram: 7 0 0 0 0 0 0 0 0 1
FullNghs:           28 ave         224 max           0 min
Histogram: 7 0 0 0 0 0 0 0 0 1

Total # of neighbors = 224
Ave neighs/atom = 112
Neighbor list builds = 0
Dangerous builds = 0
variable  natoms equal "count(all)"
variable xlength equal "lx"
variable  volume equal "vol"
variable  etotal equal "etotal"
variable    ecoh equal "pe/v_natoms"
print "${xlength}, ${volume}, ${etotal}, ${ecoh}" append lattice_cohesive_energy.txt screen no

next i
jump SELF loop

change_box all x scale 1.0025 y scale 1.0025 z scale 1.0025 remap
Changing box ...
  orthogonal box = (0.066896757 0.070495518 0.070495518) to (2.9531032 2.9495045 2.9495045)
  orthogonal box = (0.066896757 0.066896757 0.070495518) to (2.9531032 2.9531032 2.9495045)
  orthogonal box = (0.066896757 0.066896757 0.066896757) to (2.9531032 2.9531032 2.9531032)

run 1
WARNING: No fixes with time integration, atoms won't move (src/verlet.cpp:60)
WARNING: Proc sub-domain size < neighbor skin, could lead to lost atoms (src/domain.cpp:966)
Per MPI rank memory allocation (min/avg/max) = 8.573 | 8.573 | 8.575 Mbytes
   Step         PotEng         TotEng           Lx             Ly             Lz           Volume         Press           Pxx            Pyy            Pzz      
        32  -9.0499493     -9.0499493      2.8862065      2.8862065      2.8862065      24.042642      187648.39      187648.39      187648.39      187648.39    
        33  -9.0499493     -9.0499493      2.8862065      2.8862065      2.8862065      24.042642      187648.39      187648.39      187648.39      187648.39    
Loop time of 0.00021775 on 8 procs for 1 steps with 2 atoms

Performance: 396.785 ns/day, 0.060 hours/ns, 4592.423 timesteps/s, 9.185 katom-step/s
0.0% CPU use with 8 MPI tasks x 1 OpenMP threads

MPI task timing breakdown:
Section |  min time  |  avg time  |  max time  |%varavg| %total
---------------------------------------------------------------
Pair    | 0.000137   | 0.0001515  | 0.000168   |   0.0 | 69.58
Neigh   | 0          | 0          | 0          |   0.0 |  0.00
Comm    | 1.4e-05    | 2.5625e-05 | 4.8e-05    |   0.0 | 11.77
Output  | 1.6e-05    | 3.275e-05  | 5.7e-05    |   0.0 | 15.04
Modify  | 0          | 0          | 0          |   0.0 |  0.00
Other   |            | 7.875e-06  |            |       |  3.62

Nlocal:           0.25 ave           2 max           0 min
Histogram: 7 0 0 0 0 0 0 0 0 1
Nghost:         249.75 ave         250 max         248 min
Histogram: 1 0 0 0 0 0 0 0 0 7
Neighs:             14 ave         112 max           0 min
Histogram: 7 0 0 0 0 0 0 0 0 1
FullNghs:           28 ave         224 max           0 min
Histogram: 7 0 0 0 0 0 0 0 0 1

Total # of neighbors = 224
Ave neighs/atom = 112
Neighbor list builds = 0
Dangerous builds = 0
variable  natoms equal "count(all)"
variable xlength equal "lx"
variable  volume equal "vol"
variable  etotal equal "etotal"
variable    ecoh equal "pe/v_natoms"
print "${xlength}, ${volume}, ${etotal}, ${ecoh}" append lattice_cohesive_energy.txt screen no

next i
jump SELF loop

change_box all x scale 1.0025 y scale 1.0025 z scale 1.0025 remap
Changing box ...
  orthogonal box = (0.063288999 0.066896757 0.066896757) to (2.956711 2.9531032 2.9531032)
  orthogonal box = (0.063288999 0.063288999 0.066896757) to (2.956711 2.956711 2.9531032)
  orthogonal box = (0.063288999 0.063288999 0.063288999) to (2.956711 2.956711 2.956711)

run 1
WARNING: No fixes with time integration, atoms won't move (src/verlet.cpp:60)
WARNING: Proc sub-domain size < neighbor skin, could lead to lost atoms (src/domain.cpp:966)
Per MPI rank memory allocation (min/avg/max) = 8.573 | 8.573 | 8.575 Mbytes
   Step         PotEng         TotEng           Lx             Ly             Lz           Volume         Press           Pxx            Pyy            Pzz      
        33  -9.0703013     -9.0703013      2.893422       2.893422       2.893422       24.223413      173194.48      173194.48      173194.48      173194.48    
        34  -9.0703013     -9.0703013      2.893422       2.893422       2.893422       24.223413      173194.48      173194.48      173194.48      173194.48    
Loop time of 0.000215625 on 8 procs for 1 steps with 2 atoms

Performance: 400.696 ns/day, 0.060 hours/ns, 4637.681 timesteps/s, 9.275 katom-step/s
0.0% CPU use with 8 MPI tasks x 1 OpenMP threads

MPI task timing breakdown:
Section |  min time  |  avg time  |  max time  |%varavg| %total
---------------------------------------------------------------
Pair    | 0.000138   | 0.00015125 | 0.000166   |   0.0 | 70.14
Neigh   | 0          | 0          | 0          |   0.0 |  0.00
Comm    | 1.4e-05    | 2.5e-05    | 4.4e-05    |   0.0 | 11.59
Output  | 1.6e-05    | 3.15e-05   | 5.4e-05    |   0.0 | 14.61
Modify  | 0          | 1.25e-07   | 1e-06      |   0.0 |  0.06
Other   |            | 7.75e-06   |            |       |  3.59

Nlocal:           0.25 ave           2 max           0 min
Histogram: 7 0 0 0 0 0 0 0 0 1
Nghost:         249.75 ave         250 max         248 min
Histogram: 1 0 0 0 0 0 0 0 0 7
Neighs:             14 ave         112 max           0 min
Histogram: 7 0 0 0 0 0 0 0 0 1
FullNghs:           28 ave         224 max           0 min
Histogram: 7 0 0 0 0 0 0 0 0 1

Total # of neighbors = 224
Ave neighs/atom = 112
Neighbor list builds = 0
Dangerous builds = 0
variable  natoms equal "count(all)"
variable xlength equal "lx"
variable  volume equal "vol"
variable  etotal equal "etotal"
variable    ecoh equal "pe/v_natoms"
print "${xlength}, ${volume}, ${etotal}, ${ecoh}" append lattice_cohesive_energy.txt screen no

next i
jump SELF loop

change_box all x scale 1.0025 y scale 1.0025 z scale 1.0025 remap
Changing box ...
  orthogonal box = (0.059672222 0.063288999 0.063288999) to (2.9603278 2.956711 2.956711)
  orthogonal box = (0.059672222 0.059672222 0.063288999) to (2.9603278 2.9603278 2.956711)
  orthogonal box = (0.059672222 0.059672222 0.059672222) to (2.9603278 2.9603278 2.9603278)

run 1
WARNING: No fixes with time integration, atoms won't move (src/verlet.cpp:60)
WARNING: Proc sub-domain size < neighbor skin, could lead to lost atoms (src/domain.cpp:966)
Per MPI rank memory allocation (min/avg/max) = 8.573 | 8.573 | 8.575 Mbytes
   Step         PotEng         TotEng           Lx             Ly             Lz           Volume         Press           Pxx            Pyy            Pzz      
        34  -9.0891849     -9.0891849      2.9006556      2.9006556      2.9006556      24.405543      159117.96      159117.96      159117.96      159117.96    
        35  -9.0891849     -9.0891849      2.9006556      2.9006556      2.9006556      24.405543      159117.96      159117.96      159117.96      159117.96    
Loop time of 0.000232875 on 8 procs for 1 steps with 2 atoms

Performance: 371.014 ns/day, 0.065 hours/ns, 4294.149 timesteps/s, 8.588 katom-step/s
0.0% CPU use with 8 MPI tasks x 1 OpenMP threads

MPI task timing breakdown:
Section |  min time  |  avg time  |  max time  |%varavg| %total
---------------------------------------------------------------
Pair    | 0.000153   | 0.000173   | 0.000188   |   0.0 | 74.29
Neigh   | 0          | 0          | 0          |   0.0 |  0.00
Comm    | 1.5e-05    | 2.5375e-05 | 5.3e-05    |   0.0 | 10.90
Output  | 1.6e-05    | 2.6125e-05 | 5.6e-05    |   0.0 | 11.22
Modify  | 0          | 1.25e-07   | 1e-06      |   0.0 |  0.05
Other   |            | 8.25e-06   |            |       |  3.54

Nlocal:           0.25 ave           2 max           0 min
Histogram: 7 0 0 0 0 0 0 0 0 1
Nghost:         249.75 ave         250 max         248 min
Histogram: 1 0 0 0 0 0 0 0 0 7
Neighs:             14 ave         112 max           0 min
Histogram: 7 0 0 0 0 0 0 0 0 1
FullNghs:           28 ave         224 max           0 min
Histogram: 7 0 0 0 0 0 0 0 0 1

Total # of neighbors = 224
Ave neighs/atom = 112
Neighbor list builds = 0
Dangerous builds = 0
variable  natoms equal "count(all)"
variable xlength equal "lx"
variable  volume equal "vol"
variable  etotal equal "etotal"
variable    ecoh equal "pe/v_natoms"
print "${xlength}, ${volume}, ${etotal}, ${ecoh}" append lattice_cohesive_energy.txt screen no

next i
jump SELF loop

change_box all x scale 1.0025 y scale 1.0025 z scale 1.0025 remap
Changing box ...
  orthogonal box = (0.056046402 0.059672222 0.059672222) to (2.9639536 2.9603278 2.9603278)
  orthogonal box = (0.056046402 0.056046402 0.059672222) to (2.9639536 2.9639536 2.9603278)
  orthogonal box = (0.056046402 0.056046402 0.056046402) to (2.9639536 2.9639536 2.9639536)

run 1
WARNING: No fixes with time integration, atoms won't move (src/verlet.cpp:60)
WARNING: Proc sub-domain size < neighbor skin, could lead to lost atoms (src/domain.cpp:966)
Per MPI rank memory allocation (min/avg/max) = 8.573 | 8.573 | 8.575 Mbytes
   Step         PotEng         TotEng           Lx             Ly             Lz           Volume         Press           Pxx            Pyy            Pzz      
        35  -9.1066195     -9.1066195      2.9079072      2.9079072      2.9079072      24.589043      145411.87      145411.87      145411.87      145411.87    
        36  -9.1066195     -9.1066195      2.9079072      2.9079072      2.9079072      24.589043      145411.87      145411.87      145411.87      145411.87    
Loop time of 0.000214375 on 8 procs for 1 steps with 2 atoms

Performance: 403.032 ns/day, 0.060 hours/ns, 4664.723 timesteps/s, 9.329 katom-step/s
0.0% CPU use with 8 MPI tasks x 1 OpenMP threads

MPI task timing breakdown:
Section |  min time  |  avg time  |  max time  |%varavg| %total
---------------------------------------------------------------
Pair    | 0.000136   | 0.00015    | 0.000165   |   0.0 | 69.97
Neigh   | 0          | 0          | 0          |   0.0 |  0.00
Comm    | 1.6e-05    | 2.4875e-05 | 4.7e-05    |   0.0 | 11.60
Output  | 1.6e-05    | 3.1e-05    | 5.3e-05    |   0.0 | 14.46
Modify  | 0          | 1.25e-07   | 1e-06      |   0.0 |  0.06
Other   |            | 8.375e-06  |            |       |  3.91

Nlocal:           0.25 ave           2 max           0 min
Histogram: 7 0 0 0 0 0 0 0 0 1
Nghost:         249.75 ave         250 max         248 min
Histogram: 1 0 0 0 0 0 0 0 0 7
Neighs:             14 ave         112 max           0 min
Histogram: 7 0 0 0 0 0 0 0 0 1
FullNghs:           28 ave         224 max           0 min
Histogram: 7 0 0 0 0 0 0 0 0 1

Total # of neighbors = 224
Ave neighs/atom = 112
Neighbor list builds = 0
Dangerous builds = 0
variable  natoms equal "count(all)"
variable xlength equal "lx"
variable  volume equal "vol"
variable  etotal equal "etotal"
variable    ecoh equal "pe/v_natoms"
print "${xlength}, ${volume}, ${etotal}, ${ecoh}" append lattice_cohesive_energy.txt screen no

next i
jump SELF loop

change_box all x scale 1.0025 y scale 1.0025 z scale 1.0025 remap
Changing box ...
  orthogonal box = (0.052411518 0.056046402 0.056046402) to (2.9675885 2.9639536 2.9639536)
  orthogonal box = (0.052411518 0.052411518 0.056046402) to (2.9675885 2.9675885 2.9639536)
  orthogonal box = (0.052411518 0.052411518 0.052411518) to (2.9675885 2.9675885 2.9675885)

run 1
WARNING: No fixes with time integration, atoms won't move (src/verlet.cpp:60)
WARNING: Proc sub-domain size < neighbor skin, could lead to lost atoms (src/domain.cpp:966)
Per MPI rank memory allocation (min/avg/max) = 8.573 | 8.573 | 8.575 Mbytes
   Step         PotEng         TotEng           Lx             Ly             Lz           Volume         Press           Pxx            Pyy            Pzz      
        36  -9.1226247     -9.1226247      2.915177       2.915177       2.915177       24.773922      132069.32      132069.32      132069.32      132069.32    
        37  -9.1226247     -9.1226247      2.915177       2.915177       2.915177       24.773922      132069.32      132069.32      132069.32      132069.32    
Loop time of 0.00021425 on 8 procs for 1 steps with 2 atoms

Performance: 403.267 ns/day, 0.060 hours/ns, 4667.445 timesteps/s, 9.335 katom-step/s
0.0% CPU use with 8 MPI tasks x 1 OpenMP threads

MPI task timing breakdown:
Section |  min time  |  avg time  |  max time  |%varavg| %total
---------------------------------------------------------------
Pair    | 0.000136   | 0.00014962 | 0.000164   |   0.0 | 69.84
Neigh   | 0          | 0          | 0          |   0.0 |  0.00
Comm    | 1.5e-05    | 2.5125e-05 | 4.6e-05    |   0.0 | 11.73
Output  | 1.5e-05    | 3.1125e-05 | 5.4e-05    |   0.0 | 14.53
Modify  | 0          | 2.5e-07    | 1e-06      |   0.0 |  0.12
Other   |            | 8.125e-06  |            |       |  3.79

Nlocal:           0.25 ave           2 max           0 min
Histogram: 7 0 0 0 0 0 0 0 0 1
Nghost:         249.75 ave         250 max         248 min
Histogram: 1 0 0 0 0 0 0 0 0 7
Neighs:             14 ave         112 max           0 min
Histogram: 7 0 0 0 0 0 0 0 0 1
FullNghs:           28 ave         224 max           0 min
Histogram: 7 0 0 0 0 0 0 0 0 1

Total # of neighbors = 224
Ave neighs/atom = 112
Neighbor list builds = 0
Dangerous builds = 0
variable  natoms equal "count(all)"
variable xlength equal "lx"
variable  volume equal "vol"
variable  etotal equal "etotal"
variable    ecoh equal "pe/v_natoms"
print "${xlength}, ${volume}, ${etotal}, ${ecoh}" append lattice_cohesive_energy.txt screen no

next i
jump SELF loop

change_box all x scale 1.0025 y scale 1.0025 z scale 1.0025 remap
Changing box ...
  orthogonal box = (0.048767547 0.052411518 0.052411518) to (2.9712325 2.9675885 2.9675885)
  orthogonal box = (0.048767547 0.048767547 0.052411518) to (2.9712325 2.9712325 2.9675885)
  orthogonal box = (0.048767547 0.048767547 0.048767547) to (2.9712325 2.9712325 2.9712325)

run 1
WARNING: No fixes with time integration, atoms won't move (src/verlet.cpp:60)
WARNING: Proc sub-domain size < neighbor skin, could lead to lost atoms (src/domain.cpp:966)
Per MPI rank memory allocation (min/avg/max) = 8.573 | 8.573 | 8.575 Mbytes
   Step         PotEng         TotEng           Lx             Ly             Lz           Volume         Press           Pxx            Pyy            Pzz      
        37  -9.1372199     -9.1372199      2.9224649      2.9224649      2.9224649      24.960192      119083.59      119083.59      119083.59      119083.59    
        38  -9.1372199     -9.1372199      2.9224649      2.9224649      2.9224649      24.960192      119083.59      119083.59      119083.59      119083.59    
Loop time of 0.00022175 on 8 procs for 1 steps with 2 atoms

Performance: 389.628 ns/day, 0.062 hours/ns, 4509.583 timesteps/s, 9.019 katom-step/s
0.0% CPU use with 8 MPI tasks x 1 OpenMP threads

MPI task timing breakdown:
Section |  min time  |  avg time  |  max time  |%varavg| %total
---------------------------------------------------------------
Pair    | 0.000136   | 0.00015112 | 0.000167   |   0.0 | 68.15
Neigh   | 0          | 0          | 0          |   0.0 |  0.00
Comm    | 1.3e-05    | 2.4625e-05 | 4.6e-05    |   0.0 | 11.10
Output  | 1.5e-05    | 3.1375e-05 | 5.6e-05    |   0.0 | 14.15
Modify  | 0          | 2.5e-07    | 2e-06      |   0.0 |  0.11
Other   |            | 1.438e-05  |            |       |  6.48

Nlocal:           0.25 ave           2 max           0 min
Histogram: 7 0 0 0 0 0 0 0 0 1
Nghost:         249.75 ave         250 max         248 min
Histogram: 1 0 0 0 0 0 0 0 0 7
Neighs:             14 ave         112 max           0 min
Histogram: 7 0 0 0 0 0 0 0 0 1
FullNghs:           28 ave         224 max           0 min
Histogram: 7 0 0 0 0 0 0 0 0 1

Total # of neighbors = 224
Ave neighs/atom = 112
Neighbor list builds = 0
Dangerous builds = 0
variable  natoms equal "count(all)"
variable xlength equal "lx"
variable  volume equal "vol"
variable  etotal equal "etotal"
variable    ecoh equal "pe/v_natoms"
print "${xlength}, ${volume}, ${etotal}, ${ecoh}" append lattice_cohesive_energy.txt screen no

next i
jump SELF loop

change_box all x scale 1.0025 y scale 1.0025 z scale 1.0025 remap
Changing box ...
  orthogonal box = (0.045114466 0.048767547 0.048767547) to (2.9748855 2.9712325 2.9712325)
  orthogonal box = (0.045114466 0.045114466 0.048767547) to (2.9748855 2.9748855 2.9712325)
  orthogonal box = (0.045114466 0.045114466 0.045114466) to (2.9748855 2.9748855 2.9748855)

run 1
WARNING: No fixes with time integration, atoms won't move (src/verlet.cpp:60)
WARNING: Proc sub-domain size < neighbor skin, could lead to lost atoms (src/domain.cpp:966)
Per MPI rank memory allocation (min/avg/max) = 8.573 | 8.573 | 8.575 Mbytes
   Step         PotEng         TotEng           Lx             Ly             Lz           Volume         Press           Pxx            Pyy            Pzz      
        38  -9.1504243     -9.1504243      2.9297711      2.9297711      2.9297711      25.147861      106448.02      106448.02      106448.02      106448.02    
        39  -9.1504243     -9.1504243      2.9297711      2.9297711      2.9297711      25.147861      106448.02      106448.02      106448.02      106448.02    
Loop time of 0.000213375 on 8 procs for 1 steps with 2 atoms

Performance: 404.921 ns/day, 0.059 hours/ns, 4686.585 timesteps/s, 9.373 katom-step/s
0.0% CPU use with 8 MPI tasks x 1 OpenMP threads

MPI task timing breakdown:
Section |  min time  |  avg time  |  max time  |%varavg| %total
---------------------------------------------------------------
Pair    | 0.000136   | 0.00015    | 0.000165   |   0.0 | 70.30
Neigh   | 0          | 0          | 0          |   0.0 |  0.00
Comm    | 1.5e-05    | 2.4625e-05 | 4.4e-05    |   0.0 | 11.54
Output  | 1.5e-05    | 3.0875e-05 | 5.2e-05    |   0.0 | 14.47
Modify  | 0          | 0          | 0          |   0.0 |  0.00
Other   |            | 7.875e-06  |            |       |  3.69

Nlocal:           0.25 ave           2 max           0 min
Histogram: 7 0 0 0 0 0 0 0 0 1
Nghost:         249.75 ave         250 max         248 min
Histogram: 1 0 0 0 0 0 0 0 0 7
Neighs:             14 ave         112 max           0 min
Histogram: 7 0 0 0 0 0 0 0 0 1
FullNghs:           28 ave         224 max           0 min
Histogram: 7 0 0 0 0 0 0 0 0 1

Total # of neighbors = 224
Ave neighs/atom = 112
Neighbor list builds = 0
Dangerous builds = 0
variable  natoms equal "count(all)"
variable xlength equal "lx"
variable  volume equal "vol"
variable  etotal equal "etotal"
variable    ecoh equal "pe/v_natoms"
print "${xlength}, ${volume}, ${etotal}, ${ecoh}" append lattice_cohesive_energy.txt screen no

next i
jump SELF loop

change_box all x scale 1.0025 y scale 1.0025 z scale 1.0025 remap
Changing box ...
  orthogonal box = (0.041452252 0.045114466 0.045114466) to (2.9785477 2.9748855 2.9748855)
  orthogonal box = (0.041452252 0.041452252 0.045114466) to (2.9785477 2.9785477 2.9748855)
  orthogonal box = (0.041452252 0.041452252 0.041452252) to (2.9785477 2.9785477 2.9785477)

run 1
WARNING: No fixes with time integration, atoms won't move (src/verlet.cpp:60)
WARNING: Proc sub-domain size < neighbor skin, could lead to lost atoms (src/domain.cpp:966)
Per MPI rank memory allocation (min/avg/max) = 8.573 | 8.573 | 8.575 Mbytes
   Step         PotEng         TotEng           Lx             Ly             Lz           Volume         Press           Pxx            Pyy            Pzz      
        39  -9.1622572     -9.1622572      2.9370955      2.9370955      2.9370955      25.336942      94156.037      94156.037      94156.037      94156.037    
        40  -9.1622572     -9.1622572      2.9370955      2.9370955      2.9370955      25.336942      94156.037      94156.037      94156.037      94156.037    
Loop time of 0.000215625 on 8 procs for 1 steps with 2 atoms

Performance: 400.696 ns/day, 0.060 hours/ns, 4637.681 timesteps/s, 9.275 katom-step/s
0.0% CPU use with 8 MPI tasks x 1 OpenMP threads

MPI task timing breakdown:
Section |  min time  |  avg time  |  max time  |%varavg| %total
---------------------------------------------------------------
Pair    | 0.000136   | 0.00014963 | 0.000165   |   0.0 | 69.39
Neigh   | 0          | 0          | 0          |   0.0 |  0.00
Comm    | 1.5e-05    | 2.475e-05  | 4.4e-05    |   0.0 | 11.48
Output  | 1.6e-05    | 3.125e-05  | 5.3e-05    |   0.0 | 14.49
Modify  | 0          | 1.25e-07   | 1e-06      |   0.0 |  0.06
Other   |            | 9.875e-06  |            |       |  4.58

Nlocal:           0.25 ave           2 max           0 min
Histogram: 7 0 0 0 0 0 0 0 0 1
Nghost:         249.75 ave         250 max         248 min
Histogram: 1 0 0 0 0 0 0 0 0 7
Neighs:             14 ave         112 max           0 min
Histogram: 7 0 0 0 0 0 0 0 0 1
FullNghs:           28 ave         224 max           0 min
Histogram: 7 0 0 0 0 0 0 0 0 1

Total # of neighbors = 224
Ave neighs/atom = 112
Neighbor list builds = 0
Dangerous builds = 0
variable  natoms equal "count(all)"
variable xlength equal "lx"
variable  volume equal "vol"
variable  etotal equal "etotal"
variable    ecoh equal "pe/v_natoms"
print "${xlength}, ${volume}, ${etotal}, ${ecoh}" append lattice_cohesive_energy.txt screen no

next i
jump SELF loop

change_box all x scale 1.0025 y scale 1.0025 z scale 1.0025 remap
Changing box ...
  orthogonal box = (0.037780883 0.041452252 0.041452252) to (2.9822191 2.9785477 2.9785477)
  orthogonal box = (0.037780883 0.037780883 0.041452252) to (2.9822191 2.9822191 2.9785477)
  orthogonal box = (0.037780883 0.037780883 0.037780883) to (2.9822191 2.9822191 2.9822191)

run 1
WARNING: No fixes with time integration, atoms won't move (src/verlet.cpp:60)
WARNING: Proc sub-domain size < neighbor skin, could lead to lost atoms (src/domain.cpp:966)
Per MPI rank memory allocation (min/avg/max) = 8.573 | 8.573 | 8.575 Mbytes
   Step         PotEng         TotEng           Lx             Ly             Lz           Volume         Press           Pxx            Pyy            Pzz      
        40  -9.1727377     -9.1727377      2.9444382      2.9444382      2.9444382      25.527445      82201.128      82201.128      82201.128      82201.128    
        41  -9.1727377     -9.1727377      2.9444382      2.9444382      2.9444382      25.527445      82201.128      82201.128      82201.128      82201.128    
Loop time of 0.000214875 on 8 procs for 1 steps with 2 atoms

Performance: 402.094 ns/day, 0.060 hours/ns, 4653.869 timesteps/s, 9.308 katom-step/s
0.0% CPU use with 8 MPI tasks x 1 OpenMP threads

MPI task timing breakdown:
Section |  min time  |  avg time  |  max time  |%varavg| %total
---------------------------------------------------------------
Pair    | 0.000136   | 0.00015012 | 0.000164   |   0.0 | 69.87
Neigh   | 0          | 0          | 0          |   0.0 |  0.00
Comm    | 1.4e-05    | 2.5e-05    | 3.9e-05    |   0.0 | 11.63
Output  | 1.5e-05    | 2.9375e-05 | 5.3e-05    |   0.0 | 13.67
Modify  | 0          | 1.25e-07   | 1e-06      |   0.0 |  0.06
Other   |            | 1.025e-05  |            |       |  4.77

Nlocal:           0.25 ave           2 max           0 min
Histogram: 7 0 0 0 0 0 0 0 0 1
Nghost:         249.75 ave         250 max         248 min
Histogram: 1 0 0 0 0 0 0 0 0 7
Neighs:             14 ave         112 max           0 min
Histogram: 7 0 0 0 0 0 0 0 0 1
FullNghs:           28 ave         224 max           0 min
Histogram: 7 0 0 0 0 0 0 0 0 1

Total # of neighbors = 224
Ave neighs/atom = 112
Neighbor list builds = 0
Dangerous builds = 0
variable  natoms equal "count(all)"
variable xlength equal "lx"
variable  volume equal "vol"
variable  etotal equal "etotal"
variable    ecoh equal "pe/v_natoms"
print "${xlength}, ${volume}, ${etotal}, ${ecoh}" append lattice_cohesive_energy.txt screen no

next i
jump SELF loop

change_box all x scale 1.0025 y scale 1.0025 z scale 1.0025 remap
Changing box ...
  orthogonal box = (0.034100335 0.037780883 0.037780883) to (2.9858997 2.9822191 2.9822191)
  orthogonal box = (0.034100335 0.034100335 0.037780883) to (2.9858997 2.9858997 2.9822191)
  orthogonal box = (0.034100335 0.034100335 0.034100335) to (2.9858997 2.9858997 2.9858997)

run 1
WARNING: No fixes with time integration, atoms won't move (src/verlet.cpp:60)
WARNING: Proc sub-domain size < neighbor skin, could lead to lost atoms (src/domain.cpp:966)
Per MPI rank memory allocation (min/avg/max) = 8.573 | 8.573 | 8.575 Mbytes
   Step         PotEng         TotEng           Lx             Ly             Lz           Volume         Press           Pxx            Pyy            Pzz      
        41  -9.1818847     -9.1818847      2.9517993      2.9517993      2.9517993      25.71938       70576.891      70576.891      70576.891      70576.891    
        42  -9.1818847     -9.1818847      2.9517993      2.9517993      2.9517993      25.71938       70576.891      70576.891      70576.891      70576.891    
Loop time of 0.00019425 on 8 procs for 1 steps with 2 atoms

Performance: 444.788 ns/day, 0.054 hours/ns, 5148.005 timesteps/s, 10.296 katom-step/s
0.0% CPU use with 8 MPI tasks x 1 OpenMP threads

MPI task timing breakdown:
Section |  min time  |  avg time  |  max time  |%varavg| %total
---------------------------------------------------------------
Pair    | 0.000123   | 0.00013137 | 0.00015    |   0.0 | 67.63
Neigh   | 0          | 0          | 0          |   0.0 |  0.00
Comm    | 1.3e-05    | 2.4875e-05 | 4.9e-05    |   0.0 | 12.81
Output  | 1.4e-05    | 3.0375e-05 | 4.9e-05    |   0.0 | 15.64
Modify  | 0          | 0          | 0          |   0.0 |  0.00
Other   |            | 7.625e-06  |            |       |  3.93

Nlocal:           0.25 ave           2 max           0 min
Histogram: 7 0 0 0 0 0 0 0 0 1
Nghost:         249.75 ave         250 max         248 min
Histogram: 1 0 0 0 0 0 0 0 0 7
Neighs:             14 ave         112 max           0 min
Histogram: 7 0 0 0 0 0 0 0 0 1
FullNghs:           28 ave         224 max           0 min
Histogram: 7 0 0 0 0 0 0 0 0 1

Total # of neighbors = 224
Ave neighs/atom = 112
Neighbor list builds = 0
Dangerous builds = 0
variable  natoms equal "count(all)"
variable xlength equal "lx"
variable  volume equal "vol"
variable  etotal equal "etotal"
variable    ecoh equal "pe/v_natoms"
print "${xlength}, ${volume}, ${etotal}, ${ecoh}" append lattice_cohesive_energy.txt screen no

next i
jump SELF loop

change_box all x scale 1.0025 y scale 1.0025 z scale 1.0025 remap
Changing box ...
  orthogonal box = (0.030410586 0.034100335 0.034100335) to (2.9895894 2.9858997 2.9858997)
  orthogonal box = (0.030410586 0.030410586 0.034100335) to (2.9895894 2.9895894 2.9858997)
  orthogonal box = (0.030410586 0.030410586 0.030410586) to (2.9895894 2.9895894 2.9895894)

run 1
WARNING: No fixes with time integration, atoms won't move (src/verlet.cpp:60)
WARNING: Proc sub-domain size < neighbor skin, could lead to lost atoms (src/domain.cpp:966)
Per MPI rank memory allocation (min/avg/max) = 8.573 | 8.573 | 8.575 Mbytes
   Step         PotEng         TotEng           Lx             Ly             Lz           Volume         Press           Pxx            Pyy            Pzz      
        42  -9.1897171     -9.1897171      2.9591788      2.9591788      2.9591788      25.912758      59277.02       59277.02       59277.02       59277.02     
        43  -9.1897171     -9.1897171      2.9591788      2.9591788      2.9591788      25.912758      59277.02       59277.02       59277.02       59277.02     
Loop time of 0.000195 on 8 procs for 1 steps with 2 atoms

Performance: 443.077 ns/day, 0.054 hours/ns, 5128.205 timesteps/s, 10.256 katom-step/s
0.0% CPU use with 8 MPI tasks x 1 OpenMP threads

MPI task timing breakdown:
Section |  min time  |  avg time  |  max time  |%varavg| %total
---------------------------------------------------------------
Pair    | 0.000123   | 0.00013088 | 0.00015    |   0.0 | 67.12
Neigh   | 0          | 0          | 0          |   0.0 |  0.00
Comm    | 1.3e-05    | 2.5125e-05 | 5e-05      |   0.0 | 12.88
Output  | 1.4e-05    | 3.1125e-05 | 5e-05      |   0.0 | 15.96
Modify  | 0          | 1.25e-07   | 1e-06      |   0.0 |  0.06
Other   |            | 7.75e-06   |            |       |  3.97

Nlocal:           0.25 ave           2 max           0 min
Histogram: 7 0 0 0 0 0 0 0 0 1
Nghost:         249.75 ave         250 max         248 min
Histogram: 1 0 0 0 0 0 0 0 0 7
Neighs:             14 ave         112 max           0 min
Histogram: 7 0 0 0 0 0 0 0 0 1
FullNghs:           28 ave         224 max           0 min
Histogram: 7 0 0 0 0 0 0 0 0 1

Total # of neighbors = 224
Ave neighs/atom = 112
Neighbor list builds = 0
Dangerous builds = 0
variable  natoms equal "count(all)"
variable xlength equal "lx"
variable  volume equal "vol"
variable  etotal equal "etotal"
variable    ecoh equal "pe/v_natoms"
print "${xlength}, ${volume}, ${etotal}, ${ecoh}" append lattice_cohesive_energy.txt screen no

next i
jump SELF loop

change_box all x scale 1.0025 y scale 1.0025 z scale 1.0025 remap
Changing box ...
  orthogonal box = (0.026711612 0.030410586 0.030410586) to (2.9932884 2.9895894 2.9895894)
  orthogonal box = (0.026711612 0.026711612 0.030410586) to (2.9932884 2.9932884 2.9895894)
  orthogonal box = (0.026711612 0.026711612 0.026711612) to (2.9932884 2.9932884 2.9932884)

run 1
WARNING: No fixes with time integration, atoms won't move (src/verlet.cpp:60)
WARNING: Proc sub-domain size < neighbor skin, could lead to lost atoms (src/domain.cpp:966)
Per MPI rank memory allocation (min/avg/max) = 8.573 | 8.573 | 8.575 Mbytes
   Step         PotEng         TotEng           Lx             Ly             Lz           Volume         Press           Pxx            Pyy            Pzz      
        43  -9.1962537     -9.1962537      2.9665768      2.9665768      2.9665768      26.10759       48295.312      48295.312      48295.312      48295.312    
        44  -9.1962537     -9.1962537      2.9665768      2.9665768      2.9665768      26.10759       48295.312      48295.312      48295.312      48295.312    
Loop time of 0.00019675 on 8 procs for 1 steps with 2 atoms

Performance: 439.136 ns/day, 0.055 hours/ns, 5082.592 timesteps/s, 10.165 katom-step/s
0.0% CPU use with 8 MPI tasks x 1 OpenMP threads

MPI task timing breakdown:
Section |  min time  |  avg time  |  max time  |%varavg| %total
---------------------------------------------------------------
Pair    | 0.000124   | 0.00013225 | 0.000152   |   0.0 | 67.22
Neigh   | 0          | 0          | 0          |   0.0 |  0.00
Comm    | 1.2e-05    | 2.425e-05  | 4.9e-05    |   0.0 | 12.33
Output  | 1.5e-05    | 3.175e-05  | 5e-05      |   0.0 | 16.14
Modify  | 0          | 2.5e-07    | 1e-06      |   0.0 |  0.13
Other   |            | 8.25e-06   |            |       |  4.19

Nlocal:           0.25 ave           2 max           0 min
Histogram: 7 0 0 0 0 0 0 0 0 1
Nghost:         249.75 ave         250 max         248 min
Histogram: 1 0 0 0 0 0 0 0 0 7
Neighs:             14 ave         112 max           0 min
Histogram: 7 0 0 0 0 0 0 0 0 1
FullNghs:           28 ave         224 max           0 min
Histogram: 7 0 0 0 0 0 0 0 0 1

Total # of neighbors = 224
Ave neighs/atom = 112
Neighbor list builds = 0
Dangerous builds = 0
variable  natoms equal "count(all)"
variable xlength equal "lx"
variable  volume equal "vol"
variable  etotal equal "etotal"
variable    ecoh equal "pe/v_natoms"
print "${xlength}, ${volume}, ${etotal}, ${ecoh}" append lattice_cohesive_energy.txt screen no

next i
jump SELF loop

change_box all x scale 1.0025 y scale 1.0025 z scale 1.0025 remap
Changing box ...
  orthogonal box = (0.023003391 0.026711612 0.026711612) to (2.9969966 2.9932884 2.9932884)
  orthogonal box = (0.023003391 0.023003391 0.026711612) to (2.9969966 2.9969966 2.9932884)
  orthogonal box = (0.023003391 0.023003391 0.023003391) to (2.9969966 2.9969966 2.9969966)

run 1
WARNING: No fixes with time integration, atoms won't move (src/verlet.cpp:60)
WARNING: Proc sub-domain size < neighbor skin, could lead to lost atoms (src/domain.cpp:966)
Per MPI rank memory allocation (min/avg/max) = 8.573 | 8.573 | 8.575 Mbytes
   Step         PotEng         TotEng           Lx             Ly             Lz           Volume         Press           Pxx            Pyy            Pzz      
        44  -9.2015132     -9.2015132      2.9739932      2.9739932      2.9739932      26.303886      37625.709      37625.709      37625.709      37625.709    
        45  -9.2015132     -9.2015132      2.9739932      2.9739932      2.9739932      26.303886      37625.709      37625.709      37625.709      37625.709    
Loop time of 0.000194875 on 8 procs for 1 steps with 2 atoms

Performance: 443.361 ns/day, 0.054 hours/ns, 5131.495 timesteps/s, 10.263 katom-step/s
0.0% CPU use with 8 MPI tasks x 1 OpenMP threads

MPI task timing breakdown:
Section |  min time  |  avg time  |  max time  |%varavg| %total
---------------------------------------------------------------
Pair    | 0.000122   | 0.00012987 | 0.00015    |   0.0 | 66.65
Neigh   | 0          | 0          | 0          |   0.0 |  0.00
Comm    | 1.3e-05    | 2.5e-05    | 4.9e-05    |   0.0 | 12.83
Output  | 1.5e-05    | 3.15e-05   | 5e-05      |   0.0 | 16.16
Modify  | 0          | 2.5e-07    | 1e-06      |   0.0 |  0.13
Other   |            | 8.25e-06   |            |       |  4.23

Nlocal:           0.25 ave           2 max           0 min
Histogram: 7 0 0 0 0 0 0 0 0 1
Nghost:         249.75 ave         250 max         248 min
Histogram: 1 0 0 0 0 0 0 0 0 7
Neighs:             14 ave         112 max           0 min
Histogram: 7 0 0 0 0 0 0 0 0 1
FullNghs:           28 ave         224 max           0 min
Histogram: 7 0 0 0 0 0 0 0 0 1

Total # of neighbors = 224
Ave neighs/atom = 112
Neighbor list builds = 0
Dangerous builds = 0
variable  natoms equal "count(all)"
variable xlength equal "lx"
variable  volume equal "vol"
variable  etotal equal "etotal"
variable    ecoh equal "pe/v_natoms"
print "${xlength}, ${volume}, ${etotal}, ${ecoh}" append lattice_cohesive_energy.txt screen no

next i
jump SELF loop

change_box all x scale 1.0025 y scale 1.0025 z scale 1.0025 remap
Changing box ...
  orthogonal box = (0.0192859 0.023003391 0.023003391) to (3.0007141 2.9969966 2.9969966)
  orthogonal box = (0.0192859 0.0192859 0.023003391) to (3.0007141 3.0007141 2.9969966)
  orthogonal box = (0.0192859 0.0192859 0.0192859) to (3.0007141 3.0007141 3.0007141)

run 1
WARNING: No fixes with time integration, atoms won't move (src/verlet.cpp:60)
WARNING: Proc sub-domain size < neighbor skin, could lead to lost atoms (src/domain.cpp:966)
Per MPI rank memory allocation (min/avg/max) = 8.573 | 8.573 | 8.575 Mbytes
   Step         PotEng         TotEng           Lx             Ly             Lz           Volume         Press           Pxx            Pyy            Pzz      
        45  -9.2055142     -9.2055142      2.9814282      2.9814282      2.9814282      26.501659      27262.181      27262.181      27262.181      27262.181    
        46  -9.2055142     -9.2055142      2.9814282      2.9814282      2.9814282      26.501659      27262.181      27262.181      27262.181      27262.181    
Loop time of 0.000199125 on 8 procs for 1 steps with 2 atoms

Performance: 433.898 ns/day, 0.055 hours/ns, 5021.971 timesteps/s, 10.044 katom-step/s
0.0% CPU use with 8 MPI tasks x 1 OpenMP threads

MPI task timing breakdown:
Section |  min time  |  avg time  |  max time  |%varavg| %total
---------------------------------------------------------------
Pair    | 0.000127   | 0.00013625 | 0.000155   |   0.0 | 68.42
Neigh   | 0          | 0          | 0          |   0.0 |  0.00
Comm    | 1.3e-05    | 2.4875e-05 | 4.9e-05    |   0.0 | 12.49
Output  | 1.4e-05    | 2.9625e-05 | 4.9e-05    |   0.0 | 14.88
Modify  | 0          | 1.25e-07   | 1e-06      |   0.0 |  0.06
Other   |            | 8.25e-06   |            |       |  4.14

Nlocal:           0.25 ave           2 max           0 min
Histogram: 7 0 0 0 0 0 0 0 0 1
Nghost:         249.75 ave         250 max         248 min
Histogram: 1 0 0 0 0 0 0 0 0 7
Neighs:             14 ave         112 max           0 min
Histogram: 7 0 0 0 0 0 0 0 0 1
FullNghs:           28 ave         224 max           0 min
Histogram: 7 0 0 0 0 0 0 0 0 1

Total # of neighbors = 224
Ave neighs/atom = 112
Neighbor list builds = 0
Dangerous builds = 0
variable  natoms equal "count(all)"
variable xlength equal "lx"
variable  volume equal "vol"
variable  etotal equal "etotal"
variable    ecoh equal "pe/v_natoms"
print "${xlength}, ${volume}, ${etotal}, ${ecoh}" append lattice_cohesive_energy.txt screen no

next i
jump SELF loop

change_box all x scale 1.0025 y scale 1.0025 z scale 1.0025 remap
Changing box ...
  orthogonal box = (0.015559114 0.0192859 0.0192859) to (3.0044409 3.0007141 3.0007141)
  orthogonal box = (0.015559114 0.015559114 0.0192859) to (3.0044409 3.0044409 3.0007141)
  orthogonal box = (0.015559114 0.015559114 0.015559114) to (3.0044409 3.0044409 3.0044409)

run 1
WARNING: No fixes with time integration, atoms won't move (src/verlet.cpp:60)
WARNING: Proc sub-domain size < neighbor skin, could lead to lost atoms (src/domain.cpp:966)
Per MPI rank memory allocation (min/avg/max) = 8.573 | 8.573 | 8.575 Mbytes
   Step         PotEng         TotEng           Lx             Ly             Lz           Volume         Press           Pxx            Pyy            Pzz      
        46  -9.2082751     -9.2082751      2.9888818      2.9888818      2.9888818      26.700919      17198.766      17198.766      17198.766      17198.766    
        47  -9.2082751     -9.2082751      2.9888818      2.9888818      2.9888818      26.700919      17198.766      17198.766      17198.766      17198.766    
Loop time of 0.00022175 on 8 procs for 1 steps with 2 atoms

Performance: 389.628 ns/day, 0.062 hours/ns, 4509.583 timesteps/s, 9.019 katom-step/s
0.0% CPU use with 8 MPI tasks x 1 OpenMP threads

MPI task timing breakdown:
Section |  min time  |  avg time  |  max time  |%varavg| %total
---------------------------------------------------------------
Pair    | 0.000139   | 0.00015425 | 0.000176   |   0.0 | 69.56
Neigh   | 0          | 0          | 0          |   0.0 |  0.00
Comm    | 1.2e-05    | 2.6625e-05 | 5.7e-05    |   0.0 | 12.01
Output  | 1.6e-05    | 3.15e-05   | 6e-05      |   0.0 | 14.21
Modify  | 0          | 3.75e-07   | 2e-06      |   0.0 |  0.17
Other   |            | 9e-06      |            |       |  4.06

Nlocal:           0.25 ave           2 max           0 min
Histogram: 7 0 0 0 0 0 0 0 0 1
Nghost:         249.75 ave         250 max         248 min
Histogram: 1 0 0 0 0 0 0 0 0 7
Neighs:             14 ave         112 max           0 min
Histogram: 7 0 0 0 0 0 0 0 0 1
FullNghs:           28 ave         224 max           0 min
Histogram: 7 0 0 0 0 0 0 0 0 1

Total # of neighbors = 224
Ave neighs/atom = 112
Neighbor list builds = 0
Dangerous builds = 0
variable  natoms equal "count(all)"
variable xlength equal "lx"
variable  volume equal "vol"
variable  etotal equal "etotal"
variable    ecoh equal "pe/v_natoms"
print "${xlength}, ${volume}, ${etotal}, ${ecoh}" append lattice_cohesive_energy.txt screen no

next i
jump SELF loop

change_box all x scale 1.0025 y scale 1.0025 z scale 1.0025 remap
Changing box ...
  orthogonal box = (0.011823012 0.015559114 0.015559114) to (3.008177 3.0044409 3.0044409)
  orthogonal box = (0.011823012 0.011823012 0.015559114) to (3.008177 3.008177 3.0044409)
  orthogonal box = (0.011823012 0.011823012 0.011823012) to (3.008177 3.008177 3.008177)

run 1
WARNING: No fixes with time integration, atoms won't move (src/verlet.cpp:60)
WARNING: Proc sub-domain size < neighbor skin, could lead to lost atoms (src/domain.cpp:966)
Per MPI rank memory allocation (min/avg/max) = 8.573 | 8.573 | 8.575 Mbytes
   Step         PotEng         TotEng           Lx             Ly             Lz           Volume         Press           Pxx            Pyy            Pzz      
        47  -9.2098143     -9.2098143      2.996354       2.996354       2.996354       26.901677      7429.6016      7429.6016      7429.6016      7429.6016    
        48  -9.2098143     -9.2098143      2.996354       2.996354       2.996354       26.901677      7429.6016      7429.6016      7429.6016      7429.6016    
Loop time of 0.00023175 on 8 procs for 1 steps with 2 atoms

Performance: 372.816 ns/day, 0.064 hours/ns, 4314.995 timesteps/s, 8.630 katom-step/s
842.8% CPU use with 8 MPI tasks x 1 OpenMP threads

MPI task timing breakdown:
Section |  min time  |  avg time  |  max time  |%varavg| %total
---------------------------------------------------------------
Pair    | 0.00014    | 0.0001595  | 0.000188   |   0.0 | 68.82
Neigh   | 0          | 0          | 0          |   0.0 |  0.00
Comm    | 1.2e-05    | 2.9375e-05 | 6.8e-05    |   0.0 | 12.68
Output  | 1.4e-05    | 3.4125e-05 | 7e-05      |   0.0 | 14.72
Modify  | 0          | 3.75e-07   | 1e-06      |   0.0 |  0.16
Other   |            | 8.375e-06  |            |       |  3.61

Nlocal:           0.25 ave           2 max           0 min
Histogram: 7 0 0 0 0 0 0 0 0 1
Nghost:         249.75 ave         250 max         248 min
Histogram: 1 0 0 0 0 0 0 0 0 7
Neighs:             14 ave         112 max           0 min
Histogram: 7 0 0 0 0 0 0 0 0 1
FullNghs:           28 ave         224 max           0 min
Histogram: 7 0 0 0 0 0 0 0 0 1

Total # of neighbors = 224
Ave neighs/atom = 112
Neighbor list builds = 0
Dangerous builds = 0
variable  natoms equal "count(all)"
variable xlength equal "lx"
variable  volume equal "vol"
variable  etotal equal "etotal"
variable    ecoh equal "pe/v_natoms"
print "${xlength}, ${volume}, ${etotal}, ${ecoh}" append lattice_cohesive_energy.txt screen no

next i
jump SELF loop

change_box all x scale 1.0025 y scale 1.0025 z scale 1.0025 remap
Changing box ...
  orthogonal box = (0.0080775696 0.011823012 0.011823012) to (3.0119224 3.008177 3.008177)
  orthogonal box = (0.0080775696 0.0080775696 0.011823012) to (3.0119224 3.0119224 3.008177)
  orthogonal box = (0.0080775696 0.0080775696 0.0080775696) to (3.0119224 3.0119224 3.0119224)

run 1
WARNING: No fixes with time integration, atoms won't move (src/verlet.cpp:60)
WARNING: Proc sub-domain size < neighbor skin, could lead to lost atoms (src/domain.cpp:966)
Per MPI rank memory allocation (min/avg/max) = 8.573 | 8.573 | 8.575 Mbytes
   Step         PotEng         TotEng           Lx             Ly             Lz           Volume         Press           Pxx            Pyy            Pzz      
        48  -9.21015       -9.21015        3.0038449      3.0038449      3.0038449      27.103944     -2051.0866     -2051.0866     -2051.0866     -2051.0866    
        49  -9.21015       -9.21015        3.0038449      3.0038449      3.0038449      27.103944     -2051.0866     -2051.0866     -2051.0866     -2051.0866    
Loop time of 0.000235625 on 8 procs for 1 steps with 2 atoms

Performance: 366.684 ns/day, 0.065 hours/ns, 4244.032 timesteps/s, 8.488 katom-step/s
0.0% CPU use with 8 MPI tasks x 1 OpenMP threads

MPI task timing breakdown:
Section |  min time  |  avg time  |  max time  |%varavg| %total
---------------------------------------------------------------
Pair    | 0.000149   | 0.00015862 | 0.000189   |   0.0 | 67.32
Neigh   | 0          | 0          | 0          |   0.0 |  0.00
Comm    | 1.3e-05    | 2.7125e-05 | 6e-05      |   0.0 | 11.51
Output  | 1.6e-05    | 3.9625e-05 | 6.2e-05    |   0.0 | 16.82
Modify  | 0          | 6.25e-07   | 2e-06      |   0.0 |  0.27
Other   |            | 9.625e-06  |            |       |  4.08

Nlocal:           0.25 ave           2 max           0 min
Histogram: 7 0 0 0 0 0 0 0 0 1
Nghost:         249.75 ave         250 max         248 min
Histogram: 1 0 0 0 0 0 0 0 0 7
Neighs:             14 ave         112 max           0 min
Histogram: 7 0 0 0 0 0 0 0 0 1
FullNghs:           28 ave         224 max           0 min
Histogram: 7 0 0 0 0 0 0 0 0 1

Total # of neighbors = 224
Ave neighs/atom = 112
Neighbor list builds = 0
Dangerous builds = 0
variable  natoms equal "count(all)"
variable xlength equal "lx"
variable  volume equal "vol"
variable  etotal equal "etotal"
variable    ecoh equal "pe/v_natoms"
print "${xlength}, ${volume}, ${etotal}, ${ecoh}" append lattice_cohesive_energy.txt screen no

next i
jump SELF loop

change_box all x scale 1.0025 y scale 1.0025 z scale 1.0025 remap
Changing box ...
  orthogonal box = (0.0043227635 0.0080775696 0.0080775696) to (3.0156772 3.0119224 3.0119224)
  orthogonal box = (0.0043227635 0.0043227635 0.0080775696) to (3.0156772 3.0156772 3.0119224)
  orthogonal box = (0.0043227635 0.0043227635 0.0043227635) to (3.0156772 3.0156772 3.0156772)

run 1
WARNING: No fixes with time integration, atoms won't move (src/verlet.cpp:60)
WARNING: Proc sub-domain size < neighbor skin, could lead to lost atoms (src/domain.cpp:966)
Per MPI rank memory allocation (min/avg/max) = 8.573 | 8.573 | 8.575 Mbytes
   Step         PotEng         TotEng           Lx             Ly             Lz           Volume         Press           Pxx            Pyy            Pzz      
        49  -9.2093005     -9.2093005      3.0113545      3.0113545      3.0113545      27.307733     -11248.963     -11248.963     -11248.963     -11248.963    
        50  -9.2093005     -9.2093005      3.0113545      3.0113545      3.0113545      27.307733     -11248.963     -11248.963     -11248.963     -11248.963    
Loop time of 0.000223 on 8 procs for 1 steps with 2 atoms

Performance: 387.444 ns/day, 0.062 hours/ns, 4484.305 timesteps/s, 8.969 katom-step/s
0.0% CPU use with 8 MPI tasks x 1 OpenMP threads

MPI task timing breakdown:
Section |  min time  |  avg time  |  max time  |%varavg| %total
---------------------------------------------------------------
Pair    | 0.000137   | 0.00014675 | 0.000177   |   0.0 | 65.81
Neigh   | 0          | 0          | 0          |   0.0 |  0.00
Comm    | 1.2e-05    | 2.65e-05   | 5.7e-05    |   0.0 | 11.88
Output  | 1.7e-05    | 3.9375e-05 | 6.2e-05    |   0.0 | 17.66
Modify  | 0          | 1.25e-07   | 1e-06      |   0.0 |  0.06
Other   |            | 1.025e-05  |            |       |  4.60

Nlocal:           0.25 ave           2 max           0 min
Histogram: 7 0 0 0 0 0 0 0 0 1
Nghost:         249.75 ave         250 max         248 min
Histogram: 1 0 0 0 0 0 0 0 0 7
Neighs:             14 ave         112 max           0 min
Histogram: 7 0 0 0 0 0 0 0 0 1
FullNghs:           28 ave         224 max           0 min
Histogram: 7 0 0 0 0 0 0 0 0 1

Total # of neighbors = 224
Ave neighs/atom = 112
Neighbor list builds = 0
Dangerous builds = 0
variable  natoms equal "count(all)"
variable xlength equal "lx"
variable  volume equal "vol"
variable  etotal equal "etotal"
variable    ecoh equal "pe/v_natoms"
print "${xlength}, ${volume}, ${etotal}, ${ecoh}" append lattice_cohesive_energy.txt screen no

next i
jump SELF loop

change_box all x scale 1.0025 y scale 1.0025 z scale 1.0025 remap
Changing box ...
  orthogonal box = (0.00055857045 0.0043227635 0.0043227635) to (3.0194414 3.0156772 3.0156772)
  orthogonal box = (0.00055857045 0.00055857045 0.0043227635) to (3.0194414 3.0194414 3.0156772)
  orthogonal box = (0.00055857045 0.00055857045 0.00055857045) to (3.0194414 3.0194414 3.0194414)

run 1
WARNING: No fixes with time integration, atoms won't move (src/verlet.cpp:60)
WARNING: Proc sub-domain size < neighbor skin, could lead to lost atoms (src/domain.cpp:966)
Per MPI rank memory allocation (min/avg/max) = 8.573 | 8.573 | 8.575 Mbytes
   Step         PotEng         TotEng           Lx             Ly             Lz           Volume         Press           Pxx            Pyy            Pzz      
        50  -9.2072837     -9.2072837      3.0188829      3.0188829      3.0188829      27.513053     -20169.57      -20169.57      -20169.57      -20169.57     
        51  -9.2072837     -9.2072837      3.0188829      3.0188829      3.0188829      27.513053     -20169.57      -20169.57      -20169.57      -20169.57     
Loop time of 0.000221 on 8 procs for 1 steps with 2 atoms

Performance: 390.950 ns/day, 0.061 hours/ns, 4524.887 timesteps/s, 9.050 katom-step/s
0.0% CPU use with 8 MPI tasks x 1 OpenMP threads

MPI task timing breakdown:
Section |  min time  |  avg time  |  max time  |%varavg| %total
---------------------------------------------------------------
Pair    | 0.000138   | 0.00015125 | 0.000173   |   0.0 | 68.44
Neigh   | 0          | 0          | 0          |   0.0 |  0.00
Comm    | 1.6e-05    | 2.9375e-05 | 5.3e-05    |   0.0 | 13.29
Output  | 1.5e-05    | 3.1375e-05 | 5.7e-05    |   0.0 | 14.20
Modify  | 0          | 2.5e-07    | 1e-06      |   0.0 |  0.11
Other   |            | 8.75e-06   |            |       |  3.96

Nlocal:           0.25 ave           2 max           0 min
Histogram: 7 0 0 0 0 0 0 0 0 1
Nghost:         249.75 ave         250 max         248 min
Histogram: 1 0 0 0 0 0 0 0 0 7
Neighs:             14 ave         112 max           0 min
Histogram: 7 0 0 0 0 0 0 0 0 1
FullNghs:           28 ave         224 max           0 min
Histogram: 7 0 0 0 0 0 0 0 0 1

Total # of neighbors = 224
Ave neighs/atom = 112
Neighbor list builds = 0
Dangerous builds = 0
variable  natoms equal "count(all)"
variable xlength equal "lx"
variable  volume equal "vol"
variable  etotal equal "etotal"
variable    ecoh equal "pe/v_natoms"
print "${xlength}, ${volume}, ${etotal}, ${ecoh}" append lattice_cohesive_energy.txt screen no

next i
jump SELF loop

change_box all x scale 1.0025 y scale 1.0025 z scale 1.0025 remap
Changing box ...
  orthogonal box = (-0.0032150331 0.00055857045 0.00055857045) to (3.023215 3.0194414 3.0194414)
  orthogonal box = (-0.0032150331 -0.0032150331 0.00055857045) to (3.023215 3.023215 3.0194414)
  orthogonal box = (-0.0032150331 -0.0032150331 -0.0032150331) to (3.023215 3.023215 3.023215)

run 1
WARNING: No fixes with time integration, atoms won't move (src/verlet.cpp:60)
WARNING: Proc sub-domain size < neighbor skin, could lead to lost atoms (src/domain.cpp:966)
Per MPI rank memory allocation (min/avg/max) = 8.573 | 8.573 | 8.575 Mbytes
   Step         PotEng         TotEng           Lx             Ly             Lz           Volume         Press           Pxx            Pyy            Pzz      
        51  -9.2041176     -9.2041176      3.0264301      3.0264301      3.0264301      27.719917     -28818.43      -28818.43      -28818.43      -28818.43     
        52  -9.2041176     -9.2041176      3.0264301      3.0264301      3.0264301      27.719917     -28818.43      -28818.43      -28818.43      -28818.43     
Loop time of 0.000216125 on 8 procs for 1 steps with 2 atoms

Performance: 399.769 ns/day, 0.060 hours/ns, 4626.952 timesteps/s, 9.254 katom-step/s
0.0% CPU use with 8 MPI tasks x 1 OpenMP threads

MPI task timing breakdown:
Section |  min time  |  avg time  |  max time  |%varavg| %total
[...]
FullNghs:           22 ave         176 max           0 min
Histogram: 7 0 0 0 0 0 0 0 0 1

Total # of neighbors = 176
Ave neighs/atom = 88
Neighbor list builds = 0
Dangerous builds = 0
variable  natoms equal "count(all)"
variable xlength equal "lx"
variable  volume equal "vol"
variable  etotal equal "etotal"
variable    ecoh equal "pe/v_natoms"
print "${xlength}, ${volume}, ${etotal}, ${ecoh}" append lattice_cohesive_energy.txt screen no

next i
jump SELF loop

change_box all x scale 1.0025 y scale 1.0025 z scale 1.0025 remap
Changing box ...
  orthogonal box = (-0.060964483 -0.057046866 -0.057046866) to (3.0809645 3.0770469 3.0770469)
  orthogonal box = (-0.060964483 -0.060964483 -0.057046866) to (3.0809645 3.0809645 3.0770469)
  orthogonal box = (-0.060964483 -0.060964483 -0.060964483) to (3.0809645 3.0809645 3.0809645)

run 1
WARNING: No fixes with time integration, atoms won't move (src/verlet.cpp:60)
WARNING: Proc sub-domain size < neighbor skin, could lead to lost atoms (src/domain.cpp:966)
Per MPI rank memory allocation (min/avg/max) = 8.573 | 8.573 | 8.575 Mbytes
   Step         PotEng         TotEng           Lx             Ly             Lz           Volume         Press           Pxx            Pyy            Pzz      
        66  -9.030564      -9.030564       3.141929       3.141929       3.141929       31.016236     -129444.33     -129444.33     -129444.33     -129444.33    
        67  -9.030564      -9.030564       3.141929       3.141929       3.141929       31.016236     -129444.33     -129444.33     -129444.33     -129444.33    
Loop time of 0.0002565 on 8 procs for 1 steps with 2 atoms

Performance: 336.842 ns/day, 0.071 hours/ns, 3898.635 timesteps/s, 7.797 katom-step/s
0.0% CPU use with 8 MPI tasks x 1 OpenMP threads

MPI task timing breakdown:
Section |  min time  |  avg time  |  max time  |%varavg| %total
---------------------------------------------------------------
Pair    | 0.000132   | 0.0001485  | 0.000169   |   0.0 | 57.89
Neigh   | 0          | 0          | 0          |   0.0 |  0.00
Comm    | 1.6e-05    | 2.3625e-05 | 5.7e-05    |   0.0 |  9.21
Output  | 1.5e-05    | 3.25e-05   | 5.6e-05    |   0.0 | 12.67
Modify  | 0          | 0          | 0          |   0.0 |  0.00
Other   |            | 5.188e-05  |            |       | 20.22

Nlocal:           0.25 ave           2 max           0 min
Histogram: 7 0 0 0 0 0 0 0 0 1
Nghost:         249.75 ave         250 max         248 min
Histogram: 1 0 0 0 0 0 0 0 0 7
Neighs:             11 ave          88 max           0 min
Histogram: 7 0 0 0 0 0 0 0 0 1
FullNghs:           22 ave         176 max           0 min
Histogram: 7 0 0 0 0 0 0 0 0 1

Total # of neighbors = 176
Ave neighs/atom = 88
Neighbor list builds = 0
Dangerous builds = 0
variable  natoms equal "count(all)"
variable xlength equal "lx"
variable  volume equal "vol"
variable  etotal equal "etotal"
variable    ecoh equal "pe/v_natoms"
print "${xlength}, ${volume}, ${etotal}, ${ecoh}" append lattice_cohesive_energy.txt screen no

next i
jump SELF loop

change_box all x scale 1.0025 y scale 1.0025 z scale 1.0025 remap
Changing box ...
  orthogonal box = (-0.064891895 -0.060964483 -0.060964483) to (3.0848919 3.0809645 3.0809645)
  orthogonal box = (-0.064891895 -0.064891895 -0.060964483) to (3.0848919 3.0848919 3.0809645)
  orthogonal box = (-0.064891895 -0.064891895 -0.064891895) to (3.0848919 3.0848919 3.0848919)

run 1
WARNING: No fixes with time integration, atoms won't move (src/verlet.cpp:60)
WARNING: Proc sub-domain size < neighbor skin, could lead to lost atoms (src/domain.cpp:966)
Per MPI rank memory allocation (min/avg/max) = 8.573 | 8.573 | 8.575 Mbytes
   Step         PotEng         TotEng           Lx             Ly             Lz           Volume         Press           Pxx            Pyy            Pzz      
        67  -9.0113572     -9.0113572      3.1497838      3.1497838      3.1497838      31.249439     -134429.91     -134429.91     -134429.91     -134429.91    
        68  -9.0113572     -9.0113572      3.1497838      3.1497838      3.1497838      31.249439     -134429.91     -134429.91     -134429.91     -134429.91    
Loop time of 0.0001975 on 8 procs for 1 steps with 2 atoms

Performance: 437.468 ns/day, 0.055 hours/ns, 5063.291 timesteps/s, 10.127 katom-step/s
0.0% CPU use with 8 MPI tasks x 1 OpenMP threads

MPI task timing breakdown:
Section |  min time  |  avg time  |  max time  |%varavg| %total
---------------------------------------------------------------
Pair    | 0.000124   | 0.00013212 | 0.000151   |   0.0 | 66.90
Neigh   | 0          | 0          | 0          |   0.0 |  0.00
Comm    | 1.4e-05    | 2.4125e-05 | 4.8e-05    |   0.0 | 12.22
Output  | 1.5e-05    | 3.2875e-05 | 5e-05      |   0.0 | 16.65
Modify  | 0          | 1.25e-07   | 1e-06      |   0.0 |  0.06
Other   |            | 8.25e-06   |            |       |  4.18

Nlocal:           0.25 ave           2 max           0 min
Histogram: 7 0 0 0 0 0 0 0 0 1
Nghost:         249.75 ave         250 max         248 min
Histogram: 1 0 0 0 0 0 0 0 0 7
Neighs:             11 ave          88 max           0 min
Histogram: 7 0 0 0 0 0 0 0 0 1
FullNghs:           22 ave         176 max           0 min
Histogram: 7 0 0 0 0 0 0 0 0 1

Total # of neighbors = 176
Ave neighs/atom = 88
Neighbor list builds = 0
Dangerous builds = 0
variable  natoms equal "count(all)"
variable xlength equal "lx"
variable  volume equal "vol"
variable  etotal equal "etotal"
variable    ecoh equal "pe/v_natoms"
print "${xlength}, ${volume}, ${etotal}, ${ecoh}" append lattice_cohesive_energy.txt screen no

next i
jump SELF loop

change_box all x scale 1.0025 y scale 1.0025 z scale 1.0025 remap
Changing box ...
  orthogonal box = (-0.068829124 -0.064891895 -0.064891895) to (3.0888291 3.0848919 3.0848919)
  orthogonal box = (-0.068829124 -0.068829124 -0.064891895) to (3.0888291 3.0888291 3.0848919)
  orthogonal box = (-0.068829124 -0.068829124 -0.068829124) to (3.0888291 3.0888291 3.0888291)

run 1
WARNING: No fixes with time integration, atoms won't move (src/verlet.cpp:60)
WARNING: Proc sub-domain size < neighbor skin, could lead to lost atoms (src/domain.cpp:966)
Per MPI rank memory allocation (min/avg/max) = 8.573 | 8.573 | 8.575 Mbytes
   Step         PotEng         TotEng           Lx             Ly             Lz           Volume         Press           Pxx            Pyy            Pzz      
        68  -8.9912889     -8.9912889      3.1576582      3.1576582      3.1576582      31.484397     -139225.48     -139225.48     -139225.48     -139225.48    
        69  -8.9912889     -8.9912889      3.1576582      3.1576582      3.1576582      31.484397     -139225.48     -139225.48     -139225.48     -139225.48    
Loop time of 0.000194625 on 8 procs for 1 steps with 2 atoms

Performance: 443.931 ns/day, 0.054 hours/ns, 5138.086 timesteps/s, 10.276 katom-step/s
0.0% CPU use with 8 MPI tasks x 1 OpenMP threads

MPI task timing breakdown:
Section |  min time  |  avg time  |  max time  |%varavg| %total
---------------------------------------------------------------
Pair    | 0.000123   | 0.00013087 | 0.00015    |   0.0 | 67.24
Neigh   | 0          | 0          | 0          |   0.0 |  0.00
Comm    | 1.3e-05    | 2.35e-05   | 4.8e-05    |   0.0 | 12.07
Output  | 1.4e-05    | 3.2e-05    | 4.9e-05    |   0.0 | 16.44
Modify  | 0          | 2.5e-07    | 2e-06      |   0.0 |  0.13
Other   |            | 8e-06      |            |       |  4.11

Nlocal:           0.25 ave           2 max           0 min
Histogram: 7 0 0 0 0 0 0 0 0 1
Nghost:         249.75 ave         250 max         248 min
Histogram: 1 0 0 0 0 0 0 0 0 7
Neighs:             11 ave          88 max           0 min
Histogram: 7 0 0 0 0 0 0 0 0 1
FullNghs:           22 ave         176 max           0 min
Histogram: 7 0 0 0 0 0 0 0 0 1

Total # of neighbors = 176
Ave neighs/atom = 88
Neighbor list builds = 0
Dangerous builds = 0
variable  natoms equal "count(all)"
variable xlength equal "lx"
variable  volume equal "vol"
variable  etotal equal "etotal"
variable    ecoh equal "pe/v_natoms"
print "${xlength}, ${volume}, ${etotal}, ${ecoh}" append lattice_cohesive_energy.txt screen no

next i
jump SELF loop

change_box all x scale 1.0025 y scale 1.0025 z scale 1.0025 remap
Changing box ...
  orthogonal box = (-0.072776197 -0.068829124 -0.068829124) to (3.0927762 3.0888291 3.0888291)
  orthogonal box = (-0.072776197 -0.072776197 -0.068829124) to (3.0927762 3.0927762 3.0888291)
  orthogonal box = (-0.072776197 -0.072776197 -0.072776197) to (3.0927762 3.0927762 3.0927762)

run 1
WARNING: No fixes with time integration, atoms won't move (src/verlet.cpp:60)
WARNING: Proc sub-domain size < neighbor skin, could lead to lost atoms (src/domain.cpp:966)
Per MPI rank memory allocation (min/avg/max) = 8.573 | 8.573 | 8.575 Mbytes
   Step         PotEng         TotEng           Lx             Ly             Lz           Volume         Press           Pxx            Pyy            Pzz      
        69  -8.9703749     -8.9703749      3.1655524      3.1655524      3.1655524      31.72112      -143835.17     -143835.17     -143835.17     -143835.17    
        70  -8.9703749     -8.9703749      3.1655524      3.1655524      3.1655524      31.72112      -143835.17     -143835.17     -143835.17     -143835.17    
Loop time of 0.000194625 on 8 procs for 1 steps with 2 atoms

Performance: 443.931 ns/day, 0.054 hours/ns, 5138.086 timesteps/s, 10.276 katom-step/s
0.0% CPU use with 8 MPI tasks x 1 OpenMP threads

MPI task timing breakdown:
Section |  min time  |  avg time  |  max time  |%varavg| %total
---------------------------------------------------------------
Pair    | 0.000122   | 0.00013025 | 0.000151   |   0.0 | 66.92
Neigh   | 0          | 0          | 0          |   0.0 |  0.00
Comm    | 1.3e-05    | 2.3875e-05 | 4.9e-05    |   0.0 | 12.27
Output  | 1.5e-05    | 3.2375e-05 | 4.9e-05    |   0.0 | 16.63
Modify  | 0          | 1.25e-07   | 1e-06      |   0.0 |  0.06
Other   |            | 8e-06      |            |       |  4.11

Nlocal:           0.25 ave           2 max           0 min
Histogram: 7 0 0 0 0 0 0 0 0 1
Nghost:         249.75 ave         250 max         248 min
Histogram: 1 0 0 0 0 0 0 0 0 7
Neighs:             11 ave          88 max           0 min
Histogram: 7 0 0 0 0 0 0 0 0 1
FullNghs:           22 ave         176 max           0 min
Histogram: 7 0 0 0 0 0 0 0 0 1

Total # of neighbors = 176
Ave neighs/atom = 88
Neighbor list builds = 0
Dangerous builds = 0
variable  natoms equal "count(all)"
variable xlength equal "lx"
variable  volume equal "vol"
variable  etotal equal "etotal"
variable    ecoh equal "pe/v_natoms"
print "${xlength}, ${volume}, ${etotal}, ${ecoh}" append lattice_cohesive_energy.txt screen no

next i
jump SELF loop

change_box all x scale 1.0025 y scale 1.0025 z scale 1.0025 remap
Changing box ...
  orthogonal box = (-0.076733138 -0.072776197 -0.072776197) to (3.0967331 3.0927762 3.0927762)
  orthogonal box = (-0.076733138 -0.076733138 -0.072776197) to (3.0967331 3.0967331 3.0927762)
  orthogonal box = (-0.076733138 -0.076733138 -0.076733138) to (3.0967331 3.0967331 3.0967331)

run 1
WARNING: No fixes with time integration, atoms won't move (src/verlet.cpp:60)
WARNING: Proc sub-domain size < neighbor skin, could lead to lost atoms (src/domain.cpp:966)
Per MPI rank memory allocation (min/avg/max) = 8.573 | 8.573 | 8.575 Mbytes
   Step         PotEng         TotEng           Lx             Ly             Lz           Volume         Press           Pxx            Pyy            Pzz      
        70  -8.948631      -8.948631       3.1734663      3.1734663      3.1734663      31.959624     -148263.07     -148263.07     -148263.07     -148263.07    
        71  -8.948631      -8.948631       3.1734663      3.1734663      3.1734663      31.959624     -148263.07     -148263.07     -148263.07     -148263.07    
Loop time of 0.000193375 on 8 procs for 1 steps with 2 atoms

Performance: 446.800 ns/day, 0.054 hours/ns, 5171.299 timesteps/s, 10.343 katom-step/s
0.0% CPU use with 8 MPI tasks x 1 OpenMP threads

MPI task timing breakdown:
Section |  min time  |  avg time  |  max time  |%varavg| %total
---------------------------------------------------------------
Pair    | 0.000121   | 0.0001295  | 0.00015    |   0.0 | 66.97
Neigh   | 0          | 0          | 0          |   0.0 |  0.00
Comm    | 1.3e-05    | 2.3375e-05 | 4.8e-05    |   0.0 | 12.09
Output  | 1.5e-05    | 3.25e-05   | 5e-05      |   0.0 | 16.81
Modify  | 0          | 0          | 0          |   0.0 |  0.00
Other   |            | 8e-06      |            |       |  4.14

Nlocal:           0.25 ave           2 max           0 min
Histogram: 7 0 0 0 0 0 0 0 0 1
Nghost:         249.75 ave         250 max         248 min
Histogram: 1 0 0 0 0 0 0 0 0 7
Neighs:             11 ave          88 max           0 min
Histogram: 7 0 0 0 0 0 0 0 0 1
FullNghs:           22 ave         176 max           0 min
Histogram: 7 0 0 0 0 0 0 0 0 1

Total # of neighbors = 176
Ave neighs/atom = 88
Neighbor list builds = 0
Dangerous builds = 0
variable  natoms equal "count(all)"
variable xlength equal "lx"
variable  volume equal "vol"
variable  etotal equal "etotal"
variable    ecoh equal "pe/v_natoms"
print "${xlength}, ${volume}, ${etotal}, ${ecoh}" append lattice_cohesive_energy.txt screen no

next i
jump SELF loop

change_box all x scale 1.0025 y scale 1.0025 z scale 1.0025 remap
Changing box ...
  orthogonal box = (-0.08069997 -0.076733138 -0.076733138) to (3.1007 3.0967331 3.0967331)
  orthogonal box = (-0.08069997 -0.08069997 -0.076733138) to (3.1007 3.1007 3.0967331)
  orthogonal box = (-0.08069997 -0.08069997 -0.08069997) to (3.1007 3.1007 3.1007)

run 1
WARNING: No fixes with time integration, atoms won't move (src/verlet.cpp:60)
WARNING: Proc sub-domain size < neighbor skin, could lead to lost atoms (src/domain.cpp:966)
Per MPI rank memory allocation (min/avg/max) = 8.573 | 8.573 | 8.575 Mbytes
   Step         PotEng         TotEng           Lx             Ly             Lz           Volume         Press           Pxx            Pyy            Pzz      
        71  -8.926073      -8.926073       3.1813999      3.1813999      3.1813999      32.199921     -152513.25     -152513.25     -152513.25     -152513.25    
        72  -8.926073      -8.926073       3.1813999      3.1813999      3.1813999      32.199921     -152513.25     -152513.25     -152513.25     -152513.25    
Loop time of 0.000193875 on 8 procs for 1 steps with 2 atoms

Performance: 445.648 ns/day, 0.054 hours/ns, 5157.963 timesteps/s, 10.316 katom-step/s
0.0% CPU use with 8 MPI tasks x 1 OpenMP threads

MPI task timing breakdown:
Section |  min time  |  avg time  |  max time  |%varavg| %total
---------------------------------------------------------------
Pair    | 0.000122   | 0.0001305  | 0.00015    |   0.0 | 67.31
Neigh   | 0          | 0          | 0          |   0.0 |  0.00
Comm    | 1.2e-05    | 2.3e-05    | 4.6e-05    |   0.0 | 11.86
Output  | 1.5e-05    | 3.225e-05  | 4.9e-05    |   0.0 | 16.63
Modify  | 0          | 0          | 0          |   0.0 |  0.00
Other   |            | 8.125e-06  |            |       |  4.19

Nlocal:           0.25 ave           2 max           0 min
Histogram: 7 0 0 0 0 0 0 0 0 1
Nghost:         249.75 ave         250 max         248 min
Histogram: 1 0 0 0 0 0 0 0 0 7
Neighs:             11 ave          88 max           0 min
Histogram: 7 0 0 0 0 0 0 0 0 1
FullNghs:           22 ave         176 max           0 min
Histogram: 7 0 0 0 0 0 0 0 0 1

Total # of neighbors = 176
Ave neighs/atom = 88
Neighbor list builds = 0
Dangerous builds = 0
variable  natoms equal "count(all)"
variable xlength equal "lx"
variable  volume equal "vol"
variable  etotal equal "etotal"
variable    ecoh equal "pe/v_natoms"
print "${xlength}, ${volume}, ${etotal}, ${ecoh}" append lattice_cohesive_energy.txt screen no

next i
jump SELF loop

change_box all x scale 1.0025 y scale 1.0025 z scale 1.0025 remap
Changing box ...
  orthogonal box = (-0.08467672 -0.08069997 -0.08069997) to (3.1046767 3.1007 3.1007)
  orthogonal box = (-0.08467672 -0.08467672 -0.08069997) to (3.1046767 3.1046767 3.1007)
  orthogonal box = (-0.08467672 -0.08467672 -0.08467672) to (3.1046767 3.1046767 3.1046767)

run 1
WARNING: No fixes with time integration, atoms won't move (src/verlet.cpp:60)
Per MPI rank memory allocation (min/avg/max) = 8.573 | 8.573 | 8.575 Mbytes
   Step         PotEng         TotEng           Lx             Ly             Lz           Volume         Press           Pxx            Pyy            Pzz      
WARNING: Too many warnings: 101 vs 100. All future warnings will be suppressed (src/thermo.cpp:466)
        72  -8.9027163     -8.9027163      3.1893534      3.1893534      3.1893534      32.442025     -156589.65     -156589.65     -156589.65     -156589.65    
        73  -8.9027163     -8.9027163      3.1893534      3.1893534      3.1893534      32.442025     -156589.65     -156589.65     -156589.65     -156589.65    
Loop time of 0.000193875 on 8 procs for 1 steps with 2 atoms

Performance: 445.648 ns/day, 0.054 hours/ns, 5157.963 timesteps/s, 10.316 katom-step/s
0.0% CPU use with 8 MPI tasks x 1 OpenMP threads

MPI task timing breakdown:
Section |  min time  |  avg time  |  max time  |%varavg| %total
---------------------------------------------------------------
Pair    | 0.000124   | 0.00013162 | 0.00015    |   0.0 | 67.89
Neigh   | 0          | 0          | 0          |   0.0 |  0.00
Comm    | 1.2e-05    | 2.25e-05   | 4.6e-05    |   0.0 | 11.61
Output  | 1.5e-05    | 3.1625e-05 | 4.8e-05    |   0.0 | 16.31
Modify  | 0          | 1.25e-07   | 1e-06      |   0.0 |  0.06
Other   |            | 8e-06      |            |       |  4.13

Nlocal:           0.25 ave           2 max           0 min
Histogram: 7 0 0 0 0 0 0 0 0 1
Nghost:         249.75 ave         250 max         248 min
Histogram: 1 0 0 0 0 0 0 0 0 7
Neighs:             11 ave          88 max           0 min
Histogram: 7 0 0 0 0 0 0 0 0 1
FullNghs:           22 ave         176 max           0 min
Histogram: 7 0 0 0 0 0 0 0 0 1

Total # of neighbors = 176
Ave neighs/atom = 88
Neighbor list builds = 0
Dangerous builds = 0
variable  natoms equal "count(all)"
variable xlength equal "lx"
variable  volume equal "vol"
variable  etotal equal "etotal"
variable    ecoh equal "pe/v_natoms"
print "${xlength}, ${volume}, ${etotal}, ${ecoh}" append lattice_cohesive_energy.txt screen no

next i
jump SELF loop

print "-------------------------------------------------------------"
-------------------------------------------------------------
print "Show results of 1st step (Running Minimization)"
Show results of 1st step (Running Minimization)
print "The number of atoms = ${natoms};"
The number of atoms = 2;
print "The lattice constant, x (Angstoms) = ${x0};"
The lattice constant, x (Angstoms) = 3.18935344078075;
print "The lattice constant, y (Angstoms) = ${y0};"
The lattice constant, y (Angstoms) = 3.18935344078075;
print "The lattice constant, z (Angstoms) = ${z0};"
The lattice constant, z (Angstoms) = 3.18935344078075;
print "The volume (Angstoms^3) = ${v0};"
The volume (Angstoms^3) = 32.4420246465483;
print "The total energy (eV) = ${etot0};"
The total energy (eV) = -8.90271627916717;
print "The cohesive energy (eV/atom) = ${ecoh0};"
The cohesive energy (eV/atom) = -4.45135813958359;
print "-------------------------------------------------------------"
-------------------------------------------------------------
print "Simulations completed !"
Simulations completed !
Total wall time: 0:00:00
