# LAMMPS data file written by OVITO Basic 3.8.4

8 atoms
2 atom types

0.0 3.1 xlo xhi
0.0 3.1 ylo yhi
0.0 3.1 zlo zhi

Masses

1 47.867  # Ti
2 50.9415  # V

Atoms  # atomic

1 1 0.0 0.0 0.0
2 1 0.0 1.55 1.55
3 1 1.55 0.0 1.55
4 1 1.55 1.55 0.0
5 2 1.55 0.0 0.0
6 2 1.55 1.55 1.55
7 2 0.0 0.0 1.55
8 2 0.0 1.55 0.0
