LAMMPS data file via write_data, version 18 Jun 2019, timestep = 30000

320 atoms
5 atom types

-9.1142500000000002e+00 9.1142500000000002e+00 xlo xhi
-7.2914000000000003e+00 7.2914000000000003e+00 ylo yhi
-7.2914000000000003e+00 7.2914000000000003e+00 zlo zhi

Masses

1 58.933
2 58.69
3 51.96
4 55.847
5 54.94

Atoms # atomic

1 2 9.1021352523283614e+00 -5.6231727651159931e+00 -5.5039227340274772e+00 -1 0 0
2 5 -9.0160809767731092e+00 -7.2484389592608043e+00 -7.1958333025991461e+00 0 0 0
3 1 -7.3007035978714887e+00 -7.2323337079856511e+00 -5.3894964704342767e+00 0 0 0
4 1 -7.2265917646162032e+00 -5.4068512049386346e+00 7.2887737116903679e+00 0 0 -1
82 1 -9.0923184371917625e+00 7.1761787055505470e+00 -3.6667699662993036e+00 0 -1 0
84 4 -7.1805723726023407e+00 -5.4434578065136456e+00 -3.5177949767507521e+00 0 0 0
22 4 -8.9946862146863307e+00 -3.6446809487414855e+00 7.2868405085899175e+00 0 0 -1
23 1 -7.2583340397336231e+00 -3.6678252658475312e+00 -5.4081111973914542e+00 0 0 0
102 4 9.0601855531980053e+00 -3.7390859587203265e+00 -3.6898434926412693e+00 -1 0 0
5 2 -5.5515509132423277e+00 -5.4840284157882611e+00 -5.5466937700699033e+00 0 0 0
6 4 -5.5646745103085733e+00 -7.2790725520082118e+00 -7.2093564051874335e+00 0 0 0
86 1 -5.4462546124854851e+00 7.2296935871296935e+00 -3.5414579469649548e+00 0 -1 0
26 5 -5.4446770039183638e+00 -3.5974317995006757e+00 -7.2339367715734344e+00 0 0 0
106 5 -5.4055315822788295e+00 -3.7221451381970674e+00 -3.6029748789263056e+00 0 0 0
7 5 -3.7544944623488297e+00 -7.2526830765788164e+00 -5.4578129064858922e+00 0 0 0
8 2 -3.6891116197425515e+00 -5.4450076750925378e+00 7.2791171709053586e+00 0 0 -1
88 5 -3.6375112323852163e+00 -5.5691049236975312e+00 -3.6228660809719280e+00 0 0 0
27 5 -3.4878306191906838e+00 -3.5407685108115463e+00 -5.4738787341651731e+00 0 0 0
9 3 -1.4892049854712563e+00 -5.5276858057729550e+00 -5.4824651993518589e+00 0 0 0
10 3 -1.8169304502523496e+00 7.2806272208234759e+00 -7.1905056036675621e+00 0 -1 0
11 5 8.6855666936902318e-02 7.2237286030272623e+00 -5.4980759171473679e+00 0 -1 0
12 2 1.5263670721968167e-01 -5.4625337313174951e+00 -7.2335617613441867e+00 0 0 0
90 5 -1.7545443829662453e+00 -7.2225421628566391e+00 -3.6102667465250238e+00 0 0 0
92 2 1.3320282300238903e-01 -5.5327326059035240e+00 -3.7520969431377917e+00 0 0 0
30 5 -1.7279437097670480e+00 -3.8297160143584397e+00 -7.2100212689871013e+00 0 0 0
31 2 7.4162876745090698e-03 -3.5908926709648026e+00 -5.3214848237953865e+00 0 0 0
110 5 -1.6962977461458209e+00 -3.6608364017439983e+00 -3.5914204405296788e+00 0 0 0
13 4 1.9259284148616678e+00 -5.4157772091368983e+00 -5.4287858566592435e+00 0 0 0
14 5 1.9076008959838220e+00 7.2908693975604617e+00 -7.2152837936397241e+00 0 -1 0
15 2 3.6059994401603075e+00 -7.2843820134551409e+00 -5.5704231401421413e+00 0 0 0
16 2 3.7303930861075680e+00 -5.4906381724997431e+00 7.2023262967566160e+00 0 0 -1
94 1 1.8905228066858233e+00 7.2737832576662687e+00 -3.5928880046242169e+00 0 -1 0
96 4 3.7245314271272889e+00 -5.4381337147525279e+00 -3.6581610000047360e+00 0 0 0
34 1 1.8101995649464269e+00 -3.7183484275273844e+00 -7.2647729910624204e+00 0 0 0
35 2 3.6297906945670868e+00 -3.6188411337866286e+00 -5.4465645812884977e+00 0 0 0
114 1 1.9548279415492669e+00 -3.5948129141980387e+00 -3.5424930866412438e+00 0 0 0
17 1 5.4765587082435809e+00 -5.4974080597613133e+00 -5.4824062467797958e+00 0 0 0
18 4 5.3770159589667994e+00 -7.1842368252659670e+00 7.1809520932810385e+00 0 0 -1
19 3 7.3070210755805398e+00 7.2404786196717126e+00 -5.4546701128801978e+00 0 -1 0
20 1 7.3600800296961797e+00 -5.4978279088549105e+00 -7.2482910834506216e+00 0 0 0
98 4 5.3744912190039447e+00 7.1827987257359815e+00 -3.5456548542971706e+00 0 -1 0
100 4 7.1734141618591893e+00 -5.4926785048328579e+00 -3.5927485995375705e+00 0 0 0
38 4 5.5680280883926532e+00 -3.6073696013283865e+00 7.2441448167179825e+00 0 0 -1
39 5 7.3304904220293583e+00 -3.7534545345291224e+00 -5.4291011973609979e+00 0 0 0
118 1 5.4332481975969049e+00 -3.7394641593796067e+00 -3.6705106952667097e+00 0 0 0
21 2 -9.0778078103433675e+00 -1.8187900054944264e+00 -5.4412801260209376e+00 0 0 0
24 4 -7.3564115621531148e+00 -1.7852314604041168e+00 -7.2715723139726682e+00 0 0 0
104 4 -7.2627743025946954e+00 -1.9369169199401677e+00 -3.5942049025404188e+00 0 0 0
41 5 9.0342499678556383e+00 1.9603991780530663e+00 -5.4174450814952282e+00 -1 0 0
42 4 -8.9496172667004057e+00 1.3138314010679172e-01 -7.2688525376281570e+00 0 0 0
43 2 -7.4279782660819480e+00 -4.4603019107708475e-02 -5.3152638323625290e+00 0 0 0
44 1 -7.3056134681087563e+00 2.0074194679514430e+00 7.2276292928376336e+00 0 0 -1
122 5 8.9837045101375175e+00 -1.0463414562723233e-01 -3.6455189305909181e+00 -1 0 0
124 2 -7.2531738209848253e+00 1.7426480589177493e+00 -3.6493797218450434e+00 0 0 0
25 3 -5.5353357882493475e+00 -1.7692700362914147e+00 -5.4607983001877773e+00 0 0 0
45 3 -5.6130443327099160e+00 1.7993551000210488e+00 -5.5812195997365430e+00 0 0 0
46 5 -5.8454332817683872e+00 7.7871644314346497e-02 -7.1361352815901933e+00 0 0 0
126 5 -5.5166075715309653e+00 7.1101570599022126e-02 -3.6106958698149159e+00 0 0 0
28 3 -3.7323259122568055e+00 -1.6770673994596774e+00 7.2208587172907102e+00 0 0 -1
108 3 -3.5206797974943718e+00 -1.8331692822796799e+00 -3.5018237696702781e+00 0 0 0
47 3 -3.6501872266117852e+00 -6.3796734482163844e-02 -5.5591814550727561e+00 0 0 0
48 2 -3.6653088342088243e+00 1.6869628485902732e+00 7.2154318545308893e+00 0 0 -1
128 3 -3.8497223811756411e+00 1.8892723884273681e+00 -3.7444222425765110e+00 0 0 0
29 3 -1.7527255458270299e+00 -1.8965924577581612e+00 -5.3758286474369070e+00 0 0 0
32 4 1.8640380231651561e-02 -1.6849259774893417e+00 -7.1515800612854505e+00 0 0 0
112 5 1.3060234612805252e-01 -1.8950534734272959e+00 -3.5762943721358273e+00 0 0 0
49 3 -1.8190660390027680e+00 1.9471892622572295e+00 -5.6616003138351667e+00 0 0 0
50 3 -1.7397824378758369e+00 -2.3554778527313368e-02 -7.2821684416292323e+00 0 0 0
51 5 6.9671681034520969e-02 1.4656315862344321e-02 -5.4173047957166842e+00 0 0 0
52 2 1.4269260738525971e-01 1.7302031809830241e+00 -7.2431598674781110e+00 0 0 0
130 3 -1.9232456565807514e+00 3.5574098734382775e-01 -3.5155435294462438e+00 0 0 0
132 3 2.5691380166313044e-01 1.9055958333009964e+00 -3.6631857352524451e+00 0 0 0
33 4 1.8576011794407628e+00 -1.8792212762743292e+00 -5.5408062959751385e+00 0 0 0
36 3 3.7069501701684962e+00 -1.9944958551441572e+00 7.2758675586075503e+00 0 0 -1
116 5 3.7112717846259713e+00 -1.8423118826880609e+00 -3.7393422854791356e+00 0 0 0
53 3 1.8176809890738055e+00 1.8543217740999520e+00 -5.3698458141043224e+00 0 0 0
54 2 1.9111020610427698e+00 5.5838557095858041e-02 7.1524722427120464e+00 0 0 -1
55 3 3.5926730603385488e+00 6.7060338660747121e-02 -5.5702607229975083e+00 0 0 0
56 5 3.7059628412356971e+00 1.9691451192201275e+00 -7.2186760352154540e+00 0 0 0
134 2 1.8716028929992627e+00 1.3210939407639836e-02 -3.6949121644618952e+00 0 0 0
136 3 3.6529377069458309e+00 1.9260306814851351e+00 -3.7766992117316209e+00 0 0 0
37 3 5.5288468568057674e+00 -1.8149245208003495e+00 -5.5399524096034645e+00 0 0 0
40 5 7.3167153349185430e+00 -1.7699951374386929e+00 7.1644193210117306e+00 0 0 -1
120 3 7.3094101640660609e+00 -1.8997079546331157e+00 -3.6702275326132363e+00 0 0 0
57 3 5.6551844703989955e+00 2.0059982401650029e+00 -5.4794426629631854e+00 0 0 0
58 3 5.6396266856574293e+00 4.5619296157907926e-02 7.2232458444396235e+00 0 0 -1
59 2 7.1701253630314383e+00 1.8177861967481213e-01 -5.4300430877256023e+00 0 0 0
60 2 7.2746425145697309e+00 1.8624775104096114e+00 7.2683610448156895e+00 0 0 -1
138 5 5.2578528598268619e+00 -1.2497117156986365e-02 -3.6100797990038931e+00 0 0 0
140 2 7.2448090877731319e+00 1.8311497592920429e+00 -3.6928603306872798e+00 0 0 0
61 2 9.0694600952638975e+00 5.6135616833324793e+00 -5.4589798503981575e+00 -1 0 0
62 4 9.0234914267618187e+00 3.6927096164222335e+00 7.2675353205982232e+00 -1 0 -1
63 1 -7.4378856534297499e+00 3.5216317249732181e+00 -5.3141619374965066e+00 0 0 0
64 4 -7.3635781781805010e+00 5.3893034019261030e+00 7.2706030330965081e+00 0 0 -1
142 4 9.0672426087616511e+00 3.6117246353344390e+00 -3.4751473869561038e+00 -1 0 0
144 4 -7.3338863557633509e+00 5.5062655877644726e+00 -3.6109688180125707e+00 0 0 0
65 2 -5.5137704612570309e+00 5.4580943090642897e+00 -5.3608332009152058e+00 0 0 0
66 4 -5.5196190986134734e+00 3.7130345085943164e+00 -7.2805597180512347e+00 0 0 0
146 1 -5.6616319966218107e+00 3.6419292759348632e+00 -3.6860526785950039e+00 0 0 0
67 5 -3.7652602313456334e+00 3.6552759696085726e+00 -5.6001163815351491e+00 0 0 0
68 1 -3.7312034672082639e+00 5.4983686360058135e+00 -7.2825927823836318e+00 0 0 0
148 4 -3.6151562007740399e+00 5.5025843956184479e+00 -3.6593441138924212e+00 0 0 0
69 2 -1.9239719873338865e+00 5.4010974471814226e+00 -5.3979521871943108e+00 0 0 0
70 5 -1.6852040026164965e+00 3.7376392529238887e+00 7.1273077376027647e+00 0 0 -1
71 3 -6.2566783268541371e-02 3.8003300728603469e+00 -5.5425441501766155e+00 0 0 0
72 3 -4.3675459878637739e-02 5.3980635238405554e+00 7.2032009177862761e+00 0 0 -1
150 5 -1.7234711562687677e+00 3.4823734741717480e+00 -3.7021862438168913e+00 0 0 0
152 2 -6.4082295683787732e-02 5.6275394059522208e+00 -3.6242775894030275e+00 0 0 0
73 3 1.8921030005403967e+00 5.4622600427556334e+00 -5.4660025652625706e+00 0 0 0
74 5 1.9370551729401639e+00 3.6753471766832511e+00 -7.2592294559454160e+00 0 0 0
75 2 3.7364756511490098e+00 3.7119528707173628e+00 -5.4399156990195339e+00 0 0 0
76 1 3.7182966532027280e+00 5.5459540145506727e+00 7.1965119290311499e+00 0 0 -1
154 3 1.7455969905907651e+00 3.8945807928787395e+00 -3.5748780049593614e+00 0 0 0
156 2 3.7518197439858350e+00 5.4222274015134957e+00 -3.6307470362251886e+00 0 0 0
77 1 5.4439079609344931e+00 5.6286537048053464e+00 -5.5632388234372820e+00 0 0 0
78 4 5.4685005737468959e+00 3.7120962100111337e+00 7.2855823807746640e+00 0 0 -1
79 1 7.3281392277059050e+00 3.7302315589153379e+00 -5.5132193093694637e+00 0 0 0
80 1 7.3452631873903567e+00 5.3938619936865244e+00 7.1891072831297844e+00 0 0 -1
158 4 5.6338656520276942e+00 3.6584800471601691e+00 -3.6933185716991530e+00 0 0 0
160 5 7.3240532452452243e+00 5.5395258096283264e+00 -3.7101987354814114e+00 0 0 0
81 1 9.0485923800055552e+00 -5.4958800267906520e+00 -1.8796970304756786e+00 -1 0 0
83 4 -7.3056298879126151e+00 7.1871565444173635e+00 -1.8339862155609772e+00 0 -1 0
161 2 -8.9362786528024518e+00 -5.4496853228438296e+00 1.8378631168648401e+00 0 0 0
162 4 -9.0737246164981009e+00 7.2887963148457411e+00 -1.0363071660029446e-01 0 -1 0
163 1 -7.3195576450035444e+00 7.2604857657373847e+00 1.8165580682148577e+00 0 -1 0
164 4 -7.3891966278974825e+00 -5.5749442435944054e+00 -2.0543344708855371e-01 0 0 0
103 1 -7.1881764010154718e+00 -3.7049851708101533e+00 -1.9025872939438018e+00 0 0 0
182 5 -9.0855473239852831e+00 -3.5871452674274669e+00 -1.2985163326297230e-01 0 0 0
183 1 -7.2299029496098548e+00 -3.6865407365661857e+00 1.8596433705404531e+00 0 0 0
85 2 -5.2767177564732464e+00 -5.4411612607632636e+00 -1.7227958167919029e+00 0 0 0
165 3 -5.4704831427749374e+00 -5.4629366551588836e+00 1.8357067998938632e+00 0 0 0
166 4 -5.3726351481115806e+00 7.2795784677727156e+00 3.2735730724418023e-02 0 -1 0
186 3 -5.4791367758428988e+00 -3.5092373592593207e+00 -4.4401802489770631e-02 0 0 0
87 1 -3.6111184159917564e+00 -7.2448175100443288e+00 -1.8118213308140845e+00 0 0 0
167 1 -3.6177770511365548e+00 7.2864233805458278e+00 2.0716947456117127e+00 0 -1 0
168 1 -3.5840273264209932e+00 -5.3151621787502021e+00 9.9953065059196960e-02 0 0 0
107 1 -3.6443952579291805e+00 -3.6117303258547033e+00 -1.7651370919776339e+00 0 0 0
187 2 -3.7284017944565981e+00 -3.5684495433558645e+00 1.8415933110108307e+00 0 0 0
89 4 -1.6980199308312554e+00 -5.3647554995553053e+00 -1.7459868180805573e+00 0 0 0
91 4 -7.6012447754286769e-02 -7.1882251688560759e+00 -1.7537337287804102e+00 0 0 0
169 5 -1.8976210907650271e+00 -5.4773749205634026e+00 1.8445785453256527e+00 0 0 0
170 5 -1.8891787841431127e+00 -7.1466764049790239e+00 1.3528282187634846e-01 0 0 0
171 5 -5.2231677427326886e-02 7.0578627717025535e+00 1.7556845011071858e+00 0 -1 0
172 1 5.5597766683353485e-02 -5.4095293041060986e+00 1.4740934762960864e-01 0 0 0
111 2 1.1334232447470194e-01 -3.6705689748969239e+00 -1.6672879133499958e+00 0 0 0
190 4 -1.7442415991447449e+00 -3.5863119657279761e+00 7.6621690691861352e-02 0 0 0
191 5 -9.5550895597709233e-03 -3.5393738140279853e+00 1.7991738486419762e+00 0 0 0
93 4 1.8129755905205460e+00 -5.4716441481342306e+00 -1.6862744221754118e+00 0 0 0
95 1 3.6598018532314973e+00 7.2800592624119034e+00 -1.7779665580065975e+00 0 -1 0
173 5 1.8433180282493422e+00 -5.5648873261411653e+00 1.8660562561553922e+00 0 0 0
174 1 1.7725932347847928e+00 7.2480155783161750e+00 -7.2466607086556417e-02 0 -1 0
175 4 3.6373444225439617e+00 -7.2702117179901933e+00 1.8654043427507887e+00 0 0 0
176 5 3.7412910908667683e+00 -5.7038341745168255e+00 7.9443076824922739e-03 0 0 0
115 2 3.6488453709987536e+00 -3.6297315182118584e+00 -1.7222824433573491e+00 0 0 0
194 2 1.8225479474489394e+00 -3.6360684647193380e+00 3.2123453537119338e-02 0 0 0
195 3 3.5725377556629327e+00 -3.8119337021497710e+00 1.8498283532106519e+00 0 0 0
97 2 5.4811457932092136e+00 -5.6093391291884194e+00 -1.8792251733645233e+00 0 0 0
99 1 7.3442195629394718e+00 7.1100742915582336e+00 -1.8227535434778634e+00 0 -1 0
177 2 5.6903422299227202e+00 -5.4672305396645502e+00 1.8146917100556499e+00 0 0 0
178 4 5.5445395123608936e+00 7.2055818540265486e+00 1.9116856139401808e-02 0 -1 0
179 3 7.2317722128655157e+00 7.1617499996771592e+00 1.8388141112211893e+00 0 -1 0
180 5 7.4525708434607445e+00 -5.5076013678204490e+00 -1.5593170343962276e-01 0 0 0
119 5 7.2962646161444624e+00 -3.5338426111424379e+00 -1.8211389282756287e+00 0 0 0
198 3 5.5960964798620321e+00 -4.0266398688299931e+00 1.4502629237431069e-01 0 0 0
199 2 7.4612533694664362e+00 -3.8519828795014894e+00 1.9237040226396664e+00 0 0 0
101 2 -9.0895088253501672e+00 -1.7985966845144226e+00 -1.7968233484992997e+00 0 0 0
181 1 -9.0275876172065779e+00 -2.1425136120481314e+00 1.7149929883660038e+00 0 0 0
184 4 -7.2381233720854237e+00 -1.7821176684339761e+00 -4.3152806140733871e-02 0 0 0
121 5 9.0526056624758340e+00 1.8253092674241413e+00 -1.8848973261153907e+00 -1 0 0
123 4 -7.3926399752827532e+00 1.2504592237038548e-01 -1.7784164600001637e+00 0 0 0
201 5 8.8840647079782968e+00 2.0092855594305532e+00 1.7823602875899498e+00 -1 0 0
202 5 8.9568389524362040e+00 -5.8590867101364741e-02 2.6355384292329775e-01 -1 0 0
203 5 -7.2023453391458441e+00 -9.2732795019891540e-02 1.7124535666478711e+00 0 0 0
204 2 -7.2597987232606185e+00 1.8567347982315374e+00 1.1428026280189491e-01 0 0 0
105 2 -5.3978356069886777e+00 -1.8184551339220698e+00 -1.8332259960950656e+00 0 0 0
185 1 -5.4721475643747066e+00 -1.5506118834514107e+00 1.7548707761325182e+00 0 0 0
125 4 -5.4402355766845290e+00 1.9710612567154733e+00 -1.9049819158712020e+00 0 0 0
205 1 -5.3995390820342113e+00 1.7066426818267886e+00 1.7785689050512141e+00 0 0 0
206 4 -5.4360521512283944e+00 8.9923545925193318e-02 -7.5585347103515790e-02 0 0 0
188 5 -3.6019422214351740e+00 -1.7466041809296478e+00 -2.0824467179205036e-01 0 0 0
127 2 -3.6833418987919986e+00 -6.1058675831146131e-03 -1.7619105802906623e+00 0 0 0
207 2 -3.6141337050417959e+00 9.3478663010384905e-02 1.9534735198733750e+00 0 0 0
208 2 -3.5175974744999721e+00 1.8183591946610518e+00 9.9440639741082568e-02 0 0 0
109 2 -1.6296299573631452e+00 -1.8652138514780212e+00 -1.8150897676464821e+00 0 0 0
189 2 -1.9477354673852669e+00 -1.9118269100469334e+00 1.7718341929373169e+00 0 0 0
192 1 5.2651371849815045e-03 -1.8421869285969339e+00 -9.2320800738467504e-02 0 0 0
129 3 -1.7857195490573168e+00 1.8763903431580951e+00 -1.6555701840928858e+00 0 0 0
131 3 2.2859227683871455e-02 -7.0448973625289388e-02 -1.8799308929281990e+00 0 0 0
209 3 -1.8306237830084791e+00 1.8507954838732932e+00 1.8906727240484111e+00 0 0 0
210 5 -1.7232070905999852e+00 -1.4487134536560317e-01 -4.9553883918424822e-02 0 0 0
211 3 1.2107624994028374e-01 -4.9563354134006962e-02 1.7996961376391976e+00 0 0 0
212 3 3.0903233515529132e-02 1.8938221287205257e+00 -3.2157478878268787e-02 0 0 0
113 4 1.7759236848987294e+00 -1.8707667697723451e+00 -1.7871255362913763e+00 0 0 0
193 5 1.7143558555771403e+00 -1.8795235333396485e+00 1.7318286857578256e+00 0 0 0
196 3 3.7246840231947562e+00 -1.7737803144658153e+00 -3.3429046561724636e-02 0 0 0
133 5 1.8068534476404043e+00 1.9327435538395865e+00 -1.8752212614665282e+00 0 0 0
135 3 3.5265125869477689e+00 -3.6815404384927331e-03 -2.0072037349779248e+00 0 0 0
213 2 1.8366701114665791e+00 1.8393641618647532e+00 1.7898300365090782e+00 0 0 0
214 2 1.8306965856925757e+00 -4.3571518848284474e-02 -3.0507568454019317e-02 0 0 0
215 3 3.5479631753531558e+00 5.3016747302294231e-03 1.9186905746711846e+00 0 0 0
216 5 3.5318822041757989e+00 1.8213774750696710e+00 -4.6524593047140798e-03 0 0 0
117 3 5.3495943030232844e+00 -1.8424014853521185e+00 -1.8792666071387034e+00 0 0 0
197 5 5.4689732692957014e+00 -1.9619514245384857e+00 1.8200656189406372e+00 0 0 0
200 3 7.2781649648156357e+00 -2.1015640501271156e+00 6.6923458550767166e-03 0 0 0
137 2 5.3804548646736912e+00 1.7564878164532218e+00 -1.9212008153819362e+00 0 0 0
139 3 7.2587188202220272e+00 -1.2020435057362974e-01 -1.7872492516758145e+00 0 0 0
217 5 5.4630632825445113e+00 1.9323627334822850e+00 1.7793529521859115e+00 0 0 0
218 3 5.4345313143174634e+00 -4.1679044499380494e-02 -9.2756399556766025e-02 0 0 0
219 1 7.2051821764195871e+00 -9.3637058032507384e-03 1.8524183798949325e+00 0 0 0
220 2 7.1958581636495254e+00 1.8663613340178771e+00 -9.8532649836641246e-03 0 0 0
141 1 -9.1097729363726216e+00 5.4200296505339578e+00 -1.8421406914946461e+00 0 0 0
143 4 -7.3460980813029355e+00 3.6013409561407728e+00 -1.7268806830573635e+00 0 0 0
221 4 9.0802462535914774e+00 5.4031699590373670e+00 1.8159414541919676e+00 -1 0 0
222 1 9.0976812005296654e+00 3.6783853378733506e+00 -3.9351700300738431e-02 -1 0 0
223 4 -7.2962900844147747e+00 3.6147955991647631e+00 1.7209391256691677e+00 0 0 0
224 1 -7.2304101719635323e+00 5.4508441459814474e+00 -8.9923159160395519e-02 0 0 0
145 1 -5.5384563320418518e+00 5.3944937376951705e+00 -1.7292355602428202e+00 0 0 0
225 1 -5.5382891972858461e+00 5.4776309625278508e+00 1.7850434853647463e+00 0 0 0
226 5 -5.5803448670521618e+00 3.5557896428719200e+00 -2.2547076760935546e-02 0 0 0
147 4 -3.6476001101940190e+00 3.7492650701302255e+00 -1.9289895637949690e+00 0 0 0
227 3 -3.8162548797088536e+00 3.6732599632582947e+00 1.6714895246792383e+00 0 0 0
228 2 -3.7531357245892623e+00 5.4090584356372187e+00 1.2939444226440127e-02 0 0 0
149 4 -1.8828226186086943e+00 5.5161430442713657e+00 -1.7660301842263422e+00 0 0 0
151 2 -1.2884846496427205e-01 3.7818765960178786e+00 -1.7577170270773010e+00 0 0 0
229 2 -1.9858048415104228e+00 5.4652560952095675e+00 1.8377525646909894e+00 0 0 0
230 5 -1.8557386272973493e+00 3.7463438437452981e+00 1.3496084894455407e-01 0 0 0
231 3 5.9469312631435872e-02 3.8870642071368664e+00 1.7158090694570587e+00 0 0 0
232 1 -4.4179673151487679e-02 5.4240379673478367e+00 3.2973216422157323e-02 0 0 0
153 5 1.7368654539352717e+00 5.5622863174709467e+00 -1.7930921455254836e+00 0 0 0
155 1 3.6992536962443894e+00 3.7608251894012259e+00 -1.9531465843208393e+00 0 0 0
233 1 1.7570393476127033e+00 5.4699115460434848e+00 1.6791493847098677e+00 0 0 0
234 4 1.7938884910418751e+00 3.6921615746464074e+00 -7.5266491259737001e-02 0 0 0
235 1 3.5387731900095942e+00 3.5333212206922053e+00 1.6919245770141940e+00 0 0 0
236 4 3.6471471926522447e+00 5.5159756519097973e+00 -5.0423549418837005e-02 0 0 0
157 1 5.4036118925468122e+00 5.3881147678426125e+00 -1.7856517654039645e+00 0 0 0
159 4 7.3125561815481577e+00 3.5979794572774861e+00 -1.9152590531019380e+00 0 0 0
237 4 5.4469042275235022e+00 5.4017279117488082e+00 1.7835377974827165e+00 0 0 0
238 4 5.4747017278223744e+00 3.5480931041474495e+00 -7.5821110617166440e-02 0 0 0
239 1 7.2336033165123013e+00 3.6566069230269673e+00 1.7726366273976999e+00 0 0 0
240 1 7.3430305238367577e+00 5.4589214035054443e+00 -5.5138429066330083e-02 0 0 0
241 1 -9.0637661171933992e+00 -5.4372599412969160e+00 5.4944644040768154e+00 0 0 0
242 5 -9.0335927681606503e+00 -7.2611694002973604e+00 3.6867748689654434e+00 0 0 0
243 2 -7.2099059670686838e+00 -7.2884194899846335e+00 5.5106777218494223e+00 0 0 0
244 3 -7.2559233447543630e+00 -5.4953371320222137e+00 3.6723622730131327e+00 0 0 0
262 4 -9.0354800997452358e+00 -3.5811604383585935e+00 3.6711060057962444e+00 0 0 0
263 1 -7.4052775826240564e+00 -3.7640567603305914e+00 5.4821013245153329e+00 0 0 0
245 3 -5.4192444027571058e+00 -5.3894871319638096e+00 5.5411154885629417e+00 0 0 0
246 5 -5.5467579641792959e+00 -7.2479253205178837e+00 3.6420099951534017e+00 0 0 0
266 5 -5.6398363378498431e+00 -3.5906979004167066e+00 3.6801273659778309e+00 0 0 0
247 3 -3.7882532981847774e+00 7.1879328442619697e+00 5.6436631021893575e+00 0 -1 0
248 3 -3.8776976350073427e+00 -5.4460192472457880e+00 3.6065908514815588e+00 0 0 0
267 2 -3.6875012865377896e+00 -3.6372335288314157e+00 5.5008987058989787e+00 0 0 0
249 5 -2.0127831206131690e+00 -5.5795601574797624e+00 5.5488530229248463e+00 0 0 0
250 3 -1.8647928185351808e+00 -7.2582441323319706e+00 3.6350983437131195e+00 0 0 0
251 3 1.5033396961438306e-01 -7.1509434758575150e+00 5.6472568562565755e+00 0 0 0
252 3 -9.3427172136123060e-02 -5.3843798641178058e+00 3.6674595507356931e+00 0 0 0
270 3 -1.9680297839236989e+00 -3.7123331275303371e+00 3.6513588187716630e+00 0 0 0
271 3 4.4252935043388376e-02 -3.7174081175990836e+00 5.6001958988244294e+00 0 0 0
253 3 2.0569161156077476e+00 -5.4681303262933483e+00 5.4808967327890556e+00 0 0 0
254 2 1.6183766282771690e+00 -7.2601501878735855e+00 3.6881922878902209e+00 0 0 0
255 4 3.5751115454272173e+00 7.2673608643112884e+00 5.3800917718152101e+00 0 -1 0
256 2 3.7028667086857308e+00 -5.4779224751108186e+00 3.5619419358581861e+00 0 0 0
274 2 1.7790050748750188e+00 -3.7281052037070488e+00 3.5671393876844171e+00 0 0 0
275 4 3.7629427406179694e+00 -3.7422827403809111e+00 5.3344895739692140e+00 0 0 0
257 1 5.4747942620923302e+00 -5.5512018776284400e+00 5.4566615025301433e+00 0 0 0
258 5 5.4910036113286997e+00 -7.1601098388423381e+00 3.6835782552345839e+00 0 0 0
259 4 7.4788822672149688e+00 7.2592499004061786e+00 5.3501053593139449e+00 0 -1 0
260 2 7.3782533311099741e+00 -5.4557425577655527e+00 3.6952863041501538e+00 0 0 0
278 5 5.6393472450092972e+00 -3.7568159850638216e+00 3.7226750550689021e+00 0 0 0
279 1 7.3138892126739048e+00 -3.5958931217436993e+00 5.5914260529382434e+00 0 0 0
261 2 -9.0101756068267349e+00 -1.6772036941922048e+00 5.4072369256963420e+00 0 0 0
264 1 -7.3132732709039781e+00 -1.8851555106080504e+00 3.6499538741980939e+00 0 0 0
281 1 -9.0700136705849150e+00 1.9025129856717926e+00 5.4448603363006791e+00 0 0 0
282 4 -9.0653954493611639e+00 -1.5695991082121247e-01 3.4447804831339317e+00 0 0 0
283 1 -7.3163291043050203e+00 1.5931013926846121e-01 5.3793167024136181e+00 0 0 0
284 4 -7.4140100445549448e+00 1.7583828306498472e+00 3.5404582157345197e+00 0 0 0
265 1 -5.5400863086862779e+00 -1.8525841555351890e+00 5.4745693895061818e+00 0 0 0
285 4 -5.5860088453413095e+00 1.8719489150162028e+00 5.4718001792750837e+00 0 0 0
286 4 -5.5243685250085424e+00 2.4190107636430355e-02 3.7306076013313643e+00 0 0 0
268 5 -3.7711539359018693e+00 -1.8331948975460064e+00 3.7526830279648098e+00 0 0 0
287 3 -3.7132385345238168e+00 5.7112802424945430e-02 5.5080573761651204e+00 0 0 0
288 3 -3.7649701529331128e+00 1.9227843258170076e+00 3.8093285192971269e+00 0 0 0
269 3 -1.8189000712968835e+00 -1.9526490218721724e+00 5.7281971286040143e+00 0 0 0
272 3 -1.1421059141097707e-01 -1.7296879298424199e+00 3.7239963087769685e+00 0 0 0
289 5 -1.6052660467777353e+00 1.7655492143633174e+00 5.6473554597643076e+00 0 0 0
290 3 -1.8158438713945275e+00 2.6277822011173606e-02 3.6455414991468360e+00 0 0 0
291 5 2.2695001796571426e-01 -2.5437983502748836e-02 5.5124687217435895e+00 0 0 0
292 5 1.6646278148299906e-01 1.7448614237697326e+00 3.4433305746223604e+00 0 0 0
273 5 1.9391266154130111e+00 -1.9288273189212171e+00 5.5087504156127665e+00 0 0 0
276 2 3.4727445413426659e+00 -1.8422246714737027e+00 3.7375961505048028e+00 0 0 0
293 2 1.9653414349572349e+00 1.8585603631379684e+00 5.5014903330951332e+00 0 0 0
294 2 1.7818379997881579e+00 9.0366281641298216e-02 3.7230843193380339e+00 0 0 0
295 5 3.6328438553938329e+00 -1.2557904546931748e-02 5.3029480106918747e+00 0 0 0
296 3 3.5891162248665638e+00 1.9334785823084333e+00 3.4634899339161920e+00 0 0 0
277 1 5.4425302402356692e+00 -1.8304967791067948e+00 5.4215810616578235e+00 0 0 0
280 4 7.3395371041187980e+00 -1.9307235530768472e+00 3.5692698393156941e+00 0 0 0
297 4 5.4368114854821119e+00 1.8908917233632803e+00 5.4251745161888447e+00 0 0 0
298 4 5.4788603882345495e+00 8.2872340899238801e-03 3.5884909149283173e+00 0 0 0
299 1 7.2234930358322575e+00 -3.8914425446330073e-02 5.3569781953358140e+00 0 0 0
300 1 7.1601596812149406e+00 1.7699138320140608e+00 3.5920781930497236e+00 0 0 0
301 2 9.0577485864767322e+00 5.4580314564020656e+00 5.3742673424395315e+00 -1 0 0
302 4 9.0220173312036884e+00 3.6681895434440071e+00 3.6499276758769668e+00 -1 0 0
303 1 -7.4544729732129422e+00 3.7393344770111101e+00 5.3743227059049348e+00 0 0 0
304 2 -7.2980187166588752e+00 5.5401810488254295e+00 3.5239823443097973e+00 0 0 0
305 2 -5.5214784349094197e+00 5.3844148491834920e+00 5.3811719840176577e+00 0 0 0
306 4 -5.7265260219835854e+00 3.6325822389574189e+00 3.5863712075941550e+00 0 0 0
307 2 -3.6654484447732281e+00 3.6879141712033956e+00 5.6273707940643627e+00 0 0 0
308 5 -3.8497864104671584e+00 5.3327604666540349e+00 3.5919500406750897e+00 0 0 0
309 3 -1.8780554049151956e+00 5.5235808027294482e+00 5.3890075749895772e+00 0 0 0
310 3 -1.8657076655916214e+00 3.6213375661519391e+00 3.5799268300761615e+00 0 0 0
311 3 6.3075289516407687e-02 3.4483624172001037e+00 5.5156581772047648e+00 0 0 0
312 5 2.7140624361400779e-02 5.4062225423695169e+00 3.7614436176744341e+00 0 0 0
313 2 1.7728947647986257e+00 5.4485347138104814e+00 5.4746834767557147e+00 0 0 0
314 1 1.7079390255961135e+00 3.6689752459411982e+00 3.6301534140139862e+00 0 0 0
315 1 3.7583076541598621e+00 3.6606518270735551e+00 5.4215077348080545e+00 0 0 0
316 4 3.5584591031803314e+00 5.3122089192243962e+00 3.5600770305773128e+00 0 0 0
317 4 5.5752418894576019e+00 5.4952179831713659e+00 5.5278967449743748e+00 0 0 0
318 1 5.5867157370891496e+00 3.6907330003616972e+00 3.6305229189507062e+00 0 0 0
319 4 7.2720598310614672e+00 3.6136617292088293e+00 5.4912400093830414e+00 0 0 0
320 1 7.4066005860127770e+00 5.5027970029739670e+00 3.4975287399534598e+00 0 0 0

Velocities

1 3.3267992745301184e-01 3.4566646659835163e+00 3.1004139796513264e+00
2 -1.0728073927976277e-01 1.3785191386202875e+00 1.3997491358237271e+00
3 2.0495996434879968e+00 2.2368984210734300e+00 -7.4097783308324916e-01
4 -2.7341390960314387e+00 -7.5076340084632459e-02 -3.3421044226924961e+00
82 2.4478541009650701e+00 2.9021376835319459e+00 1.0743990965397552e+00
84 8.2473950668677191e-03 2.0377789853126385e+00 -1.7184316968397504e+00
22 3.3611098258520857e+00 -1.8399095984278926e+00 -2.0974109939558909e+00
23 -1.4599417888876970e-01 6.1760481386195532e-01 2.7835642518476327e+00
102 -2.4347347646158388e+00 1.1462488894542915e+00 -1.1305837364160337e-01
5 -2.6802794104616323e-01 -3.3037873975431244e+00 2.1765536567600122e-01
6 -1.8027527996996289e+00 -3.6746970097131415e-01 -9.4558411674881715e-01
86 -1.6653800753774828e+00 -3.3116764284735982e+00 3.2228442653076272e+00
26 -2.8235844885262487e+00 -2.8092365192611140e+00 -2.9995213702240240e+00
106 -1.7391657127448104e+00 -1.1486781280045764e+00 2.5534309060497291e+00
7 -2.8852658396090956e+00 1.3160908909470651e-01 1.6731664489896168e+00
8 -3.7326566093206337e-01 5.2114092324751693e-01 5.0090864874109919e-01
88 2.8903336406284383e+00 -4.8971016458057193e-01 -1.5622261113305402e+00
27 3.7847446022726844e-01 -2.8394797779504852e+00 2.5647930602979629e+00
9 1.2464306738541657e+00 -2.7873911751333340e+00 5.5647152004814882e-01
10 2.5760381203517366e+00 -1.1256751490673200e+00 3.4594979994324579e+00
11 -7.2493422281953060e-02 -3.2530911662513069e+00 -2.6405002288596675e+00
12 -1.9274582123190592e-02 -3.5124791091175576e+00 -1.2433707450789124e+00
90 -5.1481419829958475e-01 2.5999707795600129e+00 5.2741301428007037e-01
92 1.8601104472636427e+00 -1.3361178065647152e+00 2.0633380020805747e+00
30 1.9607212897892401e+00 -3.2463454003690120e+00 2.0545512604343958e+00
31 -3.5923335605318423e+00 -2.4670244909627752e+00 1.5521383244569127e+00
110 2.2965563233525761e+00 -1.4340371599848691e+00 1.9695885842314893e+00
13 -3.7437133224191381e+00 -2.4082078289127939e+00 1.7471848330547533e+00
14 -2.5632677358770333e+00 -3.2332743653296978e+00 7.5116950854446518e-01
15 -2.2702138503217961e+00 3.3621042842735132e+00 3.1931844118312638e+00
16 -2.9725398522310291e+00 3.3795554818772784e+00 -1.6172128430426209e+00
94 9.8790608511160083e-01 3.1574205297394742e+00 2.8671790939365138e+00
96 -5.9911665440553830e-01 8.5062612103773461e-01 -9.2722636473351594e-01
34 2.8857215914038772e+00 8.6057389991885125e-01 -1.5199823886649373e+00
35 -1.9516158355604618e-01 -1.0516758090995233e+00 -7.9901550044328906e-01
114 5.2936656504520063e-01 -8.4309992915740195e-01 -8.5182987627723317e-01
17 1.5516599077664572e+00 -2.5146559935902402e+00 -2.6694744484525210e+00
18 3.1914140945826306e+00 2.8932687044427920e+00 -3.4218799239771847e+00
19 6.0888376671487367e-02 4.8475847070262068e-01 -3.3437202677332833e+00