LAMMPS data file via write_data, version 22 Dec 2022, timestep = 20000

18041 atoms
1 atom types

-25.02565653449798 25.02565653449798 xlo xhi
-0.051313068995959554 100.05131306899673 ylo yhi
-25.02565653449798 25.02565653449798 zlo zhi

Masses

1 58.71

Atoms # atomic

236 1 -12.806912108306365 2.6363809265624667 -21.673198391318323 0 0 0
234 1 -10.850409536074402 1.1079620085910824 -21.839619352684423 0 0 0
238 1 -9.140778220693242 0.6789469389240947 -23.61105692202603 0 0 0
17 1 -7.356954119846314 2.590283692786932 -23.424327062705565 0 0 0
269 1 -9.17297595617498 2.664768238101696 -21.79278780829839 0 0 0
241 1 -7.544640446725314 0.8200039522870645 -21.735880042800513 0 0 0
2 1 -5.612431301753524 0.86959933259799 -23.402975397919793 0 0 0
7 1 -3.7450677108735704 2.4391602909435766 -23.464332013786777 0 0 0
273 1 -5.565286047336038 2.6551472589164193 -21.82117999113579 0 0 0
242 1 -3.6407389922594433 0.8090123594437991 -21.738657504096185 0 0 0
246 1 -1.8496733979891644 2.492177258591653 -21.889887326993954 0 0 0
6 1 -1.884453438858504 0.7186672219186203 -23.58862896858275 0 0 0
5 1 -0.023834874938131634 2.3012121896532007 -23.536162425582486 0 0 0
9843 1 -0.0744668761518561 0.8311678001131442 -21.781945647029993 0 1 0
9 1 3.5804835805516326 2.3966162460130715 -23.685757075553663 0 0 0
11 1 1.7420856460121783 2.50051765243924 -21.922182379019773 0 0 0
8 1 1.6648048244944107 0.5264406799656653 -23.7415495840389 0 0 0
10 1 3.623107747006948 0.7463548242807634 -21.949266305996762 0 0 0
13 1 5.53441044754722 0.5587171076769548 -23.794745860701248 0 0 0
285 1 5.5274653773190146 2.3751567644249802 -22.071178684912176 0 0 0
266 1 -10.97628688445018 4.292221855466853 -21.770166068668182 0 0 0
268 1 -12.75566870178898 6.016001070252359 -21.919880083492703 0 0 0
270 1 -7.310791797225335 4.460325363235477 -21.762528810473704 0 0 0
301 1 -9.239494976470407 5.947844434619495 -21.938244444920045 0 0 0
33 1 -7.38685241504119 6.145282437158936 -23.694261243232884 0 0 0
18 1 -5.637664019502001 4.1769701974357085 -23.507839977281428 0 0 0
274 1 -5.619074017204234 6.147241662807342 -21.825226720128825 0 0 0
23 1 -3.9951119968452637 6.057220718316509 -23.666825620512153 0 0 0
277 1 -3.7834124318615814 4.168165367882052 -21.762401967931297 0 0 0
22 1 -1.9669861910846222 4.2516002380475015 -23.512418602287042 0 0 0
21 1 -0.060241993863890286 5.86406668187591 -23.80414285358126 0 0 0
278 1 -1.8616693514947258 5.9355527549803835 -21.87172981147272 0 0 0
281 1 -0.07043690406349157 4.249929874057065 -21.964361063310097 0 0 0
24 1 1.791571277537038 4.185367201426419 -23.56919708816908 0 0 0
26 1 3.5745978683155144 4.178007758273557 -22.178965980305417 0 0 0
27 1 1.826714054099778 5.965249476259414 -22.047202682143162 0 0 0
30 1 3.6274096825082225 5.791807109678284 -23.835000451063326 0 0 0
14 1 5.460649664850827 4.03917625018564 -23.892804043225546 0 0 0
286 1 5.427382689651729 6.327809686476293 -22.215003368065627 0 0 0
16 1 6.890020546546381 4.629437010810181 -22.12048456665086 0 0 0
47 1 8.417945380481687 6.568248506144984 -22.32843732060743 0 0 0
298 1 -10.791913375840213 8.017105879476153 -21.943259828994446 0 0 0
331 1 -11.169522695288647 10.519072084283197 -21.512630079137598 0 0 0
302 1 -8.928673516738797 9.485597284519288 -21.82942788927675 0 0 0
305 1 -7.308943868987782 7.712283229479123 -21.654742468472307 0 0 0
35 1 -7.568603116531893 8.858411642776469 -23.92583050987489 0 0 0
34 1 -5.560321349241818 7.696896295431408 -23.630640014854364 0 0 0
306 1 -5.631756097112184 9.443122936622407 -21.813087260844874 0 0 0
309 1 -3.749962150598183 7.6113277946868605 -21.808453969897798 0 0 0
39 1 -3.7823330055439435 9.388335283763578 -23.572530608041035 0 0 0
38 1 -0.028036430230237386 7.649975052713607 -21.920990512690963 0 0 0
36 1 -1.9323574924507163 7.531523449577951 -23.71931488973823 0 0 0
310 1 -1.8607116416302318 9.378487192673612 -21.954541403027527 0 0 0
40 1 -0.21099773270742261 9.42312926333832 -23.73958163732759 0 0 0
25 1 1.780871854861008 7.575151305519319 -23.702815519909382 0 0 0
44 1 3.3639701564727673 9.468785298412653 -23.93396093022752 0 0 0
43 1 1.6900776759043126 9.626988205410909 -22.052043080004758 0 0 0
42 1 3.4369830557370022 7.888641056310308 -22.0725792197617 0 0 0
32 1 6.894851560775045 8.268425537638459 -22.508893455315828 0 0 0
28 1 5.011280374447541 7.76804054917388 -23.898449552800802 0 0 0
45 1 5.084957382124955 9.6778843424604 -22.105818168301937 0 0 0
4636 1 -3.767754239014323 14.291520926005429 -0.06880597833585611 0 0 0
48 1 7.353922593435211 10.632466115281334 -22.863087350310472 0 0 0
333 1 -11.022778328750402 12.273946434842614 -23.502030206679496 0 0 0
330 1 -12.357051386577961 14.224050792294008 -23.698555268765727 0 0 0
336 1 -10.925946565707576 14.284335538059878 -21.65334065956073 0 0 0
49 1 -9.371275140828606 10.723991038973296 -23.900405344747764 0 0 0
337 1 -7.355794942698836 11.128400650882286 -21.83216528976926 0 0 0
51 1 -7.760858782042106 12.591049541811334 -23.60098691546368 0 0 0
340 1 -7.546557629026601 13.864106902204261 -21.62805741485698 0 0 0
50 1 -5.708991750267941 11.058158727502214 -23.758988115745343 0 0 0
338 1 -5.5537730626120805 12.78904534912486 -21.912899250433526 0 0 0
55 1 -3.8582028101641086 12.82314140455556 -23.66657492600403 0 0 0
341 1 -3.8116701637794357 11.08006811310103 -21.808200734164252 0 0 0
54 1 -2.0508620841199274 11.059207808940332 -23.612421698088713 0 0 0
70 1 -2.1086961418608325 12.81097392294748 -21.904725694282398 0 0 0
72 1 -0.1832227040828016 12.7446714389612 -23.632064226960303 0 0 0
59 1 -0.15253310272346 11.168193457561758 -21.812571156464017 0 0 0
58 1 3.330625257776319 11.3815984572463 -21.952903394330505 0 0 0
41 1 1.520022346974784 11.228901237681779 -23.841794553427977 0 0 0
74 1 1.4715856492836679 12.806675442478824 -21.937657231769805 0 0 0
57 1 3.3898133719145243 12.721929787795554 -23.812691628048988 0 0 0
61 1 5.445996675474301 12.026725404528579 -23.055150654229546 0 0 0
63 1 10.18433281519098 11.603010321367721 -22.812429693301766 0 0 0
64 1 8.781860011938601 13.897007652049028 -23.063814889716078 0 0 0
365 1 -11.025906100400567 16.12017554216625 -23.42764963247185 0 0 0
362 1 -12.93239008478386 17.78957751877592 -23.404388744764333 0 0 0
334 1 -9.531413490143956 14.322107330534084 -23.648983979367166 0 0 0
369 1 -7.5604449746722295 15.934703877939585 -23.33191289908237 0 0 0
367 1 -9.255037690350992 15.953433686793023 -21.661315372920555 0 0 0
66 1 -5.830183644408347 14.43082473825758 -23.521369294318394 0 0 0
82 1 -5.76902355928846 17.634312859358293 -23.266298627419438 0 0 0
71 1 -3.8498946559476117 14.615235422884519 -21.82909599229766 0 0 0
84 1 -3.8762535760074535 16.230956803894117 -23.532620861713387 0 0 0
405 1 -4.141803254688959 17.554764537081965 -21.48138732567679 0 0 0
370 1 -5.921358582243002 15.689700658801264 -21.50713635260992 0 0 0
69 1 -2.088676598313892 14.440747271000713 -23.627985471481267 0 0 0
86 1 -2.125804407765223 16.265781165793797 -21.861580877998318 0 0 0
75 1 -0.25168744641429797 14.555287315518118 -21.974829659456613 0 0 0
88 1 -0.17632472275010258 16.126718381343906 -23.63129599812366 0 0 0
85 1 -2.005187535748412 17.7903252643887 -23.529383465455084 0 0 0
91 1 -0.1224144860631462 17.69956441721011 -21.734705366490594 0 0 0
78 1 3.3423333276131366 14.315750589904125 -21.960497784397134 0 0 0
73 1 1.5726414440094345 14.487912610644656 -23.607657100784195 0 0 0
90 1 1.8524430215017844 16.14298961535428 -21.697170742612865 0 0 0
413 1 3.5981651287635117 17.77554714527358 -21.524265252098772 0 0 0
94 1 3.389054898732894 16.092006380216166 -23.46350782820391 0 0 0
62 1 5.255088546742446 14.267913007725943 -23.468939874152415 0 0 0
93 1 5.347116097164573 17.583729670807333 -23.273271662522635 0 0 0
77 1 7.06624720147499 15.846109953124984 -23.34995587775538 0 0 0
417 1 6.943701853644605 17.607007437931962 -21.36401008059172 0 0 0
382 1 5.187007402809794 15.782121533270542 -21.518965554363586 0 0 0
79 1 10.22607781571006 15.897437975487152 -22.998374911480354 0 0 0
80 1 8.807978063095899 17.620270488831245 -23.070295561758126 0 0 0
390 1 13.813283842391275 17.614624804518424 -21.124032060371565 0 0 0
394 1 -12.716125819961063 21.267898380610152 -23.22391058204599 0 0 0
397 1 -11.087955540361765 19.31372472626033 -23.268990917808665 0 0 0
429 1 -10.980483344177348 21.32904533469817 -21.334500587675116 0 0 0
395 1 -12.702210922407156 19.479401696835215 -21.398142887435558 0 0 0
366 1 -9.113981365334267 17.76412545535163 -23.353105951371692 0 0 0
97 1 -9.257305637677598 21.19141456873016 -23.14913962295263 0 0 0
83 1 -7.4529077964455865 19.51639477647373 -23.382424733753254 0 0 0
433 1 -7.427753232910703 21.07529298475085 -21.401164774135587 0 0 0
4723 1 22.91496746918514 19.640777367081 -0.02778240482462735 0 0 0
98 1 -5.649264487890964 21.11115033188438 -23.391853405288 0 0 0
87 1 -3.9255193855464974 19.39247173559173 -23.35522176868598 0 0 0
402 1 -5.687503163954673 19.488400716598125 -21.536262802458708 0 0 0
437 1 -3.8622921200658737 21.058705483062685 -21.425474673502176 0 0 0
104 1 -0.11775121314995118 19.451701227177566 -23.345028910116675 0 0 0
102 1 -1.9633373878835556 21.12856997641375 -23.256945277027842 0 0 0
441 1 -0.26937446135801935 21.05055987891712 -21.375618991261547 0 0 0
4613 1 -23.400665567453782 16.21988700775357 -0.04991761917028725 0 0 0
89 1 1.7089851751394605 17.869803552848694 -23.57838898708184 0 0 0
106 1 1.5433001263861073 21.089980153880095 -23.262828511031223 0 0 0
445 1 3.4171300176429966 21.162095332592198 -21.396816363737308 0 0 0
108 1 3.5070964200855173 19.455248672628212 -23.264858354012848 0 0 0
410 1 1.7282313886886342 19.346469207831717 -21.56219639471448 0 0 0
2036 1 8.96379412700151 0.0017691733054618908 -8.015669509330426 0 0 0
109 1 5.289283365705625 21.197453432992045 -23.243032178239176 0 0 0
96 1 7.016496848540815 19.368014085439377 -23.24780870393859 0 0 0
449 1 7.022587568583521 21.25412817061875 -21.32349637028047 0 0 0
95 1 10.431050108097669 19.31992830184104 -23.015846388686363 0 0 0
111 1 8.6370408409223 21.15218732026447 -23.132463325553843 0 0 0
453 1 10.582865780274357 21.049076384249254 -21.54467552191325 0 0 0
418 1 8.660969983359347 19.29845439192578 -21.309339266100437 0 0 0
422 1 13.672782233424325 21.095029605529362 -21.438959586057432 0 0 0
421 1 12.338890803368582 19.333037512514583 -21.360564832416337 0 0 0
113 1 -11.051235702337463 22.80436015880907 -23.44640553902693 0 0 0
115 1 -9.040239646125274 24.683236650712225 -23.26434253273964 0 0 0
99 1 -7.234643994976267 22.915487786717737 -23.191114220484714 0 0 0
465 1 -7.330609577081425 24.529787909147394 -21.380593941752025 0 0 0
114 1 -5.517274781727085 24.67251092267193 -23.179807493834595 0 0 0
103 1 -3.8545949903584464 22.746652325915402 -23.210771143869792 0 0 0
434 1 -5.4899909459016705 22.806244326155596 -21.355326819707834 0 0 0
469 1 -3.8428010157011308 24.6338549408039 -21.239425737675713 0 0 0
118 1 -2.159306166241805 24.70045861945082 -23.15786769763547 0 0 0
107 1 -0.2710815195497318 22.891644029464576 -23.152159811542656 0 0 0
438 1 -1.9831311075170923 22.648342566037453 -21.41228107778412 0 0 0
473 1 -0.3138177300154368 24.542562109332778 -21.406170070544004 0 0 0
1351 1 19.48071994357348 0.1515252305996446 -11.764906559223439 0 0 0
122 1 1.5619868020627337 24.550531973293218 -23.312905652398076 0 0 0
110 1 3.3707962067801525 22.772672583738892 -23.264603606929928 0 0 0
442 1 1.5326407680199559 22.831993709878756 -21.54800840852375 0 0 0
477 1 3.3202852041004114 24.584439670677195 -21.416856530628962 0 0 0
2040 1 12.242607710865872 -0.007550910022160906 -8.034706203330114 0 0 0
125 1 4.971393045149693 24.651968762525787 -23.369732749762775 0 0 0
112 1 6.894504934382422 22.887937616515977 -23.3945273682024 0 0 0
446 1 5.146560303249981 22.836324643141477 -21.318188217140914 0 0 0
191 1 7.027995354845121 38.63158653151739 -24.88814075060833 0 0 0
127 1 8.422789977665222 24.839559385272516 -23.233807617465246 0 0 0
485 1 10.325560840876879 24.895475150062005 -21.512750630454057 0 0 0
454 1 12.014775849960902 22.888349848102493 -21.17854013786127 0 0 0
129 1 -8.916482096715207 27.991215240001075 -23.215818812721597 0 0 0
130 1 -7.0922970316051135 26.39970480117587 -23.113723062493293 0 0 0
462 1 -9.005120598732333 26.364373427400558 -21.45145337372141 0 0 0
497 1 -7.367137337119143 28.194370013693362 -21.325150700232395 0 0 0
135 1 -5.556232734032921 28.14851932431732 -23.004054723135006 0 0 0
119 1 -3.937703799883174 26.33317731519025 -23.204296827322143 0 0 0
501 1 -3.8262553796548033 28.120197714372768 -21.358584101952193 0 0 0
134 1 -2.0490429460989397 28.094429915284213 -23.130433866710604 0 0 0
123 1 -0.4207492284090826 26.286611189934195 -23.17113554763357 0 0 0
470 1 -2.057886266094375 26.2100501886043 -21.27249047730818 0 0 0
505 1 -0.3844987954422443 28.074483284614868 -21.347272987079737 0 0 0
2046 1 17.52541629039634 0.061160964671290285 -9.873768709072664 0 0 0
126 1 3.260656890629594 26.375015612495755 -23.162127375087522 0 0 0
138 1 1.4266370540102962 28.162803484205764 -23.16325057748304 0 0 0
509 1 3.28728092234196 28.134520303339155 -21.511109039330922 0 0 0
474 1 1.6634676367809718 26.221733561462823 -21.391458593718923 0 0 0
4838 1 21.219084140179195 24.83604830559096 -0.09600025158767522 0 0 0
4348 1 21.16584729700926 47.43232883023212 -1.8591641683544573 0 0 0
141 1 4.9499164058417655 28.147244477831688 -23.33698009154897 0 0 0
128 1 6.623306486248641 26.465426479706387 -23.25923832751307 0 0 0
478 1 5.07041760835234 26.489087547137874 -21.435364285537393 0 0 0
143 1 8.814035866147261 27.923965186241958 -23.323880418633703 0 0 0
482 1 8.54420746138467 26.439872503512166 -21.399307148997305 0 0 0
517 1 10.288987743661618 28.2663095434307 -21.448545008965038 0 0 0
486 1 12.15402603019552 26.582969476917206 -21.27795215020582 0 0 0
145 1 -9.220600168305843 31.71376607719175 -23.2445599681454 0 0 0
131 1 -7.45129257585636 30.022318859854355 -23.24461676136918 0 0 0
146 1 -5.7665788507839295 31.78474699197657 -23.16685483651488 0 0 0
133 1 -3.816726259845751 29.784201420016213 -23.1390614638617 0 0 0
533 1 -4.025215979282656 31.60165487074543 -21.412038717829137 0 0 0
2794 1 10.692156244627267 0.04860496236440781 -6.273644128989652 0 0 0
150 1 -2.100045271141841 31.559852663478466 -23.20580027945416 0 0 0
139 1 -0.32613554183602034 29.911077388439452 -23.200705848900782 0 0 0
537 1 -0.2432977560419758 31.629232395713434 -21.49791021982466 0 0 0
502 1 -2.0721012736629056 29.93449222909994 -21.41419177663503 0 0 0
2798 1 13.978227042070383 0.0815894397952415 -6.342260766891609 0 0 0
4376 1 19.596834016741443 49.23688088410415 -1.7406900169569646 0 0 0
154 1 1.4793509714545863 31.595277426278294 -23.05433573889801 0 0 0
142 1 3.204039821044322 29.82772631185465 -23.19615146355556 0 0 0
541 1 3.318859408878474 31.52232366134904 -21.352906609815108 0 0 0
506 1 1.3791039865043153 29.770525211302882 -21.383232826273442 0 0 0
4338 1 15.912857597200887 47.51312976209958 -3.6442352045502027 0 0 0
4344 1 17.705375241617528 47.39418815539314 -1.7334459140771123 0 0 0
144 1 6.825574988455731 29.784907970908073 -23.260927028516914 0 0 0
157 1 4.958910383644273 31.62890674999225 -23.31035529354274 0 0 0
510 1 5.101695189362445 29.82694559950173 -21.3730120339154 0 0 0
545 1 6.829338928068012 31.640248223364992 -21.47673131566715 0 0 0
159 1 8.499644189526823 31.617101874968622 -23.17174719861385 0 0 0
549 1 10.253704421735218 31.670121772460412 -21.4390781419599 0 0 0
557 1 -10.995180733304927 35.28950354224027 -21.362513755682883 0 0 0
522 1 -12.813219819746918 33.35240477212657 -21.454234430297127 0 0 0
526 1 -10.92842921101123 33.637665642314715 -23.160011263981932 0 0 0
561 1 -9.09181097294431 35.25247099269425 -23.239030423387256 0 0 0
530 1 -7.563710401451004 33.3958483215148 -23.26909615708835 0 0 0
1129 1 -7.581422916931519 35.35021879405892 -21.364196380347554 0 0 0
4690 1 -7.446986458499328 17.787382081465573 -0.16013961759581363 0 0 0
700 1 -16.587587002826737 0.019593185614837694 -15.786460003636169 0 0 0
151 1 -3.9523836352908717 33.485609211519964 -23.218284248690104 0 0 0
565 1 -5.818887543414636 35.254835876952704 -23.273699479483938 0 0 0
563 1 -5.748314289745789 33.556482816979255 -21.564071014521666 0 0 0
155 1 -2.2953308455925487 35.24345000339765 -23.179005117697706 0 0 0
152 1 -0.37655526980212883 33.517150421615284 -23.144867432414916 0 0 0
569 1 -0.5205362343420532 35.10439688493439 -21.37967084895442 0 0 0
534 1 -2.2828240701798386 33.371431996013634 -21.284680266409968 0 0 0
4374 1 15.986065723011041 49.11421484524514 -1.6423566330161954 0 0 0
153 1 1.3910680375489584 35.25882142759238 -23.039057008256528 0 0 0
158 1 3.1435801055718926 33.278286763734066 -23.1949832255329 0 0 0
538 1 1.4007981852836693 33.52696186419891 -21.377795487121183 0 0 0
4678 1 -18.15453057411196 17.82278591576986 -0.04483240672713151 0 0 0
173 1 4.972541711571861 35.17445838051673 -23.198706380811235 0 0 0
542 1 5.224886417284967 33.49456847083467 -21.537803717812285 0 0 0
160 1 6.657484127476888 33.34908180696062 -23.53851634860943 0 0 0
577 1 6.896506343980729 35.173420529953475 -21.470037710883286 0 0 0
581 1 10.340019326509509 35.02496626403922 -21.454811870551207 0 0 0
546 1 8.50935820985514 33.25713807998834 -21.43776749288121 0 0 0
562 1 -7.647182063037096 37.15933698221637 -23.195145005053785 0 0 0
591 1 -9.230975412370071 38.86653385775234 -23.24154884188978 0 0 0
5067 1 19.41908271916279 40.50164446209433 -0.02042720685492938 0 0 0
4864 1 -7.260069024251951 28.37517762026495 -0.025377502582752953 0 0 0
166 1 -4.121964679770979 36.962773036820714 -23.178192570766015 0 0 0
167 1 -5.7420858428229025 38.801309727447276 -23.19415416130559 0 0 0
9162 1 -5.769718337361159 37.10096044438062 -24.98085042603583 0 0 1
564 1 -5.842956410038742 36.8727845955214 -21.29567750135726 0 0 0
597 1 -3.8587824912766635 38.601049376300594 -21.44390275243819 0 0 0
180 1 -3.852756195010773 38.741799061684475 -24.926755543868307 0 0 0
2044 1 15.896943526078818 0.057686953373533925 -8.073661989857257 0 0 0
165 1 -2.1508890254515585 38.513942540908424 -23.23421292203943 0 0 0
168 1 -0.4476037860242492 36.93939635465273 -23.24652603639295 0 0 0
9164 1 -0.4718406677174407 38.73040720078989 -24.84789550878688 0 0 1
169 1 1.3515608298755026 38.756358148082946 -23.254820377956275 0 0 0
172 1 3.196692258022228 36.96660702006722 -23.042647598993145 0 0 0
4375 1 17.670235460738656 49.129690097007355 -3.5341386845796876 0 0 0
170 1 1.2797274766504074 37.02820297220733 -21.339446891173495 0 0 0
232 1 5.22599547906087 47.57916712551273 -25.016919921351114 0 0 0
4371 1 10.565337338806682 49.15773043706878 -3.7163586516683687 0 0 0
574 1 5.175537165193944 36.975252072558405 -21.399670687926807 0 0 0
609 1 6.843069539150829 38.7398794668318 -21.716003397980682 0 0 0
176 1 4.990934055346788 36.84694836650436 -24.92316430859311 0 0 0
2792 1 8.834630118545928 0.14864226752651363 -4.509349110947841 0 0 0
613 1 10.281790128615267 38.684219032011875 -21.376899915145675 0 0 0
177 1 -9.219158966931294 42.17193086764253 -23.320925390955214 0 0 0
593 1 -7.43485479743978 40.63233229453315 -23.198055452625418 0 0 0
590 1 -9.109168467453824 40.684241729092946 -21.43389240185999 0 0 0
9163 1 -2.0717400835029487 40.44905846916916 -24.88340850967578 0 0 1
596 1 -7.42376232827559 42.34030438255843 -21.4755971960458 0 0 0
2050 1 21.019979203208717 0.12604635707226813 -9.768637591854484 0 0 0
594 1 -5.697838198073089 42.27274867838349 -23.20166689022546 0 0 0
183 1 -3.928909816991066 40.48631492715227 -23.181413117532006 0 0 0
196 1 -3.9264649110662653 42.30177173713412 -24.968778970827547 0 0 0
181 1 -2.149191790551452 42.356112142307445 -23.2276810464762 0 0 0
184 1 -0.29085948053335287 40.654305235465635 -23.155913114148248 0 0 0
136 1 -0.32637016316315126 28.063586509191374 -24.97755490692695 0 0 0
185 1 1.3828454322841708 42.219004831632674 -23.12997663459604 0 0 0
188 1 3.2624303512576383 40.492159012191834 -23.237300064165854 0 0 0
190 1 3.1787507056116873 42.25792436370343 -21.538318909431503 0 0 0
3555 1 -9.805305109431872 -0.04967617034895223 -5.086400264742796 0 0 0
207 1 5.084542311771454 42.304798236158845 -23.257977447377822 0 0 0
641 1 6.7485175702768 42.4176994020245 -21.55668338042363 0 0 0
189 1 5.024091202577434 40.351268181579606 -21.432759920315 0 0 0
610 1 8.530774907675312 40.43452662351025 -21.481013321152705 0 0 0
614 1 11.915580386629909 40.42952598181217 -21.609117415384226 0 0 0
645 1 10.28880694292096 42.2780313620368 -21.403984584382364 0 0 0
618 1 -12.69339150045523 44.18501415892496 -21.153683503278025 0 0 0
193 1 -9.159629281075825 45.90034442336462 -23.279920528457225 0 0 0
195 1 -7.556144162243125 44.17658277954278 -23.198893620368697 0 0 0
625 1 -9.234082544416461 44.06490849410824 -21.42164920282554 0 0 0
657 1 -7.477441339852479 45.930701634109305 -21.409474572379594 0 0 0
192 1 5.184322591310941 40.11693283826045 -24.588577685931963 0 0 0
210 1 -5.675454192384748 45.65923698489499 -23.184451513910297 0 0 0
199 1 -3.921758592779767 44.05448849781408 -23.174376619643034 0 0 0
2051 1 22.95468535961017 0.15016884043238513 -8.300921473467117 0 0 0
9158 1 -2.169685038969323 36.92268578164523 -25.002339409671205 0 0 1
197 1 -2.1826673612319425 45.71790721313338 -23.164674024046793 0 0 0
200 1 -0.3725487018543454 44.024554380336596 -23.217024044982676 0 0 0
198 1 -2.0833079033380315 43.995378600023834 -21.31178601843927 0 0 0
4372 1 12.385218961467974 49.210741893852244 -1.749858074533659 0 0 0
9160 1 1.4407628088807876 36.955960236142744 -24.769823954190787 0 0 1
9170 1 1.4986228776513038 43.984524186564805 -24.884350628737433 0 0 1
201 1 1.5639209006656287 45.857377070152864 -23.045589692804583 0 0 0
204 1 3.290864260168771 44.02818332330013 -23.216305420867627 0 0 0
206 1 3.3849587834767725 45.90494181761569 -21.517212677972076 0 0 0
202 1 1.5208877863368642 44.11744097023231 -21.354323847344308 0 0 0
4334 1 12.252263726588634 47.499469069549846 -3.4460305980184955 0 0 0
5117 1 12.243180434621433 43.98973313338265 -0.06391503611137495 0 0 0
208 1 5.159498198666103 45.85602113879617 -23.21281391434892 0 0 0
223 1 6.666488916109003 44.079074805968915 -23.195663891766472 0 0 0
205 1 5.0339919361713505 44.0438462535678 -21.340183899294964 0 0 0
673 1 6.791314209563694 45.697342522708176 -21.39981611360186 0 0 0
9090 1 6.862673694330088 45.84607441828548 -25.00441118747212 0 0 1
642 1 8.50757912569583 44.09520550081267 -21.58545901816275 0 0 0
646 1 11.837733482345467 44.06329547020324 -21.87076326073841 0 0 0
683 1 -10.941891133849358 49.47875053570827 -21.255867507441494 0 0 0
225 1 -9.354408851375462 49.41240154121756 -23.101171639054414 0 0 0
211 1 -7.586921861015885 47.56381295607133 -23.31553501897254 0 0 0
654 1 -9.419417008647667 47.62414350235808 -21.56618159333791 0 0 0
149 1 -2.1849774257324093 33.58206116019922 -24.84638157316949 0 0 0
215 1 -5.667991978262492 49.42173853184479 -23.191147761380325 0 0 0
214 1 -3.9600954946902576 47.56218954198333 -23.078168445401296 0 0 0
219 1 -2.0156673259033795 49.362938628223965 -23.264067663347326 0 0 0
216 1 -0.35112306106314506 47.4105155164367 -23.207977833853572 0 0 0
4848 1 -21.6220424910639 28.482380988452974 -0.10372736330151966 0 0 0
217 1 1.4874016287723464 49.31896724804064 -23.161104190983004 0 0 0
220 1 3.326738402557126 47.5833389507064 -23.172040603895553 0 0 0
4340 1 14.110003393682188 47.43579358400935 -1.5828945778207952 0 0 0
9175 1 1.4853835870718477 47.53997533559558 -24.88950767183743 0 0 1
233 1 7.151946292804968 49.19093432286523 -24.97466596551339 0 0 0
224 1 6.969966216401726 47.47010315542199 -23.23488841053964 0 0 0
9186 1 5.254157360673442 49.31170343571866 -23.254288019676476 0 0 0
221 1 5.298662392488129 47.66244234280223 -21.43001537361273 0 0 0
693 1 6.987226226859082 49.33388816854075 -21.497771296667203 0 0 0
674 1 8.367750217545467 47.472538674924266 -21.379101614228684 0 0 0
695 1 10.344614346621665 49.30523581846443 -21.44854118382807 0 0 0
698 1 -14.17985402806178 2.6264743576233327 -19.784800529954293 0 0 0
704 1 -14.150588104416665 1.1543842106759807 -18.030556383370815 0 0 0
702 1 -12.49412251431524 0.8865207584107896 -20.099521125592737 0 0 0
745 1 -12.45399849375054 2.8558358082017694 -18.027307071704293 0 0 0
267 1 -10.856577853884792 2.686642780101598 -19.987490127438313 0 0 0
708 1 -10.85549993341865 0.9853678055512929 -18.118403627929016 0 0 0
240 1 -9.26762762111546 0.9903109819835827 -19.996768763028022 0 0 0
747 1 -8.988226679779292 2.663841154519146 -18.24006754220019 0 0 0
271 1 -7.381159857187431 2.621426407141939 -20.087313281016407 0 0 0
706 1 -7.214283480302026 1.0046616732707627 -18.108643352739765 0 0 0
244 1 -5.477042959807047 0.9076961936229292 -20.004951045385603 0 0 0
275 1 -3.788674638894122 2.706441625187228 -19.957383417196656 0 0 0
751 1 -5.543501119982164 2.6398206648641636 -18.184395112371558 0 0 0
710 1 -3.6661516466408166 1.0823431988758732 -18.07465418336571 0 0 0
248 1 -1.757897515066233 1.0435477436849614 -20.029007948215344 0 0 0
755 1 -1.8808572283315748 2.7081495266611575 -18.18295804904682 0 0 0
252 1 -0.047377201675772085 2.7339913239499243 -20.14597856641761 0 0 0
714 1 0.13747067068796426 1.2090016657988045 -18.371330396829077 0 0 0
250 1 3.585555780053788 2.7168527173436345 -20.28713419375075 0 0 0
249 1 1.8221211004133266 0.9109045286424893 -20.06157643689044 0 0 0
718 1 1.8631511248185788 2.794138559051232 -18.359735159653006 0 0 0
256 1 3.5456206091094984 0.751270183486904 -18.402187172186245 0 0 0
254 1 5.1578284524319145 0.7419245022740869 -20.15204895719312 0 0 0
260 1 6.9078569861748385 0.9613536293400338 -18.502678444087987 0 0 0
287 1 5.128675819656529 2.779637251336322 -18.60727298552352 0 0 0
31 1 7.018038460985334 2.712017400947823 -20.32542190795396 0 0 0
258 1 8.76875951757091 0.8218088936280796 -20.353547863012217 0 0 0
293 1 10.513459534348971 2.691523687949448 -20.50463276005533 0 0 0
291 1 8.78354606341728 2.6772902611282703 -18.70102264697725 0 0 0
264 1 10.496012082591694 0.8806296178988089 -18.66699744141748 0 0 0
262 1 12.283488249068082 1.1856148220745697 -20.473078368450526 0 0 0
295 1 12.386495871229773 2.844670452840502 -18.827817395173177 0 0 0
265 1 14.120705261882943 1.1360565615903884 -18.71769136637628 0 0 0
740 1 -14.893122982631198 5.437088690302529 -19.506374188853314 0 0 0
781 1 -16.198639862549413 7.2013729338389485 -19.401679862287963 0 0 0
743 1 -12.723259926498168 4.417268943152328 -20.038256297162576 0 0 0
744 1 -10.733211710799386 4.6544353641147485 -18.26846386624564 0 0 0
299 1 -10.832214418559527 6.1610335400073755 -20.20088451985766 0 0 0
272 1 -9.087089142173093 4.371810776981456 -19.96990719111207 0 0 0
789 1 -9.054546010741944 6.408078224153441 -18.23127067853061 0 0 0
748 1 -7.28167697133831 4.2906403979991365 -18.261636959789325 0 0 0
303 1 -7.459508545709038 6.059661680822317 -19.885589089238447 0 0 0
276 1 -5.5859092313193734 4.362874935385215 -20.067426059205687 0 0 0
280 1 -3.729946204450844 6.035703848315414 -19.949101157166957 0 0 0
793 1 -5.646618673856398 6.049829693519457 -18.212638170953728 0 0 0
752 1 -3.841535327302527 4.448625817568791 -18.174139635573006 0 0 0
279 1 -1.931875589949282 4.280055618443717 -20.10977592509042 0 0 0
756 1 -1.8582750022902026 6.030278623111178 -18.34710023625143 0 0 0
759 1 -0.11375027960574258 4.369320492779729 -18.316312488678225 0 0 0
284 1 -0.05318096586618282 5.985794659986973 -20.160405075889415 0 0 0
283 1 1.8770539479725024 4.432632674646678 -20.203160967910456 0 0 0
282 1 3.6211588513197306 6.189688387341594 -20.344936578811556 0 0 0
315 1 1.8198622711819503 6.238733560893765 -18.42411731709053 0 0 0
288 1 3.638399921929526 4.614825449843208 -18.643268623358978 0 0 0
289 1 5.391164629254217 4.422264572274355 -20.409618390093115 0 0 0
319 1 5.41687285576986 6.509312086281283 -18.60360546568554 0 0 0
321 1 7.11517676172819 6.47882820086031 -20.297257202663502 0 0 0
292 1 6.986699070666642 4.527850039372759 -18.812112809706115 0 0 0
290 1 8.760106022612934 4.4875192092757255 -20.47789605165159 0 0 0
296 1 10.656883642624916 4.7093664643291016 -18.80591439117828 0 0 0
323 1 8.816904109336026 6.516177779707473 -18.716443067682757 0 0 0
325 1 10.457345015447157 6.579879153508114 -20.83042231134495 0 0 0
294 1 12.101710349528144 4.770654917175484 -20.69693171181271 0 0 0
297 1 13.858800196020486 4.9906511154247815 -19.174867555406802 0 0 0
327 1 12.230974675778757 6.702895860057325 -19.159107571123 0 0 0
782 1 -14.514853418336074 9.002767028366819 -19.689720631843493 0 0 0
823 1 -16.100087638227194 10.87343519438512 -19.756150524840443 0 0 0
785 1 -13.033905764676831 6.8914198466483345 -19.55904691944519 0 0 0
300 1 -12.824753501033094 8.855820548354059 -21.26969854048955 0 0 0
786 1 -11.28912631752843 8.66438530133552 -19.586043311583 0 0 0
827 1 -12.79702972838601 10.76377107657269 -19.79658991143351 0 0 0
304 1 -9.206713378146626 7.931889255893165 -20.018544077763476 0 0 0
831 1 -9.524963390503185 10.497638837915233 -19.671485189983066 0 0 0
790 1 -7.347855956650836 8.02954024023469 -18.152377627565137 0 0 0
308 1 -7.2507935732149384 9.617865890269966 -20.01584761757351 0 0 0
307 1 -5.374175421936059 7.700746698760268 -20.004539893864102 0 0 0
794 1 -5.465188050102263 9.580636191948075 -18.314922012110827 0 0 0
797 1 -3.7143437688960077 7.705080093839673 -18.203156955634338 0 0 0
312 1 -3.7199980173490417 9.403106835653121 -20.07530446375945 0 0 0
311 1 -1.9789386581778068 7.713285090782284 -20.141849987804353 0 0 0
343 1 -1.9619983133553909 9.46741318282392 -18.402009522786038 0 0 0
345 1 -0.07677038641362799 9.367919914166492 -20.191865611793972 0 0 0
316 1 -0.08722522387081 7.791239709546117 -18.51247145263006 0 0 0
313 1 1.6962360434814663 7.79179646221352 -20.32672998127194 0 0 0
347 1 1.6145001660803509 9.526611426940882 -18.419077164255413 0 0 0
314 1 3.344746602325504 9.7688502062525 -20.17515125150435 0 0 0