LAMMPS data file via write_data, version 22 Dec 2022, timestep = 57

26 atoms
2 atom types

0.033190189833643066 7.555353810166351 xlo xhi
0.033190189833643066 7.555353810166351 ylo yhi
0.033190189833643066 7.555353810166351 zlo zhi

Masses

1 26.982
2 183.85

Atoms # atomic

5 1 0.03319018983364869 2.3216281138873134 1.4106920494373796 0 0 0
9 1 2.3216281138873094 1.41069204943739 0.0331901898336478 0 0 0
11 1 1.410692049437395 0.033190189833651754 2.3216281138873263 0 0 0
25 2 0.033190189833681584 0.033190189833726486 0.03319018983366637 0 0 0
10 1 2.41677014039624 3.794271999999993 1.5058340759463031 0 0 0
1 1 1.410692049437405 0.03319018983365163 5.266915886112661 0 0 0
4 1 1.5058340759463205 2.4167701403962454 3.7942719999999985 0 0 0
20 1 0.03319018983364834 2.3216281138873227 6.177851950562617 0 0 0
12 1 2.416770140396242 3.7942719999999936 6.0827099240536935 0 0 0
26 2 3.7942719999999963 3.794271999999935 3.7942720000000048 0 0 0
7 1 0.03319018983364868 5.26691588611264 1.4106920494374215 0 0 0
14 1 2.32162811388735 6.177851950562602 0.033190189833647056 0 0 0
18 1 1.5058340759462874 5.171773859603756 3.7942719999999994 0 0 0
15 1 0.03319018983364887 5.266915886112631 6.177851950562576 0 0 0
3 1 3.7942719999999985 1.5058340759463194 2.416770140396259 0 0 0
6 1 5.266915886112669 1.4106920494374058 0.03319018983364763 0 0 0
24 1 6.177851950562601 0.03319018983365156 2.321628113887343 0 0 0
13 1 5.171773859603756 3.7942719999999936 1.5058340759463 0 0 0
2 1 6.082709924053678 2.416770140396242 3.7942719999999994 0 0 0
19 1 3.7942719999999985 1.5058340759463213 5.1717738596037375 0 0 0
22 1 6.177851950562589 0.0331901898336518 5.266915886112644 0 0 0
23 1 5.171773859603755 3.7942719999999936 6.082709924053696 0 0 0
8 1 3.7942719999999985 6.082709924053713 2.416770140396224 0 0 0
16 1 5.266915886112627 6.177851950562585 0.03319018983364771 0 0 0
17 1 3.7942719999999994 6.082709924053711 5.171773859603775 0 0 0
21 1 6.082709924053713 5.17177385960376 3.7942719999999994 0 0 0

Velocities

5 0 0 0
9 0 0 0
11 0 0 0
25 0 0 0
10 0 0 0
1 0 0 0
4 0 0 0
20 0 0 0
12 0 0 0
26 0 0 0
7 0 0 0
14 0 0 0
18 0 0 0
15 0 0 0
3 0 0 0
6 0 0 0
24 0 0 0
13 0 0 0
2 0 0 0
19 0 0 0
22 0 0 0
23 0 0 0
8 0 0 0
16 0 0 0
17 0 0 0
21 0 0 0
