LAMMPS data file via write_data, version 22 Dec 2022, timestep = 36

32 atoms
3 atom types

0.010429752533145275 7.285570247466856 xlo xhi
0.010429752533145275 7.285570247466856 ylo yhi
0.010429752533145275 7.285570247466856 zlo zhi

Masses

1 58.933
2 26.982
3 183.85

Atoms # atomic

11 1 1.7672303735591144 3.6479999999999984 1.7672303735591144 0 0 0
21 1 3.6479999999999984 1.7672303735591146 1.7672303735591142 0 0 0
2 1 1.7672303735591146 1.7672303735591146 3.6479999999999984 0 0 0
32 3 3.6479999999999984 3.6479999999999984 3.6479999999999984 0 0 0
12 1 1.7672303735591142 3.6479999999999984 5.528769626440884 0 0 0
22 1 3.6479999999999984 1.7672303735591144 5.528769626440884 0 0 0
1 1 1.7985732423523197 1.7985732423523197 7.285570247466854 0 0 -1
31 3 3.6479999999999984 3.6479999999999984 7.285570247466854 0 0 -1
9 1 1.7985732423523197 7.285570247466854 1.79857324235232 0 -1 0
23 1 3.6479999999999984 5.5287696264408845 1.7672303735591144 0 0 0
4 1 1.7672303735591146 5.5287696264408845 3.6479999999999984 0 0 0
30 3 3.6479999999999984 7.285570247466855 3.6479999999999984 0 -1 0
10 1 1.7985732423523197 7.285570247466854 5.497426757647678 0 -1 0
24 1 3.6479999999999984 5.5287696264408845 5.528769626440884 0 0 0
3 1 1.7985732423523197 5.497426757647678 7.285570247466854 0 0 -1
29 2 3.6479999999999984 7.285570247466854 7.285570247466854 0 -1 -1
15 1 5.528769626440884 3.6479999999999984 1.7672303735591144 0 0 0
17 1 7.285570247466854 1.7985732423523197 1.7985732423523197 -1 0 0
6 1 5.528769626440884 1.7672303735591146 3.6479999999999984 0 0 0
28 3 7.285570247466854 3.6479999999999984 3.6479999999999984 -1 0 0
16 1 5.5287696264408845 3.6479999999999984 5.5287696264408845 0 0 0
18 1 7.285570247466854 1.7985732423523197 5.497426757647678 -1 0 0
5 1 5.497426757647678 1.7985732423523197 7.285570247466854 0 0 -1
27 2 7.285570247466854 3.6479999999999984 7.285570247466854 -1 0 -1
13 1 5.497426757647678 7.285570247466854 1.7985732423523197 0 -1 0
19 1 7.285570247466854 5.497426757647678 1.7985732423523197 -1 0 0
8 1 5.5287696264408845 5.5287696264408845 3.6479999999999984 0 0 0
26 2 7.285570247466854 7.285570247466854 3.6479999999999984 -1 -1 0
14 1 5.497426757647676 7.285570247466854 5.497426757647678 0 -1 0
20 1 7.285570247466854 5.497426757647678 5.497426757647676 -1 0 0
7 1 5.497426757647678 5.497426757647678 7.285570247466854 0 0 -1
25 2 7.285570247466854 7.285570247466854 7.285570247466854 -1 -1 -1

Velocities

11 0 0 0
21 0 0 0
2 0 0 0
32 0 0 0
12 0 0 0
22 0 0 0
1 0 0 0
31 0 0 0
9 0 0 0
23 0 0 0
4 0 0 0
30 0 0 0
10 0 0 0
24 0 0 0
3 0 0 0
29 0 0 0
15 0 0 0
17 0 0 0
6 0 0 0
28 0 0 0
16 0 0 0
18 0 0 0
5 0 0 0
27 0 0 0
13 0 0 0
19 0 0 0
8 0 0 0
26 0 0 0
14 0 0 0
20 0 0 0
7 0 0 0
25 0 0 0
