LAMMPS (22 Dec 2022)
  using 1 OpenMP thread(s) per MPI task
Loaded 1 plugins from C:\Program Files\LAMMPS 64-bit 23Jun2022\plugins
Loaded 0 plugins from C:\Program Files\LAMMPS 64-bit 23Jun2022-MPI\plugins
Loaded 1 plugins from C:\Program Files\LAMMPS 64-bit 22Dec2022-MSMPI\plugins
Loaded 1 plugins from C:\Program Files\LAMMPS 64-bit 28Mar2023-MPI\plugins
# Compute elastic constant tensor for a crystal
#
# Written by Aidan Thompson (Sandia, athomps@sandia.gov)
#
#  This script uses the following three include files.
#
#   init.mod      (must be modified for different crystal structures)
# 	       	  Define units, deformation parameters and initial
#		  configuration of the atoms and simulation cell.
#
#
#   potential.mod    (must be modified for different pair styles)
# 		     Define pair style and other attributes
#		     not stored in restart file
#
#
#   displace.mod    (displace.mod should not need to be modified)
# 		    Perform positive and negative box displacements
# 		    in direction ${dir} and size ${up}.
# 		    It uses the resultant changes
#		    in stress to compute one
# 		    row of the elastic stiffness tensor
#
#		    Inputs variables:
#		    	   dir = the Voigt deformation component
#		    		    (1,2,3,4,5,6)
#		    Global constants:
#       	    	   up = the deformation magnitude (strain units)
#       		   cfac = conversion from LAMMPS pressure units to
#               	   output units for elastic constants
#
#
#  To run this on a different system, it should only be necessary to
#  modify the files init.mod and potential.mod. In order to calculate
#  the elastic constants correctly, care must be taken to specify
#  the correct units in init.mod (units, cfac and cunits). It is also
#  important to verify that the minimization of energy w.r.t atom
#  positions in the deformed cell is fully converged.
#  One indication of this is that the elastic constants are insensitive
#  to the choice of the variable ${up} in init.mod. Another is to check
#  the final max and two-norm forces reported in the log file. If you know
#  that minimization is not required, you can set maxiter = 0.0 in
#  init.mod.
#

include init.mod
# NOTE: This script can be modified for different atomic structures,
# units, etc. See in.elastic for more info.
#

# Define the finite deformation size. Try several values of this
# variable to verify that results do not depend on it.
variable up equal 1.0e-6

# Define the amount of random jiggle for atoms
# This prevents atoms from staying on saddle points
variable atomjiggle equal 1.0e-5

# Uncomment one of these blocks, depending on what units
# you are using in LAMMPS and for output

# metal units, elastic constants in eV/A^3
#units		metal
#variable cfac equal 6.2414e-7
#variable cunits string eV/A^3

# metal units, elastic constants in GPa
units		metal
variable cfac equal 1.0e-4
variable cunits string GPa

# real units, elastic constants in GPa
#units		real
#variable cfac equal 1.01325e-4
#variable cunits string GPa

# Define minimization parameters
variable etol equal 0.0
variable ftol equal 1.0e-10
variable maxiter equal 1000
variable maxeval equal 100000
variable dmax equal 1.0e-2

# generate the box and atom positions using a diamond lattice

dimension    3
boundary     p p p
read_data    data.in
Reading data file ...
  orthogonal box = (0.03319019 0.03319019 0.03319019) to (7.5553538 7.5553538 7.5553538)
  1 by 2 by 2 MPI processor grid
  reading atoms ...
  26 atoms
  reading velocities ...
  26 velocities
  read_data CPU = 0.001 seconds
#replicate    2 3 4
replicate    2 3 4
Replication is creating a 2x3x4 = 24 times larger system...
  orthogonal box = (0.03319019 0.03319019 0.03319019) to (15.077517 22.599681 30.121845)
  1 by 2 by 2 MPI processor grid
  624 atoms
  replicate CPU = 0.000 seconds
change_box   all triclinic
Changing box ...
  triclinic box = (0.03319019 0.03319019 0.03319019) to (15.077517 22.599681 30.121845) with tilt (0 0 0)

# Need to set mass to something, just to satisfy LAMMPS
mass 1 1.0e-20

include potential.mod
# NOTE: This script can be modified for different pair styles
# See in.elastic for more info.

# Choose potential
#-----------------------
#pair_style	sw
#pair_coeff * * Si.sw Si
#-----------------------
#pair_style morse	2.83994742	# D0[eV] a[1/A] r0[A] rc[A], 1NN for BCC
#pair_coeff 1 1	2.1173	1.0202	2.4595	2.6497	#	Fe-Fe
#-----------------------
#pair_style smatb # R0(A)   p       q     A(eV)   xi(eV)  Rcs(A)   Rc(A), 4NN: Rcs=4NN, Rc=(4NN+5NN)/2
#pair_coeff 1 1	2.4802	7.0149	2.3779	0.3144	3.0551	4.033	4.176	#	Co	Co
#-----------------------
#pair_style eam/alloy
#pair_coeff * * AlCrFeCoNi_Zhou04.eam.alloy Fe
#-----------------------
pair_style meam
#pair_coeff * * ./../../library.meam Co Al W ./../../CoAlW.meam Co Al
pair_coeff * * ./../../library.meam Co Al W ./../../CoAlW.meam Al W
#-----------------------

# Setup neighbor style
neighbor 1.0 nsq
neigh_modify once no every 1 delay 0 check yes

# Setup minimization style
min_style	     cg
min_modify	     dmax ${dmax} line quadratic
min_modify	     dmax 0.01 line quadratic

# Setup output
thermo		1
thermo_style custom step temp pe press pxx pyy pzz pxy pxz pyz lx ly lz vol
thermo_modify norm no

# Compute initial state
fix 3 all box/relax  aniso 0.0
minimize ${etol} ${ftol} ${maxiter} ${maxeval}
minimize 0 ${ftol} ${maxiter} ${maxeval}
minimize 0 1e-10 ${maxiter} ${maxeval}
minimize 0 1e-10 1000 ${maxeval}
minimize 0 1e-10 1000 100000
Neighbor list info ...
  update: every = 1 steps, delay = 0 steps, check = yes
  max neighbors/atom: 2000, page size: 100000
  master list distance cutoff = 5.5
  ghost atom cutoff = 5.5
  2 neighbor lists, perpetual/occasional/extra = 2 0 0
  (1) pair meam, perpetual
      attributes: full, newton on
      pair build: full/nsq
      stencil: none
      bin: none
  (2) pair meam, perpetual, half/full from (1)
      attributes: half, newton on
      pair build: halffull/newton
      stencil: none
      bin: none
Per MPI rank memory allocation (min/avg/max) = 9.951 | 9.962 | 9.974 Mbytes
   Step          Temp          PotEng         Press           Pxx            Pyy            Pzz            Pxy            Pxz            Pyz             Lx             Ly             Lz           Volume    
         0   0             -2533.5295      7.0319306e-09  7.0177678e-09  7.1196704e-09  6.9583537e-09 -6.1309771e-12 -2.779652e-11  -3.4562266e-11  15.044327      22.566491      30.088654      10215.028    
         1   0             -2533.5295     -1.343573e-05  -1.3430208e-05 -1.3469578e-05 -1.3407405e-05  4.6845851e-13  9.0293389e-12  2.0499396e-12  15.044327      22.566491      30.088654      10215.028    
         2   0             -2533.5295      1.3696139e-09  7.8389093e-09 -3.8503447e-08  3.477338e-08  -3.2020061e-11 -9.1504837e-12  4.8062742e-12  15.044327      22.566491      30.088654      10215.028    
         3   0             -2533.5295     -1.6321135e-09 -9.6824899e-08  5.8495501e-07 -4.9302645e-07 -1.6754721e-11  8.8313306e-12 -6.8224755e-12  15.044327      22.566491      30.088654      10215.028    
         4   0             -2533.5295      6.630963e-07   6.6501473e-07  6.7156917e-07  6.52705e-07    4.5325929e-11  2.2360919e-11  1.2469485e-11  15.044327      22.566491      30.088654      10215.028    
         5   0             -2533.5295     -5.7911984e-10  1.1623028e-09  2.7904461e-09 -5.6901084e-09  4.4283784e-11  2.9784085e-11  8.9322053e-12  15.044327      22.566491      30.088654      10215.028    
         6   0             -2533.5295      2.5395553e-10 -1.4314427e-08 -2.8190596e-08  4.326689e-08   2.3794115e-11  9.5871086e-12  2.9151152e-11  15.044327      22.566491      30.088654      10215.028    
         7   0             -2533.5295      4.2372125e-09  2.8019389e-09  8.9078071e-09  1.0018915e-09  2.1875455e-13 -1.2699463e-12  7.3018854e-12  15.044327      22.566491      30.088654      10215.028    
Loop time of 0.02283 on 4 procs for 7 steps with 624 atoms

34.2% CPU use with 4 MPI tasks x 1 OpenMP threads

Minimization stats:
  Stopping criterion = force tolerance
  Energy initial, next-to-last, final = 
     -2533.52954824086  -2533.52954824086  -2533.52954824086
  Force two-norm initial, final = 6.5983066e-09 6.8639685e-11
  Force max component initial, final = 2.3284958e-10 5.6793681e-11
  Final line search alpha, max atom move = 1 5.6793681e-11
  Iterations, force evaluations = 7 14

MPI task timing breakdown:
Section |  min time  |  avg time  |  max time  |%varavg| %total
---------------------------------------------------------------
Pair    | 0.019825   | 0.020729   | 0.021649   |   0.6 | 90.80
Neigh   | 0          | 0          | 0          |   0.0 |  0.00
Comm    | 0.000424   | 0.0014027  | 0.002249   |   2.3 |  6.14
Output  | 7.1e-05    | 7.375e-05  | 7.6e-05    |   0.0 |  0.32
Modify  | 0          | 0          | 0          |   0.0 |  0.00
Other   |            | 0.000625   |            |       |  2.74

Nlocal:            156 ave         176 max         136 min
Histogram: 2 0 0 0 0 0 0 0 0 2
Nghost:            795 ave         815 max         775 min
Histogram: 2 0 0 0 0 0 0 0 0 2
Neighs:           4032 ave        4530 max        3534 min
Histogram: 2 0 0 0 0 0 0 0 0 2
FullNghs:         8064 ave        9088 max        7040 min
Histogram: 2 0 0 0 0 0 0 0 0 2

Total # of neighbors = 32256
Ave neighs/atom = 51.692308
Neighbor list builds = 0
Dangerous builds = 0

variable tmp equal pxx
variable pxx0 equal ${tmp}
variable pxx0 equal 2.80193886173922e-09
variable tmp equal pyy
variable pyy0 equal ${tmp}
variable pyy0 equal 8.90780712332775e-09
variable tmp equal pzz
variable pzz0 equal ${tmp}
variable pzz0 equal 1.00189148052942e-09
variable tmp equal pyz
variable pyz0 equal ${tmp}
variable pyz0 equal 7.30188535845167e-12
variable tmp equal pxz
variable pxz0 equal ${tmp}
variable pxz0 equal -1.26994633940355e-12
variable tmp equal pxy
variable pxy0 equal ${tmp}
variable pxy0 equal 2.1875454887637e-13

variable tmp equal lx
variable lx0 equal ${tmp}
variable lx0 equal 15.0443272406408
variable tmp equal ly
variable ly0 equal ${tmp}
variable ly0 equal 22.5664908609611
variable tmp equal lz
variable lz0 equal ${tmp}
variable lz0 equal 30.0886544812817

# These formulas define the derivatives w.r.t. strain components
# Constants uses $, variables use v_
variable d1 equal -(v_pxx1-${pxx0})/(v_delta/v_len0)*${cfac}
variable d1 equal -(v_pxx1-2.80193886173922e-09)/(v_delta/v_len0)*${cfac}
variable d1 equal -(v_pxx1-2.80193886173922e-09)/(v_delta/v_len0)*0.0001
variable d2 equal -(v_pyy1-${pyy0})/(v_delta/v_len0)*${cfac}
variable d2 equal -(v_pyy1-8.90780712332775e-09)/(v_delta/v_len0)*${cfac}
variable d2 equal -(v_pyy1-8.90780712332775e-09)/(v_delta/v_len0)*0.0001
variable d3 equal -(v_pzz1-${pzz0})/(v_delta/v_len0)*${cfac}
variable d3 equal -(v_pzz1-1.00189148052942e-09)/(v_delta/v_len0)*${cfac}
variable d3 equal -(v_pzz1-1.00189148052942e-09)/(v_delta/v_len0)*0.0001
variable d4 equal -(v_pyz1-${pyz0})/(v_delta/v_len0)*${cfac}
variable d4 equal -(v_pyz1-7.30188535845167e-12)/(v_delta/v_len0)*${cfac}
variable d4 equal -(v_pyz1-7.30188535845167e-12)/(v_delta/v_len0)*0.0001
variable d5 equal -(v_pxz1-${pxz0})/(v_delta/v_len0)*${cfac}
variable d5 equal -(v_pxz1--1.26994633940355e-12)/(v_delta/v_len0)*${cfac}
variable d5 equal -(v_pxz1--1.26994633940355e-12)/(v_delta/v_len0)*0.0001
variable d6 equal -(v_pxy1-${pxy0})/(v_delta/v_len0)*${cfac}
variable d6 equal -(v_pxy1-2.1875454887637e-13)/(v_delta/v_len0)*${cfac}
variable d6 equal -(v_pxy1-2.1875454887637e-13)/(v_delta/v_len0)*0.0001

displace_atoms all random ${atomjiggle} ${atomjiggle} ${atomjiggle} 87287 units box
displace_atoms all random 1e-05 ${atomjiggle} ${atomjiggle} 87287 units box
displace_atoms all random 1e-05 1e-05 ${atomjiggle} 87287 units box
displace_atoms all random 1e-05 1e-05 1e-05 87287 units box
Displacing atoms ...

# Write restart
unfix 3
write_restart restart.equil
System init for write_restart ...

# uxx Perturbation

variable dir equal 1
include displace.mod
# NOTE: This script should not need to be
# modified. See in.elastic for more info.
#
# Find which reference length to use

if "${dir} == 1" then    "variable len0 equal ${lx0}"
variable len0 equal ${lx0}
variable len0 equal 15.0443272406408
if "${dir} == 2" then    "variable len0 equal ${ly0}"
if "${dir} == 3" then    "variable len0 equal ${lz0}"
if "${dir} == 4" then    "variable len0 equal ${lz0}"
if "${dir} == 5" then    "variable len0 equal ${lz0}"
if "${dir} == 6" then    "variable len0 equal ${ly0}"

# Reset box and simulation parameters

clear
  using 1 OpenMP thread(s) per MPI task
Loaded 1 plugins from C:\Program Files\LAMMPS 64-bit 23Jun2022\plugins
Loaded 0 plugins from C:\Program Files\LAMMPS 64-bit 23Jun2022-MPI\plugins
Loaded 1 plugins from C:\Program Files\LAMMPS 64-bit 22Dec2022-MSMPI\plugins
Loaded 1 plugins from C:\Program Files\LAMMPS 64-bit 28Mar2023-MPI\plugins
box tilt large

The 'box' command has been removed and will be ignored

read_restart restart.equil
Reading restart file ...
  restart file = 22 Dec 2022, LAMMPS = 22 Dec 2022
  restoring atom style atomic from restart
  triclinic box = (0.03319019 0.03319019 0.03319019) to (15.077517 22.599681 30.121845) with tilt (0 0 0)
  1 by 2 by 2 MPI processor grid
  pair style meam stores no restart info
  624 atoms
  read_restart CPU = 0.000 seconds
include potential.mod
# NOTE: This script can be modified for different pair styles
# See in.elastic for more info.

# Choose potential
#-----------------------
#pair_style	sw
#pair_coeff * * Si.sw Si
#-----------------------
#pair_style morse	2.83994742	# D0[eV] a[1/A] r0[A] rc[A], 1NN for BCC
#pair_coeff 1 1	2.1173	1.0202	2.4595	2.6497	#	Fe-Fe
#-----------------------
#pair_style smatb # R0(A)   p       q     A(eV)   xi(eV)  Rcs(A)   Rc(A), 4NN: Rcs=4NN, Rc=(4NN+5NN)/2
#pair_coeff 1 1	2.4802	7.0149	2.3779	0.3144	3.0551	4.033	4.176	#	Co	Co
#-----------------------
#pair_style eam/alloy
#pair_coeff * * AlCrFeCoNi_Zhou04.eam.alloy Fe
#-----------------------
pair_style meam
#pair_coeff * * ./../../library.meam Co Al W ./../../CoAlW.meam Co Al
pair_coeff * * ./../../library.meam Co Al W ./../../CoAlW.meam Al W
#-----------------------

# Setup neighbor style
neighbor 1.0 nsq
neigh_modify once no every 1 delay 0 check yes

# Setup minimization style
min_style	     cg
min_modify	     dmax ${dmax} line quadratic
min_modify	     dmax 0.01 line quadratic

# Setup output
thermo		1
thermo_style custom step temp pe press pxx pyy pzz pxy pxz pyz lx ly lz vol
thermo_modify norm no

# Negative deformation

variable delta equal -${up}*${len0}
variable delta equal -1e-06*${len0}
variable delta equal -1e-06*15.0443272406408
variable deltaxy equal -${up}*xy
variable deltaxy equal -1e-06*xy
variable deltaxz equal -${up}*xz
variable deltaxz equal -1e-06*xz
variable deltayz equal -${up}*yz
variable deltayz equal -1e-06*yz
if "${dir} == 1" then    "change_box all x delta 0 ${delta} xy delta ${deltaxy} xz delta ${deltaxz} remap units box"
change_box all x delta 0 ${delta} xy delta ${deltaxy} xz delta ${deltaxz} remap units box
change_box all x delta 0 -1.50443272406408e-05 xy delta ${deltaxy} xz delta ${deltaxz} remap units box
change_box all x delta 0 -1.50443272406408e-05 xy delta -0 xz delta ${deltaxz} remap units box
change_box all x delta 0 -1.50443272406408e-05 xy delta -0 xz delta -0 remap units box
Changing box ...
  triclinic box = (0.03319019 0.03319019 0.03319019) to (15.077502 22.599681 30.121845) with tilt (0 0 0)
  triclinic box = (0.03319019 0.03319019 0.03319019) to (15.077502 22.599681 30.121845) with tilt (0 0 0)
  triclinic box = (0.03319019 0.03319019 0.03319019) to (15.077502 22.599681 30.121845) with tilt (0 0 0)
if "${dir} == 2" then    "change_box all y delta 0 ${delta} yz delta ${deltayz} remap units box"
if "${dir} == 3" then    "change_box all z delta 0 ${delta} remap units box"
if "${dir} == 4" then    "change_box all yz delta ${delta} remap units box"
if "${dir} == 5" then    "change_box all xz delta ${delta} remap units box"
if "${dir} == 6" then    "change_box all xy delta ${delta} remap units box"

# Relax atoms positions

minimize ${etol} ${ftol} ${maxiter} ${maxeval}
minimize 0 ${ftol} ${maxiter} ${maxeval}
minimize 0 1e-10 ${maxiter} ${maxeval}
minimize 0 1e-10 1000 ${maxeval}
minimize 0 1e-10 1000 100000
Neighbor list info ...
  update: every = 1 steps, delay = 0 steps, check = yes
  max neighbors/atom: 2000, page size: 100000
  master list distance cutoff = 5.5
  ghost atom cutoff = 5.5
  2 neighbor lists, perpetual/occasional/extra = 2 0 0
  (1) pair meam, perpetual
      attributes: full, newton on
      pair build: full/nsq
      stencil: none
      bin: none
  (2) pair meam, perpetual, half/full from (1)
      attributes: half, newton on
      pair build: halffull/newton
      stencil: none
      bin: none
Per MPI rank memory allocation (min/avg/max) = 9.935 | 9.939 | 9.944 Mbytes
   Step          Temp          PotEng         Press           Pxx            Pyy            Pzz            Pxy            Pxz            Pyz             Lx             Ly             Lz           Volume    
         7   0             -2533.5295      1.1134753      1.8222769      0.76271049     0.75543847     0.029508857   -0.022505884    0.0029166459   15.044312      22.566491      30.088654      10215.018    
         8   0             -2533.5295      0.87281062     1.4919915      0.57120808     0.55523232     0.010101252   -0.0058450388   0.007840175    15.044312      22.566491      30.088654      10215.018    
         9   0             -2533.5295      0.8087221      1.350052       0.54577264     0.53034169    -0.0029823131   0.0037349945   0.0071585617   15.044312      22.566491      30.088654      10215.018    
        10   0             -2533.5295      0.88919095     1.3757264      0.64731854     0.64452788    -0.0037633349   0.0017187624  -2.7989295e-05  15.044312      22.566491      30.088654      10215.018    
        11   0             -2533.5295      0.80785138     1.270669       0.57576235     0.57712279     0.00026380652 -0.0006355186  -0.00055350168  15.044312      22.566491      30.088654      10215.018    
        12   0             -2533.5295      0.81998247     1.2764584      0.59099475     0.59249422     0.0012037115  -0.00059652632  0.00031308919  15.044312      22.566491      30.088654      10215.018    
        13   0             -2533.5295      0.84518715     1.3023257      0.61625621     0.61697949     0.00064665464  0.00014161728  0.00083119529  15.044312      22.566491      30.088654      10215.018    
        14   0             -2533.5295      0.81659524     1.2811089      0.58419003     0.58448683    -0.00043132599  0.00018032006 -0.00039125337  15.044312      22.566491      30.088654      10215.018    
        15   0             -2533.5295      0.83462147     1.3026003      0.60071774     0.60054642    -0.00025099201 -0.00014767212 -0.00066398321  15.044312      22.566491      30.088654      10215.018    
        16   0             -2533.5295      0.83547326     1.3038058      0.60149869     0.60111527     1.9881736e-05 -0.00014956626 -0.00025662574  15.044312      22.566491      30.088654      10215.018    
        17   0             -2533.5295      0.82624869     1.2933591      0.59285381     0.59253312     0.00017728637  5.6132116e-05  0.00038079275  15.044312      22.566491      30.088654      10215.018    
        18   0             -2533.5295      0.83403536     1.2996784      0.60117794     0.6012497     -2.0637887e-05  7.9502478e-05  0.00016933163  15.044312      22.566491      30.088654      10215.018    
        19   0             -2533.5295      0.83081594     1.295746       0.59827986     0.59842198    -7.4352941e-05 -3.0909276e-05 -0.0001329959   15.044312      22.566491      30.088654      10215.018    
        20   0             -2533.5295      0.82949094     1.2943563      0.59700822     0.59710829    -2.6128141e-05 -4.6081901e-05 -0.00011844747  15.044312      22.566491      30.088654      10215.018    
        21   0             -2533.5295      0.83147501     1.2969149      0.5987501      0.59876005     7.4069593e-05  2.5420637e-05  0.00012836714  15.044312      22.566491      30.088654      10215.018    
        22   0             -2533.5295      0.82996183     1.2961778      0.59686543     0.59684229     9.9777945e-06  6.962886e-06   1.0936744e-05  15.044312      22.566491      30.088654      10215.018    
        23   0             -2533.5295      0.83082129     1.2970496      0.59774206     0.59767219    -4.8161629e-05 -2.6252968e-05 -0.00012039576  15.044312      22.566491      30.088654      10215.018    
        24   0             -2533.5295      0.83132621     1.2973448      0.59835196     0.59828189    -4.936531e-05  -2.2913628e-05 -0.00010990043  15.044312      22.566491      30.088654      10215.018    
        25   0             -2533.5295      0.83067094     1.2963147      0.59784022     0.59785791     2.1924702e-05  2.3526402e-05  7.5566055e-05  15.044312      22.566491      30.088654      10215.018    
        26   0             -2533.5295      0.83130012     1.2967605      0.59854128     0.5985986      3.6402652e-05  6.9694936e-06  6.5789401e-05  15.044312      22.566491      30.088654      10215.018    
        27   0             -2533.5295      0.8308813      1.2964065      0.59810885     0.59812852    -3.5491216e-06 -1.1976557e-05 -2.1127139e-05  15.044312      22.566491      30.088654      10215.018    
        28   0             -2533.5295      0.83063751     1.2963255      0.59779796     0.59778906    -2.4560338e-05 -7.1744804e-06 -4.0424662e-05  15.044312      22.566491      30.088654      10215.018    
        29   0             -2533.5295      0.83084926     1.2967672      0.59789912     0.59788148    -1.1230466e-05  1.2886846e-05  1.0893959e-05  15.044312      22.566491      30.088654      10215.018    
        30   0             -2533.5295      0.83073699     1.2966326      0.59779835     0.59778005     1.5248453e-05 -3.6944906e-06  9.3890838e-06  15.044312      22.566491      30.088654      10215.018    
        31   0             -2533.5295      0.83085737     1.2966198      0.59798111     0.59797119     2.9600745e-06 -9.0413374e-06 -1.7409761e-05  15.044312      22.566491      30.088654      10215.018    
        32   0             -2533.5295      0.83094093     1.2966162      0.59810162     0.59810492    -8.2725032e-06 -3.8986625e-06 -2.1397834e-05  15.044312      22.566491      30.088654      10215.018    
        33   0             -2533.5295      0.83091054     1.2965673      0.59807342     0.59809095    -5.1481666e-06  6.9118083e-06  5.621812e-06   15.044312      22.566491      30.088654      10215.018    
        34   0             -2533.5295      0.83091033     1.296618       0.59805492     0.5980581      8.5520002e-06 -5.7910794e-07  1.1480324e-05  15.044312      22.566491      30.088654      10215.018    
        35   0             -2533.5295      0.83087163     1.2966265      0.59799653     0.59799186     3.4828765e-06 -2.0971923e-06  2.5847549e-06  15.044312      22.566491      30.088654      10215.018    
        36   0             -2533.5295      0.83085014     1.2966277      0.59796434     0.59795835    -2.3077186e-06 -2.6721503e-07 -1.7511758e-06  15.044312      22.566491      30.088654      10215.018    
        37   0             -2533.5295      0.83085096     1.2966257      0.59796528     0.59796194    -4.6118584e-06  2.4182986e-06 -9.6347736e-07  15.044312      22.566491      30.088654      10215.018    
        38   0             -2533.5295      0.83085563     1.2965995      0.59798473     0.59798271     1.3962302e-06 -8.5261959e-07 -6.9568555e-07  15.044312      22.566491      30.088654      10215.018    
        39   0             -2533.5295      0.830868       1.2965984      0.59800256     0.59800307     2.3957119e-06 -1.4753731e-06 -7.7463719e-07  15.044312      22.566491      30.088654      10215.018    
        40   0             -2533.5295      0.8308756      1.2966047      0.59801024     0.59801187     1.0002056e-06 -5.3878725e-07 -5.2697675e-07  15.044312      22.566491      30.088654      10215.018    
        41   0             -2533.5295      0.83087663     1.2966151      0.59800725     0.5980075     -1.4780082e-06  1.0257523e-06 -1.5108917e-08  15.044312      22.566491      30.088654      10215.018    
        42   0             -2533.5295      0.83087182     1.2966206      0.59799856     0.59799632     3.9887183e-08 -2.840171e-07  -7.8192527e-08  15.044312      22.566491      30.088654      10215.018    
        43   0             -2533.5295      0.83086738     1.2966195      0.59799238     0.59799031     6.0794408e-07 -2.9616364e-07  6.428039e-07   15.044312      22.566491      30.088654      10215.018    
        44   0             -2533.5295      0.83086488     1.296616       0.59799011     0.59798855     3.5094975e-07  6.6828036e-08  8.751276e-07   15.044312      22.566491      30.088654      10215.018    
        45   0             -2533.5295      0.83086495     1.2966095      0.59799326     0.59799209    -5.5806962e-07  3.171149e-07  -1.1129002e-07  15.044312      22.566491      30.088654      10215.018    
        46   0             -2533.5295      0.83086699     1.2966087      0.59799649     0.59799579    -8.0066404e-08 -1.7901149e-07 -6.0260237e-07  15.044312      22.566491      30.088654      10215.018    
        47   0             -2533.5295      0.83086827     1.2966108      0.59799731     0.59799666     2.7060931e-07 -1.5648604e-07 -9.9595867e-08  15.044312      22.566491      30.088654      10215.018    
        48   0             -2533.5295      0.83086892     1.2966129      0.59799738     0.59799654     2.6151099e-07 -1.6005762e-08  2.1252845e-07  15.044312      22.566491      30.088654      10215.018    
        49   0             -2533.5295      0.8308689      1.2966143      0.5979968      0.59799559    -9.5590496e-08  7.0855388e-08  1.236985e-08   15.044312      22.566491      30.088654      10215.018    
        50   0             -2533.5295      0.83086826     1.2966141      0.59799593     0.59799474    -1.2680097e-07 -2.0996366e-08 -1.6223181e-07  15.044312      22.566491      30.088654      10215.018    
        51   0             -2533.5295      0.83086793     1.2966134      0.59799577     0.59799467     4.7381543e-09 -9.4917193e-09  2.1159019e-08  15.044312      22.566491      30.088654      10215.018    
        52   0             -2533.5295      0.83086772     1.2966126      0.5979958      0.59799475     7.6055848e-08  1.4324785e-08  1.423023e-07   15.044312      22.566491      30.088654      10215.018    
        53   0             -2533.5295      0.83086766     1.2966121      0.59799593     0.5979949      1.7170887e-08  1.1775423e-08  4.2157834e-08  15.044312      22.566491      30.088654      10215.018    
        54   0             -2533.5295      0.83086791     1.2966126      0.59799609     0.59799508    -4.2988407e-08 -1.5537257e-08 -9.5897974e-08  15.044312      22.566491      30.088654      10215.018    
        55   0             -2533.5295      0.83086802     1.2966129      0.5979961      0.59799505    -9.4074737e-09 -4.974096e-09  -3.1527931e-08  15.044312      22.566491      30.088654      10215.018    
        56   0             -2533.5295      0.8308681      1.2966132      0.59799611     0.59799502     2.5979281e-08  6.3798206e-09  3.9809372e-08  15.044312      22.566491      30.088654      10215.018    
        57   0             -2533.5295      0.83086815     1.2966133      0.59799614     0.59799504     1.7291195e-08  2.0220341e-10  2.4723828e-08  15.044312      22.566491      30.088654      10215.018    
        58   0             -2533.5295      0.83086792     1.2966129      0.59799598     0.59799492    -3.4810296e-08 -7.8704875e-09 -5.335964e-08   15.044312      22.566491      30.088654      10215.018    
        59   0             -2533.5295      0.83086791     1.2966127      0.59799605     0.59799501    -1.3574158e-08  6.1193349e-09 -1.0284968e-09  15.044312      22.566491      30.088654      10215.018    
        60   0             -2533.5295      0.83086788     1.2966126      0.59799605     0.59799501     1.3011386e-08  1.0525408e-08  3.920741e-08   15.044312      22.566491      30.088654      10215.018    
        61   0             -2533.5295      0.83086782     1.2966126      0.59799594     0.5979949      2.1711304e-08 -3.4942602e-09  2.1005218e-08  15.044312      22.566491      30.088654      10215.018    
        62   0             -2533.5295      0.83086803     1.2966129      0.5979961      0.59799503    -9.1602307e-09 -4.1848375e-09 -2.062975e-08   15.044312      22.566491      30.088654      10215.018    
        63   0             -2533.5295      0.83086797     1.2966129      0.59799604     0.59799497    -1.1735277e-08  7.2951341e-10 -1.4737848e-08  15.044312      22.566491      30.088654      10215.018    
        64   0             -2533.5295      0.83086794     1.2966129      0.597996       0.59799493    -2.4787418e-09  3.8381384e-09  3.1183917e-09  15.044312      22.566491      30.088654      10215.018    
        65   0             -2533.5295      0.83086808     1.296613       0.59799616     0.5979951      7.8870475e-09 -3.3825364e-09  3.0906805e-09  15.044312      22.566491      30.088654      10215.018    
        66   0             -2533.5295      0.83086786     1.2966127      0.59799596     0.5979949      2.2868906e-10 -1.0106688e-09 -1.6326234e-09  15.044312      22.566491      30.088654      10215.018    
        67   0             -2533.5295      0.83086793     1.2966128      0.59799603     0.59799497    -2.9260638e-09  1.2709804e-09 -9.8429742e-10  15.044312      22.566491      30.088654      10215.018    
        68   0             -2533.5295      0.83086802     1.2966129      0.59799611     0.59799505    -1.7769069e-09  1.6888478e-09  1.3976721e-09  15.044312      22.566491      30.088654      10215.018    
        69   0             -2533.5295      0.83086789     1.2966128      0.59799598     0.59799492     1.7592498e-09 -6.6485777e-10  1.3810533e-09  15.044312      22.566491      30.088654      10215.018    
Loop time of 0.176749 on 4 procs for 62 steps with 624 atoms

64.1% CPU use with 4 MPI tasks x 1 OpenMP threads

Minimization stats:
  Stopping criterion = force tolerance
  Energy initial, next-to-last, final = 
     -2533.52954805965  -2533.52954823671  -2533.52954823671
  Force two-norm initial, final = 0.0017074512 8.1696353e-11
  Force max component initial, final = 0.00017123578 6.810252e-12
  Final line search alpha, max atom move = 1 6.810252e-12
  Iterations, force evaluations = 62 124

MPI task timing breakdown:
Section |  min time  |  avg time  |  max time  |%varavg| %total
---------------------------------------------------------------
Pair    | 0.16363    | 0.1672     | 0.17025    |   0.6 | 94.60
Neigh   | 0          | 0          | 0          |   0.0 |  0.00
Comm    | 0.004692   | 0.0077317  | 0.011306   |   2.8 |  4.37
Output  | 0.000775   | 0.0008285  | 0.000976   |   0.0 |  0.47
Modify  | 0          | 0          | 0          |   0.0 |  0.00
Other   |            | 0.0009865  |            |       |  0.56

Nlocal:            156 ave         164 max         149 min
Histogram: 1 0 0 1 0 1 0 0 0 1
Nghost:            795 ave         802 max         787 min
Histogram: 1 0 0 0 1 0 1 0 0 1
Neighs:           4032 ave        4244 max        3845 min
Histogram: 1 0 0 1 0 1 0 0 0 1
FullNghs:         8064 ave        8480 max        7700 min
Histogram: 1 0 0 1 0 1 0 0 0 1

Total # of neighbors = 32256
Ave neighs/atom = 51.692308
Neighbor list builds = 0
Dangerous builds = 0

# Obtain new stress tensor

variable tmp equal pxx
variable pxx1 equal ${tmp}
variable pxx1 equal 1.2966127863341
variable tmp equal pyy
variable pyy1 equal ${tmp}
variable pyy1 equal 0.59799597849155
variable tmp equal pzz
variable pzz1 equal ${tmp}
variable pzz1 equal 0.597994917573851
variable tmp equal pxy
variable pxy1 equal ${tmp}
variable pxy1 equal 1.75924978459751e-09
variable tmp equal pxz
variable pxz1 equal ${tmp}
variable pxz1 equal -6.64857773765132e-10
variable tmp equal pyz
variable pyz1 equal ${tmp}
variable pyz1 equal 1.38105326466424e-09

# Compute elastic constant from pressure tensor

variable C1neg equal ${d1}
variable C1neg equal 129.661278353216
variable C2neg equal ${d2}
variable C2neg equal 59.7995969583743
variable C3neg equal ${d3}
variable C3neg equal 59.799491657196
variable C4neg equal ${d4}
variable C4neg equal 1.37375137930579e-07
variable C5neg equal ${d5}
variable C5neg equal -6.63587827425729e-08
variable C6neg equal ${d6}
variable C6neg equal 1.75903103004863e-07

# Reset box and simulation parameters

clear
  using 1 OpenMP thread(s) per MPI task
Loaded 1 plugins from C:\Program Files\LAMMPS 64-bit 23Jun2022\plugins
Loaded 0 plugins from C:\Program Files\LAMMPS 64-bit 23Jun2022-MPI\plugins
Loaded 1 plugins from C:\Program Files\LAMMPS 64-bit 22Dec2022-MSMPI\plugins
Loaded 1 plugins from C:\Program Files\LAMMPS 64-bit 28Mar2023-MPI\plugins
box tilt large

The 'box' command has been removed and will be ignored

read_restart restart.equil
Reading restart file ...
  restart file = 22 Dec 2022, LAMMPS = 22 Dec 2022
  restoring atom style atomic from restart
  triclinic box = (0.03319019 0.03319019 0.03319019) to (15.077517 22.599681 30.121845) with tilt (0 0 0)
  1 by 2 by 2 MPI processor grid
  pair style meam stores no restart info
  624 atoms
  read_restart CPU = 0.000 seconds
include potential.mod
# NOTE: This script can be modified for different pair styles
# See in.elastic for more info.

# Choose potential
#-----------------------
#pair_style	sw
#pair_coeff * * Si.sw Si
#-----------------------
#pair_style morse	2.83994742	# D0[eV] a[1/A] r0[A] rc[A], 1NN for BCC
#pair_coeff 1 1	2.1173	1.0202	2.4595	2.6497	#	Fe-Fe
#-----------------------
#pair_style smatb # R0(A)   p       q     A(eV)   xi(eV)  Rcs(A)   Rc(A), 4NN: Rcs=4NN, Rc=(4NN+5NN)/2
#pair_coeff 1 1	2.4802	7.0149	2.3779	0.3144	3.0551	4.033	4.176	#	Co	Co
#-----------------------
#pair_style eam/alloy
#pair_coeff * * AlCrFeCoNi_Zhou04.eam.alloy Fe
#-----------------------
pair_style meam
#pair_coeff * * ./../../library.meam Co Al W ./../../CoAlW.meam Co Al
pair_coeff * * ./../../library.meam Co Al W ./../../CoAlW.meam Al W
#-----------------------

# Setup neighbor style
neighbor 1.0 nsq
neigh_modify once no every 1 delay 0 check yes

# Setup minimization style
min_style	     cg
min_modify	     dmax ${dmax} line quadratic
min_modify	     dmax 0.01 line quadratic

# Setup output
thermo		1
thermo_style custom step temp pe press pxx pyy pzz pxy pxz pyz lx ly lz vol
thermo_modify norm no

# Positive deformation

variable delta equal ${up}*${len0}
variable delta equal 1e-06*${len0}
variable delta equal 1e-06*15.0443272406408
variable deltaxy equal ${up}*xy
variable deltaxy equal 1e-06*xy
variable deltaxz equal ${up}*xz
variable deltaxz equal 1e-06*xz
variable deltayz equal ${up}*yz
variable deltayz equal 1e-06*yz
if "${dir} == 1" then    "change_box all x delta 0 ${delta} xy delta ${deltaxy} xz delta ${deltaxz} remap units box"
change_box all x delta 0 ${delta} xy delta ${deltaxy} xz delta ${deltaxz} remap units box
change_box all x delta 0 1.50443272406408e-05 xy delta ${deltaxy} xz delta ${deltaxz} remap units box
change_box all x delta 0 1.50443272406408e-05 xy delta 0 xz delta ${deltaxz} remap units box
change_box all x delta 0 1.50443272406408e-05 xy delta 0 xz delta 0 remap units box
Changing box ...
  triclinic box = (0.03319019 0.03319019 0.03319019) to (15.077532 22.599681 30.121845) with tilt (0 0 0)
  triclinic box = (0.03319019 0.03319019 0.03319019) to (15.077532 22.599681 30.121845) with tilt (0 0 0)
  triclinic box = (0.03319019 0.03319019 0.03319019) to (15.077532 22.599681 30.121845) with tilt (0 0 0)
if "${dir} == 2" then    "change_box all y delta 0 ${delta} yz delta ${deltayz} remap units box"
if "${dir} == 3" then    "change_box all z delta 0 ${delta} remap units box"
if "${dir} == 4" then    "change_box all yz delta ${delta} remap units box"
if "${dir} == 5" then    "change_box all xz delta ${delta} remap units box"
if "${dir} == 6" then    "change_box all xy delta ${delta} remap units box"

# Relax atoms positions

minimize ${etol} ${ftol} ${maxiter} ${maxeval}
minimize 0 ${ftol} ${maxiter} ${maxeval}
minimize 0 1e-10 ${maxiter} ${maxeval}
minimize 0 1e-10 1000 ${maxeval}
minimize 0 1e-10 1000 100000
Neighbor list info ...
  update: every = 1 steps, delay = 0 steps, check = yes
  max neighbors/atom: 2000, page size: 100000
  master list distance cutoff = 5.5
  ghost atom cutoff = 5.5
  2 neighbor lists, perpetual/occasional/extra = 2 0 0
  (1) pair meam, perpetual
      attributes: full, newton on
      pair build: full/nsq
      stencil: none
      bin: none
  (2) pair meam, perpetual, half/full from (1)
      attributes: half, newton on
      pair build: halffull/newton
      stencil: none
      bin: none
Per MPI rank memory allocation (min/avg/max) = 9.935 | 9.939 | 9.944 Mbytes
   Step          Temp          PotEng         Press           Pxx            Pyy            Pzz            Pxy            Pxz            Pyz             Lx             Ly             Lz           Volume    
         7   0             -2533.5295     -0.92950134    -1.5436438     -0.61879416    -0.62606608     0.029508354   -0.022505604    0.0029167575   15.044342      22.566491      30.088654      10215.038    
         8   0             -2533.5295     -0.88383691    -1.4490267     -0.59325655    -0.60922745     0.010112159   -0.0058543287   0.0078374531   15.044342      22.566491      30.088654      10215.038    
         9   0             -2533.5295     -0.85917116    -1.3775485     -0.59225793    -0.60770711    -0.0030354742   0.0037791899   0.0071683675   15.044342      22.566491      30.088654      10215.038    
        10   0             -2533.5295     -0.85177667    -1.3309654     -0.61088116    -0.61348344    -0.0037077383   0.0016378576  -0.00013430048  15.044342      22.566491      30.088654      10215.038    
        11   0             -2533.5295     -0.83046321    -1.2934579     -0.59965424    -0.59827751     0.00036636006 -0.00066446479 -0.00050167292  15.044342      22.566491      30.088654      10215.038    
        12   0             -2533.5295     -0.82872953    -1.2880517     -0.59982664    -0.59831022     0.0012373531  -0.00061027827  0.00032098962  15.044342      22.566491      30.088654      10215.038    
        13   0             -2533.5295     -0.83084952    -1.2912069     -0.60101602    -0.6003256      0.00056502479  0.00020022001  0.00083284767  15.044342      22.566491      30.088654      10215.038    
        14   0             -2533.5295     -0.82614481    -1.2913372     -0.59369468    -0.59340254    -0.00046930587  0.00012927977 -0.000526098    15.044342      22.566491      30.088654      10215.038    
        15   0             -2533.5295     -0.8311969     -1.2983875     -0.59749688    -0.59770634    -0.00022035831 -0.00014844048 -0.00062078209  15.044342      22.566491      30.088654      10215.038    
        16   0             -2533.5295     -0.83210566    -1.2996176     -0.59813801    -0.59856138     5.0842407e-05 -0.00014993835 -0.00021199482  15.044342      22.566491      30.088654      10215.038    
        17   0             -2533.5295     -0.82974549    -1.2963022     -0.59633749    -0.59659677     0.00015637248  9.7891446e-05  0.00043656443  15.044342      22.566491      30.088654      10215.038    
        18   0             -2533.5295     -0.83304581    -1.2985905     -0.60032508    -0.60022188    -4.5029503e-05  5.2113448e-05  8.3144364e-05  15.044342      22.566491      30.088654      10215.038    
        19   0             -2533.5295     -0.83093125    -1.2960994     -0.59841814    -0.59827621    -7.1206907e-05 -2.938838e-05  -0.00012693662  15.044342      22.566491      30.088654      10215.038    
        20   0             -2533.5295     -0.82975973    -1.2949187     -0.59722345    -0.597137      -1.1044525e-05 -4.0324649e-05 -9.0896383e-05  15.044342      22.566491      30.088654      10215.038    
        21   0             -2533.5295     -0.83145839    -1.2970563     -0.5986653     -0.59865357     7.537164e-05   3.0909347e-05  0.00013989955  15.044342      22.566491      30.088654      10215.038    
        22   0             -2533.5295     -0.82972362    -1.2957745     -0.59668333    -0.59671304     1.2113083e-06  3.8090916e-07 -1.1999019e-05  15.044342      22.566491      30.088654      10215.038    
        23   0             -2533.5295     -0.83084116    -1.2969072     -0.59777235    -0.59784389    -4.7971727e-05 -2.5672615e-05 -0.00011869007  15.044342      22.566491      30.088654      10215.038    
        24   0             -2533.5295     -0.8315724     -1.2974957     -0.59857546    -0.59864604    -4.6976943e-05 -1.9788859e-05 -0.00010034157  15.044342      22.566491      30.088654      10215.038    
        25   0             -2533.5295     -0.83025483    -1.2958958     -0.59745023    -0.5974185      3.0273096e-05  2.7006613e-05  9.3121045e-05  15.044342      22.566491      30.088654      10215.038    
        26   0             -2533.5295     -0.83184113    -1.2973701     -0.59910324    -0.59905        3.1420951e-05  4.2504754e-07  4.6922761e-05  15.044342      22.566491      30.088654      10215.038    
        27   0             -2533.5295     -0.83079014    -1.2963826     -0.59800417    -0.59798361    -3.3751434e-06 -1.1381948e-05 -1.9921607e-05  15.044342      22.566491      30.088654      10215.038    
        28   0             -2533.5295     -0.83010153    -1.2958257     -0.5972339     -0.59724496    -2.6493675e-05 -3.4450464e-06 -3.6038973e-05  15.044342      22.566491      30.088654      10215.038    
        29   0             -2533.5295     -0.83127432    -1.29713       -0.59833753    -0.59835539    -8.1213688e-06  1.2547007e-05  1.4057012e-05  15.044342      22.566491      30.088654      10215.038    
        30   0             -2533.5295     -0.83046836    -1.2963034     -0.59754118    -0.59756047     1.485808e-05  -4.4438261e-06  7.5034005e-06  15.044342      22.566491      30.088654      10215.038    
        31   0             -2533.5295     -0.83084087    -1.2965928     -0.59795986    -0.59796997     2.9336244e-06 -9.0487986e-06 -1.743964e-05   15.044342      22.566491      30.088654      10215.038    
        32   0             -2533.5295     -0.8311152     -1.2968051     -0.59827243    -0.59826809    -8.613971e-06  -3.3736372e-06 -2.0846711e-05  15.044342      22.566491      30.088654      10215.038    
        33   0             -2533.5295     -0.83078608    -1.2964586     -0.59795878    -0.59794081    -4.7089846e-06  6.8496533e-06  6.0397885e-06  15.044342      22.566491      30.088654      10215.038    
        34   0             -2533.5295     -0.83096312    -1.2966746     -0.59810897    -0.59810575     8.5769862e-06 -6.4888868e-07  1.1356713e-05  15.044342      22.566491      30.088654      10215.038    
        35   0             -2533.5295     -0.83086408    -1.2966086     -0.59798944    -0.5979942      3.4740819e-06 -2.1024014e-06  2.5706386e-06  15.044342      22.566491      30.088654      10215.038    
        36   0             -2533.5295     -0.83080942    -1.2965687     -0.59792668    -0.59793284    -2.3896628e-06 -2.3228434e-07 -1.7699236e-06  15.044342      22.566491      30.088654      10215.038    
        37   0             -2533.5295     -0.83086107    -1.296617      -0.59798136    -0.59798483    -4.6116804e-06  2.410591e-06  -9.6072454e-07  15.044342      22.566491      30.088654      10215.038    
        38   0             -2533.5295     -0.83083721    -1.2965734     -0.59796809    -0.59797012     1.4048686e-06 -8.5690549e-07 -6.9003921e-07  15.044342      22.566491      30.088654      10215.038    
        39   0             -2533.5295     -0.83085848    -1.296585      -0.5979955     -0.5979949      2.4167297e-06 -1.4789665e-06 -7.6411152e-07  15.044342      22.566491      30.088654      10215.038    
        40   0             -2533.5295     -0.83087314    -1.2965983     -0.59801141    -0.59800968     1.0174072e-06 -5.3853691e-07 -5.1702858e-07  15.044342      22.566491      30.088654      10215.038    
        41   0             -2533.5295     -0.83086661    -1.2965984     -0.59800087    -0.59800058    -1.4691346e-06  1.023133e-06  -1.6896707e-08  15.044342      22.566491      30.088654      10215.038    
        42   0             -2533.5295     -0.83086468    -1.2966041     -0.59799381    -0.59799609     3.4467794e-08 -2.8606846e-07 -8.6213465e-08  15.044342      22.566491      30.088654      10215.038    
        43   0             -2533.5295     -0.83085913    -1.2966006     -0.59798736    -0.59798948     5.9912505e-07 -2.9606531e-07  6.3799549e-07  15.044342      22.566491      30.088654      10215.038    
        44   0             -2533.5295     -0.83085557    -1.2965961     -0.59798451    -0.59798611     3.4354266e-07  6.7978903e-08  8.7372724e-07  15.044342      22.566491      30.088654      10215.038    
        45   0             -2533.5295     -0.83085656    -1.2965928     -0.59798786    -0.59798903    -5.5799618e-07  3.175403e-07  -1.0956913e-07  15.044342      22.566491      30.088654      10215.038    
        46   0             -2533.5295     -0.83085827    -1.2965925     -0.59799083    -0.5979915     -7.6745061e-08 -1.7937014e-07 -6.0213375e-07  15.044342      22.566491      30.088654      10215.038    
        47   0             -2533.5295     -0.83085987    -1.2965946     -0.59799219    -0.59799282     2.7291161e-07 -1.5660118e-07 -9.960042e-08   15.044342      22.566491      30.088654      10215.038    
        48   0             -2533.5295     -0.83086068    -1.2965964     -0.59799242    -0.59799325     2.6227272e-07 -1.6212408e-08  2.1164322e-07  15.044342      22.566491      30.088654      10215.038    
        49   0             -2533.5295     -0.83086045    -1.2965973     -0.59799143    -0.59799265    -9.6956011e-08  7.0916628e-08  1.1290894e-08  15.044342      22.566491      30.088654      10215.038    
        50   0             -2533.5295     -0.83085989    -1.296597      -0.59799074    -0.59799194    -1.284171e-07  -2.081028e-08  -1.6275077e-07  15.044342      22.566491      30.088654      10215.038    
        51   0             -2533.5295     -0.83085947    -1.2965962     -0.59799052    -0.59799164     3.9946674e-09 -9.2978905e-09  2.1222682e-08  15.044342      22.566491      30.088654      10215.038    
        52   0             -2533.5295     -0.83085922    -1.2965956     -0.59799049    -0.59799154     7.6084349e-08  1.4364493e-08  1.4249352e-07  15.044342      22.566491      30.088654      10215.038    
        53   0             -2533.5295     -0.83085922    -1.2965954     -0.59799064    -0.59799166     1.7834263e-08  1.1708132e-08  4.2459693e-08  15.044342      22.566491      30.088654      10215.038    
        54   0             -2533.5295     -0.83085942    -1.2965956     -0.5979908     -0.59799181    -4.252336e-08  -1.5567594e-08 -9.5727872e-08  15.044342      22.566491      30.088654      10215.038    
        55   0             -2533.5295     -0.83085959    -1.296596      -0.59799086    -0.59799191    -9.1532036e-09 -4.8823354e-09 -3.1073541e-08  15.044342      22.566491      30.088654      10215.038    
        56   0             -2533.5295     -0.83085969    -1.2965962     -0.59799087    -0.59799197     2.57282e-08    6.4129802e-09  3.9808561e-08  15.044342      22.566491      30.088654      10215.038    
        57   0             -2533.5295     -0.83085967    -1.2965963     -0.59799083    -0.59799194     1.6876838e-08  2.238303e-10   2.460008e-08   15.044342      22.566491      30.088654      10215.038    
        58   0             -2533.5295     -0.83085953    -1.296596      -0.59799078    -0.59799183    -3.5088499e-08 -7.8731882e-09 -5.3673167e-08  15.044342      22.566491      30.088654      10215.038    
        59   0             -2533.5295     -0.83085942    -1.2965957     -0.59799074    -0.59799178    -1.1851269e-08  6.8406677e-09  2.2817274e-09  15.044342      22.566491      30.088654      10215.038    
        60   0             -2533.5295     -0.83085938    -1.2965957     -0.59799072    -0.59799177     1.3621303e-08  1.0317612e-08  3.9347133e-08  15.044342      22.566491      30.088654      10215.038    
        61   0             -2533.5295     -0.83085943    -1.2965958     -0.59799073    -0.59799178     2.1783256e-08 -3.5624785e-09  2.0874438e-08  15.044342      22.566491      30.088654      10215.038    
        62   0             -2533.5295     -0.8308595     -1.2965959     -0.59799076    -0.59799182    -9.6936595e-09 -4.1033524e-09 -2.1170976e-08  15.044342      22.566491      30.088654      10215.038    
        63   0             -2533.5295     -0.83085954    -1.296596      -0.59799078    -0.59799185    -1.1552806e-08  1.0337742e-09 -1.3808785e-08  15.044342      22.566491      30.088654      10215.038    
        64   0             -2533.5295     -0.83085955    -1.296596      -0.5979908     -0.59799187    -2.3898508e-09  3.8058117e-09  3.2727541e-09  15.044342      22.566491      30.088654      10215.038    
        65   0             -2533.5295     -0.83085953    -1.2965959     -0.5979908     -0.59799186     8.0002703e-09 -3.6363108e-09  2.7549964e-09  15.044342      22.566491      30.088654      10215.038    
        66   0             -2533.5295     -0.83085951    -1.2965959     -0.59799079    -0.59799184    -5.1832369e-10 -5.2483626e-10 -1.6635189e-09  15.044342      22.566491      30.088654      10215.038    
        67   0             -2533.5295     -0.8308595     -1.2965959     -0.59799077    -0.59799183    -2.9757554e-09  1.3538477e-09 -9.4152952e-10  15.044342      22.566491      30.088654      10215.038    
        68   0             -2533.5295     -0.83085949    -1.2965959     -0.59799076    -0.59799182    -1.1496683e-09  1.4380757e-09  1.7551367e-09  15.044342      22.566491      30.088654      10215.038    
Loop time of 0.170976 on 4 procs for 61 steps with 624 atoms

77.7% CPU use with 4 MPI tasks x 1 OpenMP threads

Minimization stats:
  Stopping criterion = force tolerance
  Energy initial, next-to-last, final = 
     -2533.52954806143  -2533.52954823671  -2533.52954823671
  Force two-norm initial, final = 0.0016978265 9.7715967e-11
  Force max component initial, final = 0.00017123495 6.9853151e-12
  Final line search alpha, max atom move = 1 6.9853151e-12
  Iterations, force evaluations = 61 122

MPI task timing breakdown:
Section |  min time  |  avg time  |  max time  |%varavg| %total
---------------------------------------------------------------
Pair    | 0.15976    | 0.16298    | 0.16634    |   0.6 | 95.32
Neigh   | 0          | 0          | 0          |   0.0 |  0.00
Comm    | 0.002781   | 0.006221   | 0.009361   |   3.0 |  3.64
Output  | 0.000748   | 0.000783   | 0.000873   |   0.0 |  0.46
Modify  | 0          | 0          | 0          |   0.0 |  0.00
Other   |            | 0.00099    |            |       |  0.58

Nlocal:            156 ave         164 max         149 min
Histogram: 1 0 0 1 0 1 0 0 0 1
Nghost:            795 ave         802 max         787 min
Histogram: 1 0 0 0 1 0 1 0 0 1
Neighs:           4032 ave        4244 max        3845 min
Histogram: 1 0 0 1 0 1 0 0 0 1
FullNghs:         8064 ave        8480 max        7700 min
Histogram: 1 0 0 1 0 1 0 0 0 1

Total # of neighbors = 32256
Ave neighs/atom = 51.692308
Neighbor list builds = 0
Dangerous builds = 0

# Obtain new stress tensor

variable tmp equal pe
variable e1 equal ${tmp}
variable e1 equal -2533.52954823671
variable tmp equal press
variable p1 equal ${tmp}
variable p1 equal -0.830859491165
variable tmp equal pxx
variable pxx1 equal ${tmp}
variable pxx1 equal -1.2965958896459
variable tmp equal pyy
variable pyy1 equal ${tmp}
variable pyy1 equal -0.597990762391771
variable tmp equal pzz
variable pzz1 equal ${tmp}
variable pzz1 equal -0.597991821457326
variable tmp equal pxy
variable pxy1 equal ${tmp}
variable pxy1 equal -1.14966827944138e-09
variable tmp equal pxz
variable pxz1 equal ${tmp}
variable pxz1 equal 1.43807572960228e-09
variable tmp equal pyz
variable pyz1 equal ${tmp}
variable pyz1 equal 1.75513673201917e-09

# Compute elastic constant from pressure tensor

variable C1pos equal ${d1}
variable C1pos equal 129.659589244784
variable C2pos equal ${d2}
variable C2pos equal 59.7990771299578
variable C3pos equal ${d3}
variable C3pos equal 59.7991822459218
variable C4pos equal ${d4}
variable C4pos equal -1.74783484666072e-07
variable C5pos equal ${d5}
variable C5pos equal -1.43934567594168e-07
variable C6pos equal ${d6}
variable C6pos equal 1.14988703399026e-07

# Combine positive and negative

variable C1${dir} equal 0.5*(${C1neg}+${C1pos})
variable C11 equal 0.5*(${C1neg}+${C1pos})
variable C11 equal 0.5*(129.661278353216+${C1pos})
variable C11 equal 0.5*(129.661278353216+129.659589244784)
variable C2${dir} equal 0.5*(${C2neg}+${C2pos})
variable C21 equal 0.5*(${C2neg}+${C2pos})
variable C21 equal 0.5*(59.7995969583743+${C2pos})
variable C21 equal 0.5*(59.7995969583743+59.7990771299578)
variable C3${dir} equal 0.5*(${C3neg}+${C3pos})
variable C31 equal 0.5*(${C3neg}+${C3pos})
variable C31 equal 0.5*(59.799491657196+${C3pos})
variable C31 equal 0.5*(59.799491657196+59.7991822459218)
variable C4${dir} equal 0.5*(${C4neg}+${C4pos})
variable C41 equal 0.5*(${C4neg}+${C4pos})
variable C41 equal 0.5*(1.37375137930579e-07+${C4pos})
variable C41 equal 0.5*(1.37375137930579e-07+-1.74783484666072e-07)
variable C5${dir} equal 0.5*(${C5neg}+${C5pos})
variable C51 equal 0.5*(${C5neg}+${C5pos})
variable C51 equal 0.5*(-6.63587827425729e-08+${C5pos})
variable C51 equal 0.5*(-6.63587827425729e-08+-1.43934567594168e-07)
variable C6${dir} equal 0.5*(${C6neg}+${C6pos})
variable C61 equal 0.5*(${C6neg}+${C6pos})
variable C61 equal 0.5*(1.75903103004863e-07+${C6pos})
variable C61 equal 0.5*(1.75903103004863e-07+1.14988703399026e-07)

# Delete dir to make sure it is not reused

variable dir delete

# uyy Perturbation

variable dir equal 2
include displace.mod
# NOTE: This script should not need to be
# modified. See in.elastic for more info.
#
# Find which reference length to use

if "${dir} == 1" then    "variable len0 equal ${lx0}"
if "${dir} == 2" then    "variable len0 equal ${ly0}"
variable len0 equal ${ly0}
variable len0 equal 22.5664908609611
if "${dir} == 3" then    "variable len0 equal ${lz0}"
if "${dir} == 4" then    "variable len0 equal ${lz0}"
if "${dir} == 5" then    "variable len0 equal ${lz0}"
if "${dir} == 6" then    "variable len0 equal ${ly0}"

# Reset box and simulation parameters

clear
  using 1 OpenMP thread(s) per MPI task
Loaded 1 plugins from C:\Program Files\LAMMPS 64-bit 23Jun2022\plugins
Loaded 0 plugins from C:\Program Files\LAMMPS 64-bit 23Jun2022-MPI\plugins
Loaded 1 plugins from C:\Program Files\LAMMPS 64-bit 22Dec2022-MSMPI\plugins
Loaded 1 plugins from C:\Program Files\LAMMPS 64-bit 28Mar2023-MPI\plugins
box tilt large

The 'box' command has been removed and will be ignored

read_restart restart.equil
Reading restart file ...
  restart file = 22 Dec 2022, LAMMPS = 22 Dec 2022
  restoring atom style atomic from restart
  triclinic box = (0.03319019 0.03319019 0.03319019) to (15.077517 22.599681 30.121845) with tilt (0 0 0)
  1 by 2 by 2 MPI processor grid
  pair style meam stores no restart info
  624 atoms
  read_restart CPU = 0.000 seconds
include potential.mod
# NOTE: This script can be modified for different pair styles
# See in.elastic for more info.

# Choose potential
#-----------------------
#pair_style	sw
#pair_coeff * * Si.sw Si
#-----------------------
#pair_style morse	2.83994742	# D0[eV] a[1/A] r0[A] rc[A], 1NN for BCC
#pair_coeff 1 1	2.1173	1.0202	2.4595	2.6497	#	Fe-Fe
#-----------------------
#pair_style smatb # R0(A)   p       q     A(eV)   xi(eV)  Rcs(A)   Rc(A), 4NN: Rcs=4NN, Rc=(4NN+5NN)/2
#pair_coeff 1 1	2.4802	7.0149	2.3779	0.3144	3.0551	4.033	4.176	#	Co	Co
#-----------------------
#pair_style eam/alloy
#pair_coeff * * AlCrFeCoNi_Zhou04.eam.alloy Fe
#-----------------------
pair_style meam
#pair_coeff * * ./../../library.meam Co Al W ./../../CoAlW.meam Co Al
pair_coeff * * ./../../library.meam Co Al W ./../../CoAlW.meam Al W
#-----------------------

# Setup neighbor style
neighbor 1.0 nsq
neigh_modify once no every 1 delay 0 check yes

# Setup minimization style
min_style	     cg
min_modify	     dmax ${dmax} line quadratic
min_modify	     dmax 0.01 line quadratic

# Setup output
thermo		1
thermo_style custom step temp pe press pxx pyy pzz pxy pxz pyz lx ly lz vol
thermo_modify norm no

# Negative deformation

variable delta equal -${up}*${len0}
variable delta equal -1e-06*${len0}
variable delta equal -1e-06*22.5664908609611
variable deltaxy equal -${up}*xy
variable deltaxy equal -1e-06*xy
variable deltaxz equal -${up}*xz
variable deltaxz equal -1e-06*xz
variable deltayz equal -${up}*yz
variable deltayz equal -1e-06*yz
if "${dir} == 1" then    "change_box all x delta 0 ${delta} xy delta ${deltaxy} xz delta ${deltaxz} remap units box"
if "${dir} == 2" then    "change_box all y delta 0 ${delta} yz delta ${deltayz} remap units box"
change_box all y delta 0 ${delta} yz delta ${deltayz} remap units box
change_box all y delta 0 -2.25664908609611e-05 yz delta ${deltayz} remap units box
change_box all y delta 0 -2.25664908609611e-05 yz delta -0 remap units box
Changing box ...
  triclinic box = (0.03319019 0.03319019 0.03319019) to (15.077517 22.599658 30.121845) with tilt (0 0 0)
  triclinic box = (0.03319019 0.03319019 0.03319019) to (15.077517 22.599658 30.121845) with tilt (0 0 0)
if "${dir} == 3" then    "change_box all z delta 0 ${delta} remap units box"
if "${dir} == 4" then    "change_box all yz delta ${delta} remap units box"
if "${dir} == 5" then    "change_box all xz delta ${delta} remap units box"
if "${dir} == 6" then    "change_box all xy delta ${delta} remap units box"

# Relax atoms positions

minimize ${etol} ${ftol} ${maxiter} ${maxeval}
minimize 0 ${ftol} ${maxiter} ${maxeval}
minimize 0 1e-10 ${maxiter} ${maxeval}
minimize 0 1e-10 1000 ${maxeval}
minimize 0 1e-10 1000 100000
Neighbor list info ...
  update: every = 1 steps, delay = 0 steps, check = yes
  max neighbors/atom: 2000, page size: 100000
  master list distance cutoff = 5.5
  ghost atom cutoff = 5.5
  2 neighbor lists, perpetual/occasional/extra = 2 0 0
  (1) pair meam, perpetual
      attributes: full, newton on
      pair build: full/nsq
      stencil: none
      bin: none
  (2) pair meam, perpetual, half/full from (1)
      attributes: half, newton on
      pair build: halffull/newton
      stencil: none
      bin: none
Per MPI rank memory allocation (min/avg/max) = 9.935 | 9.939 | 9.944 Mbytes
   Step          Temp          PotEng         Press           Pxx            Pyy            Pzz            Pxy            Pxz            Pyz             Lx             Ly             Lz           Volume    
         7   0             -2533.5295      1.1134751      0.83006423     1.7549221      0.75543895     0.029508867   -0.022505811    0.0029166628   15.044327      22.566468      30.088654      10215.018    
         8   0             -2533.5295      0.87295556     0.60386628     1.4596472      0.55535321     0.010113002   -0.0058550342   0.0078373798   15.044327      22.566468      30.088654      10215.018    
         9   0             -2533.5295      0.8087529      0.55518049     1.3407242      0.53035401    -0.0029760186   0.0037304308   0.007159022    15.044327      22.566468      30.088654      10215.018    
        10   0             -2533.5295      0.88914842     0.65111576     1.3718847      0.64444483    -0.0037585101   0.0017173619  -2.1754484e-05  15.044327      22.566468      30.088654      10215.018    
        11   0             -2533.5295      0.80784933     0.57607386     1.2703366      0.57713751     0.00026652562 -0.00063820524 -0.00055639987  15.044327      22.566468      30.088654      10215.018    
        12   0             -2533.5295      0.81994867     0.58947964     1.2778723      0.5924941      0.0012057846  -0.00059829741  0.00030986873  15.044327      22.566468      30.088654      10215.018    
        13   0             -2533.5295      0.84515213     0.61425651     1.3042278      0.61697208     0.00064708436  0.00014162843  0.00082974629  15.044327      22.566468      30.088654      10215.018    
        14   0             -2533.5295      0.81659476     0.58407903     1.2812119      0.58449337    -0.0004305116   0.0001797376  -0.00039170182  15.044327      22.566468      30.088654      10215.018    
        15   0             -2533.5295      0.83462321     0.60124177     1.3020898      0.60053808    -0.0002517178  -0.00014795727 -0.00066478126  15.044327      22.566468      30.088654      10215.018    
        16   0             -2533.5295      0.83548364     0.6019513      1.3033867      0.60111292     1.8863672e-05 -0.0001493789  -0.00025670212  15.044327      22.566468      30.088654      10215.018    
        17   0             -2533.5295      0.82626227     0.59299648     1.2932507      0.59253968     0.00017658394  5.6500704e-05  0.00038109497  15.044327      22.566468      30.088654      10215.018    
        18   0             -2533.5295      0.83403604     0.60121121     1.2996443      0.60125261    -2.063321e-05   7.9339451e-05  0.00016896294  15.044327      22.566468      30.088654      10215.018    
        19   0             -2533.5295      0.83081465     0.59815851     1.295858       0.59842741    -7.4183261e-05 -3.1029984e-05 -0.00013329594  15.044327      22.566468      30.088654      10215.018    
        20   0             -2533.5295      0.82948864     0.59682927     1.294524       0.59711271    -2.5922484e-05 -4.6064986e-05 -0.00011843713  15.044327      22.566468      30.088654      10215.018    
        21   0             -2533.5295      0.83147322     0.59866515     1.2969933      0.59876117     7.4128654e-05  2.5474322e-05  0.00012845782  15.044327      22.566468      30.088654      10215.018    
        22   0             -2533.5295      0.82996272     0.59698734     1.29606        0.59684088     9.815241e-06   6.8748839e-06  1.0691954e-05  15.044327      22.566468      30.088654      10215.018    
        23   0             -2533.5295      0.83082221     0.59782652     1.2969697      0.59767037    -4.8279945e-05 -2.6209749e-05 -0.00012030698  15.044327      22.566468      30.088654      10215.018    
        24   0             -2533.5295      0.83132691     0.59837299     1.2973265      0.59828126    -4.9412984e-05 -2.2810008e-05 -0.00010965987  15.044327      22.566468      30.088654      10215.018    
        25   0             -2533.5295      0.83067051     0.59782493     1.2963272      0.59785944     2.1975913e-05  2.3523684e-05  7.5590944e-05  15.044327      22.566468      30.088654      10215.018    
        26   0             -2533.5295      0.83129928     0.59850553     1.2967908      0.59860155     3.6553091e-05  6.9379256e-06  6.5829616e-05  15.044327      22.566468      30.088654      10215.018    
        27   0             -2533.5295      0.83088109     0.59805994     1.2964521      0.59813123    -3.4441532e-06 -1.1947055e-05 -2.0993107e-05  15.044327      22.566468      30.088654      10215.018    
        28   0             -2533.5295      0.83063751     0.59777288     1.2963492      0.59779045    -2.455536e-05  -7.1461794e-06 -4.0370252e-05  15.044327      22.566468      30.088654      10215.018    
        29   0             -2533.5295      0.8308495      0.59793553     1.2967318      0.59788114    -1.1312814e-05  1.2887088e-05  1.0830375e-05  15.044327      22.566468      30.088654      10215.018    
        30   0             -2533.5295      0.8307372      0.59782744     1.2966043      0.59777985     1.5166086e-05 -3.6880928e-06  9.3318193e-06  15.044327      22.566468      30.088654      10215.018    
        31   0             -2533.5295      0.83085736     0.59797747     1.2966226      0.59797198     2.9367429e-06 -9.0323664e-06 -1.7413632e-05  15.044327      22.566468      30.088654      10215.018    
        32   0             -2533.5295      0.83094095     0.59808361     1.2966325      0.5981067     -8.2567905e-06 -3.8984644e-06 -2.1391331e-05  15.044327      22.566468      30.088654      10215.018    
        33   0             -2533.5295      0.83091057     0.59806242     1.2965762      0.59809308    -5.0966933e-06  6.9082584e-06  5.6554924e-06  15.044327      22.566468      30.088654      10215.018    
        34   0             -2533.5295      0.83091035     0.59804648     1.296625       0.59805958     8.560415e-06  -5.768385e-07   1.1483287e-05  15.044327      22.566468      30.088654      10215.018    
        35   0             -2533.5295      0.83087162     0.59799525     1.2966269      0.59799275     3.476393e-06  -2.0990672e-06  2.5776227e-06  15.044327      22.566468      30.088654      10215.018    
        36   0             -2533.5295      0.83085009     0.59796864     1.2966227      0.59795894    -2.3234803e-06 -2.6974236e-07 -1.7648937e-06  15.044327      22.566468      30.088654      10215.018    
        37   0             -2533.5295      0.83085092     0.59797108     1.2966191      0.59796262    -4.6232774e-06  2.4174727e-06 -9.7207454e-07  15.044327      22.566468      30.088654      10215.018    
        38   0             -2533.5295      0.83085563     0.5979825      1.2966006      0.59798376     1.3971298e-06 -8.5409434e-07 -6.9811488e-07  15.044327      22.566468      30.088654      10215.018    
        39   0             -2533.5295      0.83086804     0.59799859     1.2966012      0.59800434     2.4064351e-06 -1.477172e-06  -7.6916263e-07  15.044327      22.566468      30.088654      10215.018    
        40   0             -2533.5295      0.83087564     0.59800689     1.2966069      0.59801318     1.0115579e-06 -5.3930299e-07 -5.1864726e-07  15.044327      22.566468      30.088654      10215.018    
        41   0             -2533.5295      0.83087664     0.59800546     1.2966158      0.59800866    -1.4726215e-06  1.0253825e-06 -1.1713902e-08  15.044327      22.566468      30.088654      10215.018    
        42   0             -2533.5295      0.83087181     0.5979976      1.2966205      0.5979973      3.7833308e-08 -2.8535828e-07 -8.1395289e-08  15.044327      22.566468      30.088654      10215.018    
        43   0             -2533.5295      0.83086736     0.59799255     1.2966183      0.59799124     6.0322291e-07 -2.9612566e-07  6.4009363e-07  15.044327      22.566468      30.088654      10215.018    
        44   0             -2533.5295      0.83086486     0.59799044     1.2966146      0.5979895      3.4664324e-07  6.764937e-08   8.7382864e-07  15.044327      22.566468      30.088654      10215.018    
        45   0             -2533.5295      0.83086496     0.59799201     1.2966097      0.59799316    -5.5794226e-07  3.1679986e-07 -1.1182095e-07  15.044327      22.566468      30.088654      10215.018    
        46   0             -2533.5295      0.83086699     0.59799481     1.2966093      0.5979969     -7.8322522e-08 -1.7931469e-07 -6.0273662e-07  15.044327      22.566468      30.088654      10215.018    
        47   0             -2533.5295      0.83086828     0.59799594     1.2966111      0.59799777     2.7188248e-07 -1.5640646e-07 -9.9164447e-08  15.044327      22.566468      30.088654      10215.018    
        48   0             -2533.5295      0.83086893     0.59799623     1.2966129      0.59799761     2.6203206e-07 -1.5960087e-08  2.127099e-07   15.044327      22.566468      30.088654      10215.018    
        49   0             -2533.5295      0.8308689      0.59799576     1.2966143      0.59799663    -9.6197977e-08  7.0843442e-08  1.1973541e-08  15.044327      22.566468      30.088654      10215.018    
        50   0             -2533.5295      0.83086826     0.59799504     1.296614       0.59799577    -1.2757082e-07 -2.0867751e-08 -1.6228722e-07  15.044327      22.566468      30.088654      10215.018    
        51   0             -2533.5295      0.83086793     0.59799483     1.2966133      0.59799571     4.4364076e-09 -9.3559303e-09  2.137473e-08   15.044327      22.566468      30.088654      10215.018    
        52   0             -2533.5295      0.83086772     0.59799475     1.2966126      0.5979958      7.6083622e-08  1.4333021e-08  1.4234807e-07  15.044327      22.566468      30.088654      10215.018    
        53   0             -2533.5295      0.83086766     0.59799479     1.2966122      0.59799597     1.7489141e-08  1.1708138e-08  4.2155016e-08  15.044327      22.566468      30.088654      10215.018    
        54   0             -2533.5295      0.83086791     0.597995       1.2966126      0.59799614    -4.2750027e-08 -1.5553225e-08 -9.5811044e-08  15.044327      22.566468      30.088654      10215.018    
        55   0             -2533.5295      0.83086802     0.59799505     1.2966129      0.5979961     -9.1392216e-09 -4.8814745e-09 -3.0983693e-08  15.044327      22.566468      30.088654      10215.018    
        56   0             -2533.5295      0.8308681      0.59799508     1.2966131      0.59799607     2.5870944e-08  6.4031719e-09  3.9882556e-08  15.044327      22.566468      30.088654      10215.018    
        57   0             -2533.5295      0.83086815     0.59799511     1.2966133      0.59799608     1.7084282e-08  2.2097497e-10  2.4687795e-08  15.044327      22.566468      30.088654      10215.018    
        58   0             -2533.5295      0.83086793     0.59799494     1.2966129      0.59799598    -3.5067743e-08 -7.8920103e-09 -5.3647092e-08  15.044327      22.566468      30.088654      10215.018    
        59   0             -2533.5295      0.83086791     0.59799497     1.2966127      0.59799607    -1.1898126e-08  6.864468e-09   2.3355336e-09  15.044327      22.566468      30.088654      10215.018    
        60   0             -2533.5295      0.83086788     0.59799495     1.2966126      0.59799606     1.3491297e-08  1.0313506e-08  3.9243792e-08  15.044327      22.566468      30.088654      10215.018    
        61   0             -2533.5295      0.83086783     0.59799488     1.2966126      0.59799596     2.1711948e-08 -3.5435747e-09  2.0869538e-08  15.044327      22.566468      30.088654      10215.018    
        62   0             -2533.5295      0.83086802     0.59799504     1.2966129      0.59799608    -9.5772448e-09 -4.1314134e-09 -2.1064263e-08  15.044327      22.566468      30.088654      10215.018    
        63   0             -2533.5295      0.83086797     0.59799498     1.2966129      0.59799601    -1.1496009e-08  1.0515727e-09 -1.3754663e-08  15.044327      22.566468      30.088654      10215.018    
        64   0             -2533.5295      0.83086794     0.59799495     1.2966129      0.59799599    -2.4457349e-09  3.8148394e-09  3.1291215e-09  15.044327      22.566468      30.088654      10215.018    
        65   0             -2533.5295      0.83086807     0.5979951      1.296613       0.59799615     7.9072121e-09 -3.4494732e-09  3.0304871e-09  15.044327      22.566468      30.088654      10215.018    
        66   0             -2533.5295      0.83086787     0.5979949      1.2966127      0.59799596     9.6957337e-11 -9.263187e-10  -1.6254089e-09  15.044327      22.566468      30.088654      10215.018    
        67   0             -2533.5295      0.83086793     0.59799496     1.2966128      0.59799603    -2.9191942e-09  1.3171954e-09 -9.3066223e-10  15.044327      22.566468      30.088654      10215.018    
        68   0             -2533.5295      0.83086802     0.59799505     1.2966129      0.5979961     -1.6974761e-09  1.6623621e-09  1.4399353e-09  15.044327      22.566468      30.088654      10215.018    
        69   0             -2533.5295      0.83086789     0.59799492     1.2966128      0.59799597     1.787172e-09  -7.0126902e-10  1.3547755e-09  15.044327      22.566468      30.088654      10215.018    
Loop time of 0.178848 on 4 procs for 62 steps with 624 atoms

74.3% CPU use with 4 MPI tasks x 1 OpenMP threads

Minimization stats:
  Stopping criterion = force tolerance
  Energy initial, next-to-last, final = 
     -2533.52954806008  -2533.52954823671  -2533.52954823671
  Force two-norm initial, final = 0.0017060326 8.1729703e-11
  Force max component initial, final = 0.00017123591 7.0905243e-12
  Final line search alpha, max atom move = 1 7.0905243e-12
  Iterations, force evaluations = 62 124

MPI task timing breakdown:
Section |  min time  |  avg time  |  max time  |%varavg| %total
---------------------------------------------------------------
Pair    | 0.16761    | 0.16898    | 0.17123    |   0.3 | 94.48
Neigh   | 0          | 0          | 0          |   0.0 |  0.00
Comm    | 0.005781   | 0.0080303  | 0.009394   |   1.6 |  4.49
Output  | 0.000755   | 0.00080525 | 0.00095    |   0.0 |  0.45
Modify  | 0          | 0          | 0          |   0.0 |  0.00
Other   |            | 0.001034   |            |       |  0.58

Nlocal:            156 ave         164 max         149 min
Histogram: 1 0 0 1 0 1 0 0 0 1
Nghost:            795 ave         802 max         787 min
Histogram: 1 0 0 0 1 0 1 0 0 1
Neighs:           4032 ave        4244 max        3845 min
Histogram: 1 0 0 1 0 1 0 0 0 1
FullNghs:         8064 ave        8480 max        7700 min
Histogram: 1 0 0 1 0 1 0 0 0 1

Total # of neighbors = 32256
Ave neighs/atom = 51.692308
Neighbor list builds = 0
Dangerous builds = 0

# Obtain new stress tensor

variable tmp equal pxx
variable pxx1 equal ${tmp}
variable pxx1 equal 0.597994918877438
variable tmp equal pyy
variable pyy1 equal ${tmp}
variable pyy1 equal 1.29661278814526
variable tmp equal pzz
variable pzz1 equal ${tmp}
variable pzz1 equal 0.597995971383157
variable tmp equal pxy
variable pxy1 equal ${tmp}
variable pxy1 equal 1.78717203493753e-09
variable tmp equal pxz
variable pxz1 equal ${tmp}
variable pxz1 equal -7.01269015087855e-10
variable tmp equal pyz
variable pyz1 equal ${tmp}
variable pyz1 equal 1.35477548424407e-09

# Compute elastic constant from pressure tensor

variable C1neg equal ${d1}
variable C1neg equal 59.7994916075499
variable C2neg equal ${d2}
variable C2neg equal 129.661277923745
variable C3neg equal ${d3}
variable C3neg equal 59.7995970381266
variable C4neg equal ${d4}
variable C4neg equal 1.34747359888562e-07
variable C5neg equal ${d5}
variable C5neg equal -6.99999068748452e-08
variable C6neg equal ${d6}
variable C6neg equal 1.78695328038865e-07

# Reset box and simulation parameters

clear
  using 1 OpenMP thread(s) per MPI task
Loaded 1 plugins from C:\Program Files\LAMMPS 64-bit 23Jun2022\plugins
Loaded 0 plugins from C:\Program Files\LAMMPS 64-bit 23Jun2022-MPI\plugins
Loaded 1 plugins from C:\Program Files\LAMMPS 64-bit 22Dec2022-MSMPI\plugins
Loaded 1 plugins from C:\Program Files\LAMMPS 64-bit 28Mar2023-MPI\plugins
box tilt large

The 'box' command has been removed and will be ignored

read_restart restart.equil
Reading restart file ...
  restart file = 22 Dec 2022, LAMMPS = 22 Dec 2022
  restoring atom style atomic from restart
  triclinic box = (0.03319019 0.03319019 0.03319019) to (15.077517 22.599681 30.121845) with tilt (0 0 0)
  1 by 2 by 2 MPI processor grid
  pair style meam stores no restart info
  624 atoms
  read_restart CPU = 0.000 seconds
include potential.mod
# NOTE: This script can be modified for different pair styles
# See in.elastic for more info.

# Choose potential
#-----------------------
#pair_style	sw
#pair_coeff * * Si.sw Si
#-----------------------
#pair_style morse	2.83994742	# D0[eV] a[1/A] r0[A] rc[A], 1NN for BCC
#pair_coeff 1 1	2.1173	1.0202	2.4595	2.6497	#	Fe-Fe
#-----------------------
#pair_style smatb # R0(A)   p       q     A(eV)   xi(eV)  Rcs(A)   Rc(A), 4NN: Rcs=4NN, Rc=(4NN+5NN)/2
#pair_coeff 1 1	2.4802	7.0149	2.3779	0.3144	3.0551	4.033	4.176	#	Co	Co
#-----------------------
#pair_style eam/alloy
#pair_coeff * * AlCrFeCoNi_Zhou04.eam.alloy Fe
#-----------------------
pair_style meam
#pair_coeff * * ./../../library.meam Co Al W ./../../CoAlW.meam Co Al
pair_coeff * * ./../../library.meam Co Al W ./../../CoAlW.meam Al W
#-----------------------

# Setup neighbor style
neighbor 1.0 nsq
neigh_modify once no every 1 delay 0 check yes

# Setup minimization style
min_style	     cg
min_modify	     dmax ${dmax} line quadratic
min_modify	     dmax 0.01 line quadratic

# Setup output
thermo		1
thermo_style custom step temp pe press pxx pyy pzz pxy pxz pyz lx ly lz vol
thermo_modify norm no

# Positive deformation

variable delta equal ${up}*${len0}
variable delta equal 1e-06*${len0}
variable delta equal 1e-06*22.5664908609611
variable deltaxy equal ${up}*xy
variable deltaxy equal 1e-06*xy
variable deltaxz equal ${up}*xz
variable deltaxz equal 1e-06*xz
variable deltayz equal ${up}*yz
variable deltayz equal 1e-06*yz
if "${dir} == 1" then    "change_box all x delta 0 ${delta} xy delta ${deltaxy} xz delta ${deltaxz} remap units box"
if "${dir} == 2" then    "change_box all y delta 0 ${delta} yz delta ${deltayz} remap units box"
change_box all y delta 0 ${delta} yz delta ${deltayz} remap units box
change_box all y delta 0 2.25664908609611e-05 yz delta ${deltayz} remap units box
change_box all y delta 0 2.25664908609611e-05 yz delta 0 remap units box
Changing box ...
  triclinic box = (0.03319019 0.03319019 0.03319019) to (15.077517 22.599704 30.121845) with tilt (0 0 0)
  triclinic box = (0.03319019 0.03319019 0.03319019) to (15.077517 22.599704 30.121845) with tilt (0 0 0)
if "${dir} == 3" then    "change_box all z delta 0 ${delta} remap units box"
if "${dir} == 4" then    "change_box all yz delta ${delta} remap units box"
if "${dir} == 5" then    "change_box all xz delta ${delta} remap units box"
if "${dir} == 6" then    "change_box all xy delta ${delta} remap units box"

# Relax atoms positions

minimize ${etol} ${ftol} ${maxiter} ${maxeval}
minimize 0 ${ftol} ${maxiter} ${maxeval}
minimize 0 1e-10 ${maxiter} ${maxeval}
minimize 0 1e-10 1000 ${maxeval}
minimize 0 1e-10 1000 100000
Neighbor list info ...
  update: every = 1 steps, delay = 0 steps, check = yes
  max neighbors/atom: 2000, page size: 100000
  master list distance cutoff = 5.5
  ghost atom cutoff = 5.5
  2 neighbor lists, perpetual/occasional/extra = 2 0 0
  (1) pair meam, perpetual
      attributes: full, newton on
      pair build: full/nsq
      stencil: none
      bin: none
  (2) pair meam, perpetual, half/full from (1)
      attributes: half, newton on
      pair build: halffull/newton
      stencil: none
      bin: none
Per MPI rank memory allocation (min/avg/max) = 9.935 | 9.939 | 9.944 Mbytes
[...]
        32   0             -2533.5295      7.0741707e-05  5.7128787e-05  7.526371e-05   7.9832623e-05 -0.37333294    -3.8408966e-06 -2.1365413e-05  15.044327      22.566491      30.088654      10215.028    
        33   0             -2533.5295     -4.9475382e-05 -6.3557054e-05 -5.1996994e-05 -3.2872097e-05 -0.37333162     6.9305389e-06  5.7881052e-06  15.044327      22.566491      30.088654      10215.028    
        34   0             -2533.5295      1.9270164e-05  1.2493279e-05  2.0547953e-05  2.4769261e-05 -0.37333065    -5.5218797e-07  1.1653826e-05  15.044327      22.566491      30.088654      10215.028    
        35   0             -2533.5295      1.2091955e-07  1.4529724e-06  1.5059313e-06 -2.596145e-06  -0.37333409    -2.1002641e-06  2.6187958e-06  15.044327      22.566491      30.088654      10215.028    
        36   0             -2533.5295     -1.0218534e-05 -4.3527788e-06 -1.0330875e-05 -1.597195e-05  -0.37333562    -2.8309613e-07 -1.8786429e-06  15.044327      22.566491      30.088654      10215.028    
        37   0             -2533.5295      8.4209163e-06  1.4311249e-05  6.9344598e-06  4.0170397e-06 -0.37333374     2.3978443e-06 -1.1311088e-06  15.044327      22.566491      30.088654      10215.028    
        38   0             -2533.5295     -2.3725708e-06 -2.7258102e-06 -1.5239993e-06 -2.8679029e-06 -0.37333015    -8.584096e-07  -7.132668e-07   15.044327      22.566491      30.088654      10215.028    
        39   0             -2533.5295     -3.484994e-07  -2.9951267e-06  2.9085082e-07  1.6587777e-06 -0.37332971    -1.4806342e-06 -7.1822536e-07  15.044327      22.566491      30.088654      10215.028    
        40   0             -2533.5295      1.5127288e-06 -1.1612443e-06  1.5772543e-06  4.1221763e-06 -0.37333053    -5.3868737e-07 -4.6278323e-07  15.044327      22.566491      30.088654      10215.028    
        41   0             -2533.5295     -1.2496397e-06 -2.2506198e-06 -1.2835739e-06 -2.1472543e-07 -0.37333229     1.0304689e-06  6.5831798e-09  15.044327      22.566491      30.088654      10215.028    
        42   0             -2533.5295      1.9901369e-07  8.0740564e-07  6.8099617e-07 -8.9136075e-07 -0.37333264    -2.812434e-07  -7.0915962e-08  15.044327      22.566491      30.088654      10215.028    
        43   0             -2533.5295      2.5194128e-07  1.6278402e-06  2.8771518e-07 -1.1597316e-06 -0.37333235    -2.989863e-07   6.4057021e-07  15.044327      22.566491      30.088654      10215.028    
        44   0             -2533.5295      9.6098942e-08  1.3952809e-06 -8.7980407e-08 -1.0190037e-06 -0.37333215     6.2861568e-08  8.6397356e-07  15.044327      22.566491      30.088654      10215.028    
        45   0             -2533.5295      3.4929031e-07  3.4049136e-07  5.8819312e-07  1.1918646e-07 -0.37333211     3.1543344e-07 -1.3028439e-07  15.044327      22.566491      30.088654      10215.028    
        46   0             -2533.5295      1.1067427e-07 -4.0782796e-07  3.4427001e-07  3.9558077e-07 -0.37333181    -1.7885483e-07 -6.064526e-07   15.044327      22.566491      30.088654      10215.028    
        47   0             -2533.5295      5.9659248e-08 -2.6596721e-07  1.7260325e-07  2.7234171e-07 -0.37333164    -1.5694736e-07 -9.3538325e-08  15.044327      22.566491      30.088654      10215.028    
        48   0             -2533.5295      5.3226187e-08 -2.9315199e-08  1.4962341e-07  3.9370351e-08 -0.37333168    -1.6402368e-08  2.2118332e-07  15.044327      22.566491      30.088654      10215.028    
        49   0             -2533.5295      3.274774e-08   1.8215895e-07  2.1195953e-07 -2.9587526e-07 -0.37333196     7.177951e-08   1.4818078e-08  15.044327      22.566491      30.088654      10215.028    
        50   0             -2533.5295      7.1422027e-08  3.2420256e-07  1.9293739e-07 -3.0287387e-07 -0.37333207    -1.9835522e-08 -1.6267654e-07  15.044327      22.566491      30.088654      10215.028    
        51   0             -2533.5295      9.6859586e-08  2.7743047e-07  2.0887884e-07 -1.9573055e-07 -0.37333199    -9.2979869e-09  2.1089722e-08  15.044327      22.566491      30.088654      10215.028    
        52   0             -2533.5295      1.0687381e-07  1.880356e-07   2.3677648e-07 -1.0419065e-07 -0.37333192     1.3844686e-08  1.4300739e-07  15.044327      22.566491      30.088654      10215.028    
        53   0             -2533.5295      1.0323559e-07  1.0048538e-07  2.6009316e-07 -5.0871764e-08 -0.37333192     1.1399737e-08  4.1832633e-08  15.044327      22.566491      30.088654      10215.028    
        54   0             -2533.5295      1.0028784e-07  1.353499e-07   2.3188905e-07 -6.637545e-08  -0.37333195    -1.5416741e-08 -9.6655303e-08  15.044327      22.566491      30.088654      10215.028    
        55   0             -2533.5295      8.366365e-08   1.6069963e-07  2.1603355e-07 -1.2574222e-07 -0.37333193    -4.7290337e-09 -3.0666685e-08  15.044327      22.566491      30.088654      10215.028    
        56   0             -2533.5295      7.7727521e-08  1.8362376e-07  2.1689063e-07 -1.6733183e-07 -0.37333191     6.486314e-09   4.1376989e-08  15.044327      22.566491      30.088654      10215.028    
        57   0             -2533.5295      8.8710851e-08  2.0720313e-07  2.2674837e-07 -1.6781895e-07 -0.37333193     3.3433531e-10  2.5833997e-08  15.044327      22.566491      30.088654      10215.028    
        58   0             -2533.5295      8.0813813e-08  1.7151583e-07  2.0819819e-07 -1.3727258e-07 -0.37333197    -7.7619077e-09 -5.474515e-08   15.044327      22.566491      30.088654      10215.028    
        59   0             -2533.5295      1.0377908e-07  1.5385135e-07  2.4499465e-07 -8.750875e-08  -0.37333195     7.3735041e-09  4.0034575e-09  15.044327      22.566491      30.088654      10215.028    
        60   0             -2533.5295      1.0320066e-07  1.4276144e-07  2.48509e-07   -8.1668469e-08 -0.37333193     9.993979e-09   3.9133651e-08  15.044327      22.566491      30.088654      10215.028    
        61   0             -2533.5295      8.4403422e-08  1.4531351e-07  2.2021977e-07 -1.1232301e-07 -0.37333193    -3.6473196e-09  2.1055688e-08  15.044327      22.566491      30.088654      10215.028    
        62   0             -2533.5295      1.0439496e-07  1.8781433e-07  2.391644e-07  -1.1379384e-07 -0.37333194    -4.0331112e-09 -2.1866971e-08  15.044327      22.566491      30.088654      10215.028    
        63   0             -2533.5295      8.4059826e-08  1.7053835e-07  2.2144003e-07 -1.397989e-07  -0.37333194     1.5425047e-09 -1.2674191e-08  15.044327      22.566491      30.088654      10215.028    
        64   0             -2533.5295      7.7462334e-08  1.622011e-07   2.1561904e-07 -1.4543314e-07 -0.37333194     3.7832652e-09  3.2646004e-09  15.044327      22.566491      30.088654      10215.028    
        65   0             -2533.5295      1.0877037e-07  1.8637558e-07  2.4340955e-07 -1.0347403e-07 -0.37333194    -3.6225405e-09  3.0736603e-09  15.044327      22.566491      30.088654      10215.028    
        66   0             -2533.5295      6.8792259e-08  1.3853638e-07  2.0687255e-07 -1.3903215e-07 -0.37333194    -4.8231351e-10 -1.7321649e-09  15.044327      22.566491      30.088654      10215.028    
        67   0             -2533.5295      8.8462456e-08  1.5820124e-07  2.2679183e-07 -1.1960571e-07 -0.37333194     1.3917056e-09 -1.0083137e-09  15.044327      22.566491      30.088654      10215.028    
        68   0             -2533.5295      1.1147294e-07  1.8514334e-07  2.4830422e-07 -9.9028726e-08 -0.37333194     1.4399404e-09  1.655578e-09   15.044327      22.566491      30.088654      10215.028    
Loop time of 0.169216 on 4 procs for 61 steps with 624 atoms

71.6% CPU use with 4 MPI tasks x 1 OpenMP threads

Minimization stats:
  Stopping criterion = force tolerance
  Energy initial, next-to-last, final = 
      -2533.5295480648  -2533.52954823966  -2533.52954823966
  Force two-norm initial, final = 0.0016978751 9.8219582e-11
  Force max component initial, final = 0.00017123532 7.3170012e-12
  Final line search alpha, max atom move = 1 7.3170012e-12
  Iterations, force evaluations = 61 122

MPI task timing breakdown:
Section |  min time  |  avg time  |  max time  |%varavg| %total
---------------------------------------------------------------
Pair    | 0.15918    | 0.16178    | 0.16468    |   0.5 | 95.60
Neigh   | 0          | 0          | 0          |   0.0 |  0.00
Comm    | 0.002872   | 0.0057145  | 0.008357   |   2.6 |  3.38
Output  | 0.000741   | 0.00078125 | 0.000876   |   0.0 |  0.46
Modify  | 0          | 0          | 0          |   0.0 |  0.00
Other   |            | 0.0009427  |            |       |  0.56

Nlocal:            156 ave         164 max         149 min
Histogram: 1 0 0 1 0 1 0 0 0 1
Nghost:            795 ave         802 max         787 min
Histogram: 1 0 0 0 1 0 1 0 0 1
Neighs:           4032 ave        4244 max        3845 min
Histogram: 1 0 0 1 0 1 0 0 0 1
FullNghs:         8064 ave        8480 max        7700 min
Histogram: 1 0 0 1 0 1 0 0 0 1

Total # of neighbors = 32256
Ave neighs/atom = 51.692308
Neighbor list builds = 0
Dangerous builds = 0

# Obtain new stress tensor

variable tmp equal pe
variable e1 equal ${tmp}
variable e1 equal -2533.52954823966
variable tmp equal press
variable p1 equal ${tmp}
variable p1 equal 1.11472944467529e-07
variable tmp equal pxx
variable pxx1 equal ${tmp}
variable pxx1 equal 1.85143341243965e-07
variable tmp equal pyy
variable pyy1 equal ${tmp}
variable pyy1 equal 2.48304218071295e-07
variable tmp equal pzz
variable pzz1 equal ${tmp}
variable pzz1 equal -9.90287259126735e-08
variable tmp equal pxy
variable pxy1 equal ${tmp}
variable pxy1 equal -0.373331940500255
variable tmp equal pxz
variable pxz1 equal ${tmp}
variable pxz1 equal 1.43994039050227e-09
variable tmp equal pyz
variable pyz1 equal ${tmp}
variable pyz1 equal 1.65557795913993e-09

# Compute elastic constant from pressure tensor

variable C1pos equal ${d1}
variable C1pos equal -1.82341402382226e-05
variable C2pos equal ${d2}
variable C2pos equal -2.39396410947967e-05
variable C3pos equal ${d3}
variable C3pos equal 1.00030617393203e-05
variable C4pos equal ${d4}
variable C4pos equal -1.64827607378148e-07
variable C5pos equal ${d5}
variable C5pos equal -1.44121033684167e-07
variable C6pos equal ${d6}
variable C6pos equal 37.3331940500474

# Combine positive and negative

variable C1${dir} equal 0.5*(${C1neg}+${C1pos})
variable C16 equal 0.5*(${C1neg}+${C1pos})
variable C16 equal 0.5*(1.81994442431073e-05+${C1pos})
variable C16 equal 0.5*(1.81994442431073e-05+-1.82341402382226e-05)
variable C2${dir} equal 0.5*(${C2neg}+${C2pos})
variable C26 equal 0.5*(${C2neg}+${C2pos})
variable C26 equal 0.5*(2.39073847026503e-05+${C2pos})
variable C26 equal 0.5*(2.39073847026503e-05+-2.39396410947967e-05)
variable C3${dir} equal 0.5*(${C3neg}+${C3pos})
variable C36 equal 0.5*(${C3neg}+${C3pos})
variable C36 equal 0.5*(-1.00340434780953e-05+${C3pos})
variable C36 equal 0.5*(-1.00340434780953e-05+1.00030617393203e-05)
variable C4${dir} equal 0.5*(${C4neg}+${C4pos})
variable C46 equal 0.5*(${C4neg}+${C4pos})
variable C46 equal 0.5*(1.77660119247806e-07+${C4pos})
variable C46 equal 0.5*(1.77660119247806e-07+-1.64827607378148e-07)
variable C5${dir} equal 0.5*(${C5neg}+${C5pos})
variable C56 equal 0.5*(${C5neg}+${C5pos})
variable C56 equal 0.5*(1.43652615983489e-07+${C5pos})
variable C56 equal 0.5*(1.43652615983489e-07+-1.44121033684167e-07)
variable C6${dir} equal 0.5*(${C6neg}+${C6pos})
variable C66 equal 0.5*(${C6neg}+${C6pos})
variable C66 equal 0.5*(37.3331938270246+${C6pos})
variable C66 equal 0.5*(37.3331938270246+37.3331940500474)

# Delete dir to make sure it is not reused

variable dir delete

# Output final values

variable C11all equal ${C11}
variable C11all equal 129.660433799
variable C22all equal ${C22}
variable C22all equal 129.660433643551
variable C33all equal ${C33}
variable C33all equal 129.66043359213

variable C12all equal 0.5*(${C12}+${C21})
variable C12all equal 0.5*(59.7993371515976+${C21})
variable C12all equal 0.5*(59.7993371515976+59.7993370441661)
variable C13all equal 0.5*(${C13}+${C31})
variable C13all equal 0.5*(59.7993371527371+${C31})
variable C13all equal 0.5*(59.7993371527371+59.7993369515589)
variable C23all equal 0.5*(${C23}+${C32})
variable C23all equal 0.5*(59.7993369906191+${C32})
variable C23all equal 0.5*(59.7993369906191+59.7993368969953)

variable C44all equal ${C44}
variable C44all equal 37.3331940891998
variable C55all equal ${C55}
variable C55all equal 37.3331939341496
variable C66all equal ${C66}
variable C66all equal 37.333193938536

variable C14all equal 0.5*(${C14}+${C41})
variable C14all equal 0.5*(2.25493364379335e-06+${C41})
variable C14all equal 0.5*(2.25493364379335e-06+-1.87041733677465e-08)
variable C15all equal 0.5*(${C15}+${C51})
variable C15all equal 0.5*(-3.42132114442495e-08+${C51})
variable C15all equal 0.5*(-3.42132114442495e-08+-1.0514667516837e-07)
variable C16all equal 0.5*(${C16}+${C61})
variable C16all equal 0.5*(-1.73479975576502e-08+${C61})
variable C16all equal 0.5*(-1.73479975576502e-08+1.45445903201944e-07)

variable C24all equal 0.5*(${C24}+${C42})
variable C24all equal 0.5*(2.45093206026495e-06+${C42})
variable C24all equal 0.5*(2.45093206026495e-06+-2.0514993867032e-08)
variable C25all equal 0.5*(${C25}+${C52})
variable C25all equal 0.5*(-3.51191382427e-08+${C52})
variable C25all equal 0.5*(-3.51191382427e-08+-1.07314632170701e-07)
variable C26all equal 0.5*(${C26}+${C62})
variable C26all equal 0.5*(-1.61281960732005e-08+${C62})
variable C26all equal 0.5*(-1.61281960732005e-08+1.47909885115541e-07)

variable C34all equal 0.5*(${C34}+${C43})
variable C34all equal 0.5*(2.59648633076425e-06+${C43})
variable C34all equal 0.5*(2.59648633076425e-06+-2.03447791531045e-08)
variable C35all equal 0.5*(${C35}+${C53})
variable C35all equal 0.5*(-3.22285308704486e-08+${C53})
variable C35all equal 0.5*(-3.22285308704486e-08+-1.05254640226129e-07)
variable C36all equal 0.5*(${C36}+${C63})
variable C36all equal 0.5*(-1.54908693874997e-08+${C63})
variable C36all equal 0.5*(-1.54908693874997e-08+1.44364104637093e-07)

variable C45all equal 0.5*(${C45}+${C54})
variable C45all equal 0.5*(3.49054988499401e-09+${C54})
variable C45all equal 0.5*(3.49054988499401e-09+1.33006248376317e-07)
variable C46all equal 0.5*(${C46}+${C64})
variable C46all equal 0.5*(6.41625593482901e-09+${C64})
variable C46all equal 0.5*(6.41625593482901e-09+-1.71820923664608e-07)
variable C56all equal 0.5*(${C56}+${C65})
variable C56all equal 0.5*(-2.34208850338997e-10+${C65})
variable C56all equal 0.5*(-2.34208850338997e-10+-4.540517303045e-10)

# Average moduli for cubic crystals

variable C11cubic equal (${C11all}+${C22all}+${C33all})/3.0
variable C11cubic equal (129.660433799+${C22all}+${C33all})/3.0
variable C11cubic equal (129.660433799+129.660433643551+${C33all})/3.0
variable C11cubic equal (129.660433799+129.660433643551+129.66043359213)/3.0
variable C12cubic equal (${C12all}+${C13all}+${C23all})/3.0
variable C12cubic equal (59.7993370978818+${C13all}+${C23all})/3.0
variable C12cubic equal (59.7993370978818+59.799337052148+${C23all})/3.0
variable C12cubic equal (59.7993370978818+59.799337052148+59.7993369438072)/3.0
variable C44cubic equal (${C44all}+${C55all}+${C66all})/3.0
variable C44cubic equal (37.3331940891998+${C55all}+${C66all})/3.0
variable C44cubic equal (37.3331940891998+37.3331939341496+${C66all})/3.0
variable C44cubic equal (37.3331940891998+37.3331939341496+37.333193938536)/3.0

variable bulkmodulus equal (${C11cubic}+2*${C12cubic})/3.0
variable bulkmodulus equal (129.660433678227+2*${C12cubic})/3.0
variable bulkmodulus equal (129.660433678227+2*59.799337031279)/3.0
variable shearmodulus1 equal ${C44cubic}
variable shearmodulus1 equal 37.3331939872951
variable shearmodulus2 equal (${C11cubic}-${C12cubic})/2.0
variable shearmodulus2 equal (129.660433678227-${C12cubic})/2.0
variable shearmodulus2 equal (129.660433678227-59.799337031279)/2.0
variable poissonratio equal 1.0/(1.0+${C11cubic}/${C12cubic})
variable poissonratio equal 1.0/(1.0+129.660433678227/${C12cubic})
variable poissonratio equal 1.0/(1.0+129.660433678227/59.799337031279)

# For Stillinger-Weber silicon, the analytical results
# are known to be (E. R. Cowley, 1988):
#               C11 = 151.4 GPa
#               C12 = 76.4 GPa
#               C44 = 56.4 GPa

print "========================================="
=========================================
print "Components of the Elastic Constant Tensor"
Components of the Elastic Constant Tensor
print "========================================="
=========================================

print "Elastic Constant C11all = ${C11all} ${cunits}"
Elastic Constant C11all = 129.660433799 GPa
print "Elastic Constant C22all = ${C22all} ${cunits}"
Elastic Constant C22all = 129.660433643551 GPa
print "Elastic Constant C33all = ${C33all} ${cunits}"
Elastic Constant C33all = 129.66043359213 GPa

print "Elastic Constant C12all = ${C12all} ${cunits}"
Elastic Constant C12all = 59.7993370978818 GPa
print "Elastic Constant C13all = ${C13all} ${cunits}"
Elastic Constant C13all = 59.799337052148 GPa
print "Elastic Constant C23all = ${C23all} ${cunits}"
Elastic Constant C23all = 59.7993369438072 GPa

print "Elastic Constant C44all = ${C44all} ${cunits}"
Elastic Constant C44all = 37.3331940891998 GPa
print "Elastic Constant C55all = ${C55all} ${cunits}"
Elastic Constant C55all = 37.3331939341496 GPa
print "Elastic Constant C66all = ${C66all} ${cunits}"
Elastic Constant C66all = 37.333193938536 GPa

print "Elastic Constant C14all = ${C14all} ${cunits}"
Elastic Constant C14all = 1.1181147352128e-06 GPa
print "Elastic Constant C15all = ${C15all} ${cunits}"
Elastic Constant C15all = -6.96799433063097e-08 GPa
print "Elastic Constant C16all = ${C16all} ${cunits}"
Elastic Constant C16all = 6.40489528221469e-08 GPa

print "Elastic Constant C24all = ${C24all} ${cunits}"
Elastic Constant C24all = 1.21520853319896e-06 GPa
print "Elastic Constant C25all = ${C25all} ${cunits}"
Elastic Constant C25all = -7.12168852067005e-08 GPa
print "Elastic Constant C26all = ${C26all} ${cunits}"
Elastic Constant C26all = 6.58908445211702e-08 GPa

print "Elastic Constant C34all = ${C34all} ${cunits}"
Elastic Constant C34all = 1.28807077580557e-06 GPa
print "Elastic Constant C35all = ${C35all} ${cunits}"
Elastic Constant C35all = -6.87415855482888e-08 GPa
print "Elastic Constant C36all = ${C36all} ${cunits}"
Elastic Constant C36all = 6.44366176247966e-08 GPa

print "Elastic Constant C45all = ${C45all} ${cunits}"
Elastic Constant C45all = 6.82483991306555e-08 GPa
print "Elastic Constant C46all = ${C46all} ${cunits}"
Elastic Constant C46all = -8.27023338648895e-08 GPa
print "Elastic Constant C56all = ${C56all} ${cunits}"
Elastic Constant C56all = -3.44130290321749e-10 GPa

print "========================================="
=========================================
print "Average properties for a cubic crystal"
Average properties for a cubic crystal
print "========================================="
=========================================

print "Bulk Modulus = ${bulkmodulus} ${cunits}"
Bulk Modulus = 83.0863692469283 GPa
print "Shear Modulus 1 = ${shearmodulus1} ${cunits}"
Shear Modulus 1 = 37.3331939872951 GPa
print "Shear Modulus 2 = ${shearmodulus2} ${cunits}"
Shear Modulus 2 = 34.930548323474 GPa
print "Poisson Ratio = ${poissonratio}"
Poisson Ratio = 0.315630789625349
Total wall time: 0:00:02
