LAMMPS (22 Dec 2022)
  using 1 OpenMP thread(s) per MPI task
Loaded 1 plugins from C:\Program Files\LAMMPS 64-bit 23Jun2022\plugins
Loaded 0 plugins from C:\Program Files\LAMMPS 64-bit 23Jun2022-MPI\plugins
Loaded 1 plugins from C:\Program Files\LAMMPS 64-bit 22Dec2022-MSMPI\plugins
Loaded 1 plugins from C:\Program Files\LAMMPS 64-bit 28Mar2023-MPI\plugins
# Compute elastic constant tensor for a crystal
#
# Written by Aidan Thompson (Sandia, athomps@sandia.gov)
#
#  This script uses the following three include files.
#
#   init.mod      (must be modified for different crystal structures)
# 	       	  Define units, deformation parameters and initial
#		  configuration of the atoms and simulation cell.
#
#
#   potential.mod    (must be modified for different pair styles)
# 		     Define pair style and other attributes
#		     not stored in restart file
#
#
#   displace.mod    (displace.mod should not need to be modified)
# 		    Perform positive and negative box displacements
# 		    in direction ${dir} and size ${up}.
# 		    It uses the resultant changes
#		    in stress to compute one
# 		    row of the elastic stiffness tensor
#
#		    Inputs variables:
#		    	   dir = the Voigt deformation component
#		    		    (1,2,3,4,5,6)
#		    Global constants:
#       	    	   up = the deformation magnitude (strain units)
#       		   cfac = conversion from LAMMPS pressure units to
#               	   output units for elastic constants
#
#
#  To run this on a different system, it should only be necessary to
#  modify the files init.mod and potential.mod. In order to calculate
#  the elastic constants correctly, care must be taken to specify
#  the correct units in init.mod (units, cfac and cunits). It is also
#  important to verify that the minimization of energy w.r.t atom
#  positions in the deformed cell is fully converged.
#  One indication of this is that the elastic constants are insensitive
#  to the choice of the variable ${up} in init.mod. Another is to check
#  the final max and two-norm forces reported in the log file. If you know
#  that minimization is not required, you can set maxiter = 0.0 in
#  init.mod.
#

include init.mod
# NOTE: This script can be modified for different atomic structures,
# units, etc. See in.elastic for more info.
#

# Define the finite deformation size. Try several values of this
# variable to verify that results do not depend on it.
variable up equal 1.0e-6

# Define the amount of random jiggle for atoms
# This prevents atoms from staying on saddle points
variable atomjiggle equal 1.0e-5

# Uncomment one of these blocks, depending on what units
# you are using in LAMMPS and for output

# metal units, elastic constants in eV/A^3
#units		metal
#variable cfac equal 6.2414e-7
#variable cunits string eV/A^3

# metal units, elastic constants in GPa
units		metal
variable cfac equal 1.0e-4
variable cunits string GPa

# real units, elastic constants in GPa
#units		real
#variable cfac equal 1.01325e-4
#variable cunits string GPa

# Define minimization parameters
variable etol equal 0.0
variable ftol equal 1.0e-10
variable maxiter equal 1000
variable maxeval equal 100000
variable dmax equal 1.0e-2

# generate the box and atom positions using a diamond lattice

dimension    3
boundary     p p p
read_data    data.in
Reading data file ...
  orthogonal box = (0.010429753 0.010429753 0.010429753) to (7.2855702 7.2855702 7.2855702)
  1 by 2 by 2 MPI processor grid
  reading atoms ...
  32 atoms
  reading velocities ...
  32 velocities
  read_data CPU = 0.001 seconds
#replicate    2 3 4
replicate    2 3 4
Replication is creating a 2x3x4 = 24 times larger system...
  orthogonal box = (0.010429753 0.010429753 0.010429753) to (14.560711 21.835851 29.110992)
  1 by 2 by 2 MPI processor grid
  768 atoms
  replicate CPU = 0.000 seconds
change_box   all triclinic
Changing box ...
  triclinic box = (0.010429753 0.010429753 0.010429753) to (14.560711 21.835851 29.110992) with tilt (0 0 0)

# Need to set mass to something, just to satisfy LAMMPS
mass 1 1.0e-20

include potential.mod
# NOTE: This script can be modified for different pair styles
# See in.elastic for more info.

# Choose potential
#-----------------------
#pair_style	sw
#pair_coeff * * Si.sw Si
#-----------------------
#pair_style morse	2.83994742	# D0[eV] a[1/A] r0[A] rc[A], 1NN for BCC
#pair_coeff 1 1	2.1173	1.0202	2.4595	2.6497	#	Fe-Fe
#-----------------------
#pair_style smatb # R0(A)   p       q     A(eV)   xi(eV)  Rcs(A)   Rc(A), 4NN: Rcs=4NN, Rc=(4NN+5NN)/2
#pair_coeff 1 1	2.4802	7.0149	2.3779	0.3144	3.0551	4.033	4.176	#	Co	Co
#-----------------------
#pair_style eam/alloy
#pair_coeff * * AlCrFeCoNi_Zhou04.eam.alloy Fe
#-----------------------
pair_style meam
#pair_coeff * * ./../../library.meam Co Al W ./../../CoAlW.meam Co Al
#pair_coeff * * ./../../library.meam Co Al W ./../../CoAlW.meam Al W
pair_coeff * * ./../../library.meam Co Al W ./../../CoAlW.meam Co Al W
#-----------------------

# Setup neighbor style
neighbor 1.0 nsq
neigh_modify once no every 1 delay 0 check yes

# Setup minimization style
min_style	     cg
min_modify	     dmax ${dmax} line quadratic
min_modify	     dmax 0.01 line quadratic

# Setup output
thermo		1
thermo_style custom step temp pe press pxx pyy pzz pxy pxz pyz lx ly lz vol
thermo_modify norm no

# Compute initial state
fix 3 all box/relax  aniso 0.0
minimize ${etol} ${ftol} ${maxiter} ${maxeval}
minimize 0 ${ftol} ${maxiter} ${maxeval}
minimize 0 1e-10 ${maxiter} ${maxeval}
minimize 0 1e-10 1000 ${maxeval}
minimize 0 1e-10 1000 100000
Neighbor list info ...
  update: every = 1 steps, delay = 0 steps, check = yes
  max neighbors/atom: 2000, page size: 100000
  master list distance cutoff = 9.5
  ghost atom cutoff = 9.5
  2 neighbor lists, perpetual/occasional/extra = 2 0 0
  (1) pair meam, perpetual
      attributes: full, newton on
      pair build: full/nsq
      stencil: none
      bin: none
  (2) pair meam, perpetual, half/full from (1)
      attributes: half, newton on
      pair build: halffull/newton
      stencil: none
      bin: none
Per MPI rank memory allocation (min/avg/max) = 11.2 | 11.22 | 11.23 Mbytes
   Step          Temp          PotEng         Press           Pxx            Pyy            Pzz            Pxy            Pxz            Pyz             Lx             Ly             Lz           Volume    
         0   0             -3456.8501      0.023020415    0.023020415    0.023020415    0.023020415    2.5542071e-11 -1.5898833e-11 -1.000895e-11   14.550281      21.825421      29.100562      9241.3495    
         1   0             -3456.8501     -0.00019187949 -0.00019187958 -0.00019187941 -0.00019187947  4.4212613e-11  3.8495962e-11 -3.2644576e-11  14.550281      21.825422      29.100562      9241.3496    
         2   0             -3456.8501     -0.00040510446 -0.00040501655 -0.00040517388 -0.00040512295 -3.7341083e-12  1.7246191e-11  8.5153069e-11  14.550281      21.825422      29.100562      9241.3497    
         3   0             -3456.8501      0.00014449583  0.00014455262  0.00014445098  0.00014448388 -8.8348233e-12 -2.8948964e-11  2.2173674e-11  14.550281      21.825422      29.100562      9241.3497    
         4   0             -3456.8501     -3.0267295e-06 -5.1327908e-05  3.5114454e-05  7.1332659e-06  2.4906888e-11  8.2766319e-12  2.4483432e-11  14.550281      21.825422      29.100562      9241.3497    
         5   0             -3456.8501      8.9662687e-06  1.0388867e-05  7.8429056e-06  8.6670337e-06  4.7927473e-12 -5.5164714e-11  3.3876447e-11  14.550281      21.825422      29.100562      9241.3497    
         6   0             -3456.8501     -7.5715134e-06 -4.280557e-06  -1.0170294e-05 -8.2636888e-06  2.4714408e-11 -1.1972244e-11 -3.9727833e-11  14.550281      21.825422      29.100562      9241.3497    
         7   0             -3456.8501      3.3015727e-07  8.6045686e-07 -5.5675632e-08  1.8569059e-07  4.0035801e-12  7.4682167e-12  4.2037591e-11  14.550281      21.825422      29.100562      9241.3497    
         8   0             -3456.8501     -1.1116072e-06 -1.184712e-06  -1.0583686e-06 -1.0917411e-06  6.9292732e-12 -1.4128018e-11  4.080572e-11   14.550281      21.825422      29.100562      9241.3497    
         9   0             -3456.8501      4.1108469e-07 -1.4257204e-06  1.7474832e-06  9.1149123e-07 -9.4315108e-13 -9.9704542e-12 -8.4691117e-12  14.550281      21.825422      29.100562      9241.3497    
        10   0             -3456.8501     -1.6394302e-07 -2.5470503e-07 -1.0099924e-07 -1.361248e-07  -1.1337061e-11 -1.5282897e-11 -4.0959704e-11  14.550281      21.825422      29.100562      9241.3497    
        11   0             -3456.8501      6.1372355e-08  3.1058927e-09  1.0173405e-07  7.9277122e-08 -1.5398385e-13  2.3136073e-11  3.4030431e-11  14.550281      21.825422      29.100562      9241.3497    
        12   0             -3456.8501     -1.3510363e-08  1.9072478e-07 -1.5504141e-07 -7.621446e-08  -8.8540713e-13 -4.7350034e-12 -2.0633836e-11  14.550281      21.825422      29.100562      9241.3497    
        13   0             -3456.8501     -1.2473867e-06 -1.4761572e-06 -1.0890348e-06 -1.176968e-06   1.1548789e-13 -2.2173674e-11  2.4637416e-12  14.550281      21.825422      29.100562      9241.3497    
        14   0             -3456.8501      1.954082e-08  -1.7879107e-07  1.5700193e-07  8.0411598e-08  3.0026851e-12  5.6204105e-12 -2.00179e-11    14.550281      21.825422      29.100562      9241.3497    
        15   0             -3456.8501      4.7192842e-09  7.5590287e-09  2.7673977e-09  3.8314261e-09 -2.00179e-12   -1.1548789e-11 -2.3559529e-11  14.550281      21.825422      29.100562      9241.3497    
        16   0             -3456.8501     -4.4455124e-08 -4.327743e-08  -4.5280491e-08 -4.4807452e-08  1.2896147e-12  8.161144e-12  -3.1720673e-11  14.550281      21.825422      29.100562      9241.3497    
        17   0             -3456.8501     -1.9600245e-08 -3.0598377e-07  1.7328295e-07  7.3900083e-08 -5.9668742e-13 -2.6292742e-11  2.5869287e-11  14.550281      21.825422      29.100562      9241.3497    
        18   0             -3456.8501      1.4713827e-07  1.2804673e-07  1.6023559e-07  1.5313247e-07 -1.1799012e-11 -7.3142328e-13 -2.3559529e-11  14.550281      21.825422      29.100562      9241.3497    
        19   0             -3456.8501      2.2751114e-11  6.5817702e-09 -4.2247009e-09 -2.2888159e-09 -6.159354e-12  -3.4261406e-11  4.6657106e-11  14.550281      21.825422      29.100562      9241.3497    
Loop time of 0.271921 on 4 procs for 19 steps with 768 atoms

66.1% CPU use with 4 MPI tasks x 1 OpenMP threads

Minimization stats:
  Stopping criterion = force tolerance
  Energy initial, next-to-last, final = 
     -3456.85012919291  -3456.85012919291  -3456.85012919292
  Force two-norm initial, final = 0.00023086281 4.7074557e-11
  Force max component initial, final = 0.00013278169 3.7963632e-11
  Final line search alpha, max atom move = 1 3.7963632e-11
  Iterations, force evaluations = 19 38

MPI task timing breakdown:
Section |  min time  |  avg time  |  max time  |%varavg| %total
---------------------------------------------------------------
Pair    | 0.26629    | 0.26679    | 0.26732    |   0.1 | 98.11
Neigh   | 0          | 0          | 0          |   0.0 |  0.00
Comm    | 0.001958   | 0.0025223  | 0.003043   |   1.0 |  0.93
Output  | 0.000272   | 0.000292   | 0.000347   |   0.0 |  0.11
Modify  | 0          | 0          | 0          |   0.0 |  0.00
Other   |            | 0.00232    |            |       |  0.85

Nlocal:            192 ave         196 max         188 min
Histogram: 2 0 0 0 0 0 0 0 0 2
Nghost:           2876 ave        2880 max        2872 min
Histogram: 2 0 0 0 0 0 0 0 0 2
Neighs:          30720 ave       31356 max       30084 min
Histogram: 2 0 0 0 0 0 0 0 0 2
FullNghs:        61440 ave       62720 max       60160 min
Histogram: 2 0 0 0 0 0 0 0 0 2

Total # of neighbors = 245760
Ave neighs/atom = 320
Neighbor list builds = 0
Dangerous builds = 0

variable tmp equal pxx
variable pxx0 equal ${tmp}
variable pxx0 equal 6.58177015768756e-09
variable tmp equal pyy
variable pyy0 equal ${tmp}
variable pyy0 equal -4.22470088367908e-09
variable tmp equal pzz
variable pzz0 equal ${tmp}
variable pzz0 equal -2.2888159328986e-09
variable tmp equal pyz
variable pyz0 equal ${tmp}
variable pyz0 equal 4.66571062747763e-11
variable tmp equal pxz
variable pxz0 equal ${tmp}
variable pxz0 equal -3.42614064228968e-11
variable tmp equal pxy
variable pxy0 equal ${tmp}
variable pxy0 equal -6.15935396366684e-12

variable tmp equal lx
variable lx0 equal ${tmp}
variable lx0 equal 14.5502810690918
variable tmp equal ly
variable ly0 equal ${tmp}
variable ly0 equal 21.8254216036378
variable tmp equal lz
variable lz0 equal ${tmp}
variable lz0 equal 29.1005621381837

# These formulas define the derivatives w.r.t. strain components
# Constants uses $, variables use v_
variable d1 equal -(v_pxx1-${pxx0})/(v_delta/v_len0)*${cfac}
variable d1 equal -(v_pxx1-6.58177015768756e-09)/(v_delta/v_len0)*${cfac}
variable d1 equal -(v_pxx1-6.58177015768756e-09)/(v_delta/v_len0)*0.0001
variable d2 equal -(v_pyy1-${pyy0})/(v_delta/v_len0)*${cfac}
variable d2 equal -(v_pyy1--4.22470088367908e-09)/(v_delta/v_len0)*${cfac}
variable d2 equal -(v_pyy1--4.22470088367908e-09)/(v_delta/v_len0)*0.0001
variable d3 equal -(v_pzz1-${pzz0})/(v_delta/v_len0)*${cfac}
variable d3 equal -(v_pzz1--2.2888159328986e-09)/(v_delta/v_len0)*${cfac}
variable d3 equal -(v_pzz1--2.2888159328986e-09)/(v_delta/v_len0)*0.0001
variable d4 equal -(v_pyz1-${pyz0})/(v_delta/v_len0)*${cfac}
variable d4 equal -(v_pyz1-4.66571062747763e-11)/(v_delta/v_len0)*${cfac}
variable d4 equal -(v_pyz1-4.66571062747763e-11)/(v_delta/v_len0)*0.0001
variable d5 equal -(v_pxz1-${pxz0})/(v_delta/v_len0)*${cfac}
variable d5 equal -(v_pxz1--3.42614064228968e-11)/(v_delta/v_len0)*${cfac}
variable d5 equal -(v_pxz1--3.42614064228968e-11)/(v_delta/v_len0)*0.0001
variable d6 equal -(v_pxy1-${pxy0})/(v_delta/v_len0)*${cfac}
variable d6 equal -(v_pxy1--6.15935396366684e-12)/(v_delta/v_len0)*${cfac}
variable d6 equal -(v_pxy1--6.15935396366684e-12)/(v_delta/v_len0)*0.0001

displace_atoms all random ${atomjiggle} ${atomjiggle} ${atomjiggle} 87287 units box
displace_atoms all random 1e-05 ${atomjiggle} ${atomjiggle} 87287 units box
displace_atoms all random 1e-05 1e-05 ${atomjiggle} 87287 units box
displace_atoms all random 1e-05 1e-05 1e-05 87287 units box
Displacing atoms ...

# Write restart
unfix 3
write_restart restart.equil
System init for write_restart ...

# uxx Perturbation

variable dir equal 1
include displace.mod
# NOTE: This script should not need to be
# modified. See in.elastic for more info.
#
# Find which reference length to use

if "${dir} == 1" then    "variable len0 equal ${lx0}"
variable len0 equal ${lx0}
variable len0 equal 14.5502810690918
if "${dir} == 2" then    "variable len0 equal ${ly0}"
if "${dir} == 3" then    "variable len0 equal ${lz0}"
if "${dir} == 4" then    "variable len0 equal ${lz0}"
if "${dir} == 5" then    "variable len0 equal ${lz0}"
if "${dir} == 6" then    "variable len0 equal ${ly0}"

# Reset box and simulation parameters

clear
  using 1 OpenMP thread(s) per MPI task
Loaded 1 plugins from C:\Program Files\LAMMPS 64-bit 23Jun2022\plugins
Loaded 0 plugins from C:\Program Files\LAMMPS 64-bit 23Jun2022-MPI\plugins
Loaded 1 plugins from C:\Program Files\LAMMPS 64-bit 22Dec2022-MSMPI\plugins
Loaded 1 plugins from C:\Program Files\LAMMPS 64-bit 28Mar2023-MPI\plugins
box tilt large

The 'box' command has been removed and will be ignored

read_restart restart.equil
Reading restart file ...
  restart file = 22 Dec 2022, LAMMPS = 22 Dec 2022
  restoring atom style atomic from restart
  triclinic box = (0.010429713 0.010429693 0.010429673) to (14.560711 21.835851 29.110992) with tilt (0 0 0)
  1 by 2 by 2 MPI processor grid
  pair style meam stores no restart info
  768 atoms
  read_restart CPU = 0.000 seconds
include potential.mod
# NOTE: This script can be modified for different pair styles
# See in.elastic for more info.

# Choose potential
#-----------------------
#pair_style	sw
#pair_coeff * * Si.sw Si
#-----------------------
#pair_style morse	2.83994742	# D0[eV] a[1/A] r0[A] rc[A], 1NN for BCC
#pair_coeff 1 1	2.1173	1.0202	2.4595	2.6497	#	Fe-Fe
#-----------------------
#pair_style smatb # R0(A)   p       q     A(eV)   xi(eV)  Rcs(A)   Rc(A), 4NN: Rcs=4NN, Rc=(4NN+5NN)/2
#pair_coeff 1 1	2.4802	7.0149	2.3779	0.3144	3.0551	4.033	4.176	#	Co	Co
#-----------------------
#pair_style eam/alloy
#pair_coeff * * AlCrFeCoNi_Zhou04.eam.alloy Fe
#-----------------------
pair_style meam
#pair_coeff * * ./../../library.meam Co Al W ./../../CoAlW.meam Co Al
#pair_coeff * * ./../../library.meam Co Al W ./../../CoAlW.meam Al W
pair_coeff * * ./../../library.meam Co Al W ./../../CoAlW.meam Co Al W
#-----------------------

# Setup neighbor style
neighbor 1.0 nsq
neigh_modify once no every 1 delay 0 check yes

# Setup minimization style
min_style	     cg
min_modify	     dmax ${dmax} line quadratic
min_modify	     dmax 0.01 line quadratic

# Setup output
thermo		1
thermo_style custom step temp pe press pxx pyy pzz pxy pxz pyz lx ly lz vol
thermo_modify norm no

# Negative deformation

variable delta equal -${up}*${len0}
variable delta equal -1e-06*${len0}
variable delta equal -1e-06*14.5502810690918
variable deltaxy equal -${up}*xy
variable deltaxy equal -1e-06*xy
variable deltaxz equal -${up}*xz
variable deltaxz equal -1e-06*xz
variable deltayz equal -${up}*yz
variable deltayz equal -1e-06*yz
if "${dir} == 1" then    "change_box all x delta 0 ${delta} xy delta ${deltaxy} xz delta ${deltaxz} remap units box"
change_box all x delta 0 ${delta} xy delta ${deltaxy} xz delta ${deltaxz} remap units box
change_box all x delta 0 -1.45502810690918e-05 xy delta ${deltaxy} xz delta ${deltaxz} remap units box
change_box all x delta 0 -1.45502810690918e-05 xy delta -0 xz delta ${deltaxz} remap units box
change_box all x delta 0 -1.45502810690918e-05 xy delta -0 xz delta -0 remap units box
Changing box ...
  triclinic box = (0.010429713 0.010429693 0.010429673) to (14.560696 21.835851 29.110992) with tilt (0 0 0)
  triclinic box = (0.010429713 0.010429693 0.010429673) to (14.560696 21.835851 29.110992) with tilt (0 0 0)
  triclinic box = (0.010429713 0.010429693 0.010429673) to (14.560696 21.835851 29.110992) with tilt (0 0 0)
if "${dir} == 2" then    "change_box all y delta 0 ${delta} yz delta ${deltayz} remap units box"
if "${dir} == 3" then    "change_box all z delta 0 ${delta} remap units box"
if "${dir} == 4" then    "change_box all yz delta ${delta} remap units box"
if "${dir} == 5" then    "change_box all xz delta ${delta} remap units box"
if "${dir} == 6" then    "change_box all xy delta ${delta} remap units box"

# Relax atoms positions

minimize ${etol} ${ftol} ${maxiter} ${maxeval}
minimize 0 ${ftol} ${maxiter} ${maxeval}
minimize 0 1e-10 ${maxiter} ${maxeval}
minimize 0 1e-10 1000 ${maxeval}
minimize 0 1e-10 1000 100000
Neighbor list info ...
  update: every = 1 steps, delay = 0 steps, check = yes
  max neighbors/atom: 2000, page size: 100000
  master list distance cutoff = 9.5
  ghost atom cutoff = 9.5
  2 neighbor lists, perpetual/occasional/extra = 2 0 0
  (1) pair meam, perpetual
      attributes: full, newton on
      pair build: full/nsq
      stencil: none
      bin: none
  (2) pair meam, perpetual, half/full from (1)
      attributes: half, newton on
      pair build: halffull/newton
      stencil: none
      bin: none
Per MPI rank memory allocation (min/avg/max) = 11.13 | 11.15 | 11.17 Mbytes
   Step          Temp          PotEng         Press           Pxx            Pyy            Pzz            Pxy            Pxz            Pyz             Lx             Ly             Lz           Volume    
        19   0             -3456.8501      1.9476373      2.9890758      1.391866       1.4619701     -0.030760839   -0.026128271    0.047903711    14.550267      21.825422      29.100562      9241.3404    
        20   0             -3456.8501      1.9791166      2.9942508      1.4578603      1.4852387     -0.021613406   -0.012120073    0.038858383    14.550267      21.825422      29.100562      9241.3404    
        21   0             -3456.8501      1.990904       2.9879094      1.4925298      1.4922728     -0.013555887   -0.0034578322   0.022229261    14.550267      21.825422      29.100562      9241.3404    
        22   0             -3456.8501      1.9867541      2.9814065      1.4918001      1.4870556     -0.0070702032  -0.0016991196   0.0070915292   14.550267      21.825422      29.100562      9241.3404    
        23   0             -3456.8501      1.9854264      2.982909       1.4875796      1.4857906     -0.0010419376  -0.00065144818 -9.6014031e-05  14.550267      21.825422      29.100562      9241.3404    
        24   0             -3456.8501      1.9861059      2.9850051      1.4860561      1.4872565      0.0021540078   0.00046633934 -0.0019543977   14.550267      21.825422      29.100562      9241.3404    
        25   0             -3456.8501      1.98644        2.984751       1.4865697      1.4879992      0.0019459304   0.00078688223 -0.0018566125   14.550267      21.825422      29.100562      9241.3404    
        26   0             -3456.8501      1.9864115      2.9841803      1.4875999      1.4874543      0.00066062779  0.00033122708 -0.0012675131   14.550267      21.825422      29.100562      9241.3404    
        27   0             -3456.8501      1.9862642      2.9840228      1.487769       1.4870007     -0.00014470634 -8.5605826e-05 -0.00020276366  14.550267      21.825422      29.100562      9241.3404    
        28   0             -3456.8501      1.9861598      2.9841192      1.4871282      1.487232      -0.00027745688 -0.00013253822  0.00062440802  14.550267      21.825422      29.100562      9241.3404    
        29   0             -3456.8501      1.9862893      2.9843339      1.4870368      1.4874972     -0.00027747327 -8.9325774e-05  0.00063580189  14.550267      21.825422      29.100562      9241.3404    
        30   0             -3456.8501      1.9863788      2.9843478      1.487422       1.4873665     -0.0002094225  -6.1319714e-05  0.00013956887  14.550267      21.825422      29.100562      9241.3404    
        31   0             -3456.8501      1.9862432      2.984123       1.4874214      1.4871853      3.4468453e-05  1.1338816e-05 -0.00017002955  14.550267      21.825422      29.100562      9241.3404    
        32   0             -3456.8501      1.986212       2.9841026      1.4872619      1.4872716      0.00022174139  7.3127931e-05 -0.00021927584  14.550267      21.825422      29.100562      9241.3404    
        33   0             -3456.8501      1.9863272      2.9842995      1.4872725      1.4874094      0.00016580915  5.5738929e-05 -0.00015061192  14.550267      21.825422      29.100562      9241.3404    
        34   0             -3456.8501      1.9863166      2.9842997      1.4873275      1.4873224     -1.2474061e-05 -3.0485463e-06 -3.8251591e-05  14.550267      21.825422      29.100562      9241.3404    
        35   0             -3456.8501      1.9862445      2.984168       1.4873068      1.4872587     -9.2703587e-05 -2.8669676e-05  9.1695997e-05  14.550267      21.825422      29.100562      9241.3404    
        36   0             -3456.8501      1.9862612      2.9841599      1.487314       1.4873097     -7.6631149e-05 -2.694929e-05   0.00014033699  14.550267      21.825422      29.100562      9241.3404    
        37   0             -3456.8501      1.9863035      2.9842425      1.487334       1.4873338     -3.1528427e-05 -1.5509535e-05  6.0597504e-05  14.550267      21.825422      29.100562      9241.3404    
        38   0             -3456.8501      1.9862869      2.9842465      1.4873044      1.4873097      6.2446315e-06  1.7577411e-06 -2.1544592e-05  14.550267      21.825422      29.100562      9241.3404    
        39   0             -3456.8501      1.9862713      2.9842152      1.4872915      1.4873073      3.1761879e-05  1.4528687e-05 -5.0069884e-05  14.550267      21.825422      29.100562      9241.3404    
        40   0             -3456.8501      1.9862787      2.9842086      1.4873152      1.4873124      2.7682087e-05  1.0235746e-05 -3.5653303e-05  14.550267      21.825422      29.100562      9241.3404    
        41   0             -3456.8501      1.9862837      2.9842171      1.487324       1.4873101      7.8791906e-06  8.4068766e-07 -1.0186586e-05  14.550267      21.825422      29.100562      9241.3404    
        42   0             -3456.8501      1.9862828      2.9842238      1.4873119      1.4873126     -6.5316244e-06 -2.5779175e-06  9.6298642e-06  14.550267      21.825422      29.100562      9241.3404    
        43   0             -3456.8501      1.9862805      2.9842221      1.4873056      1.4873138     -9.8358054e-06 -2.4356762e-06  1.4562463e-05  14.550267      21.825422      29.100562      9241.3404    
        44   0             -3456.8501      1.9862791      2.9842173      1.4873098      1.4873102     -6.2630282e-06 -2.0613337e-06  7.2956423e-06  14.550267      21.825422      29.100562      9241.3404    
        45   0             -3456.8501      1.9862812      2.9842181      1.487315       1.4873107     -1.2238026e-07 -6.0516993e-07 -9.8719468e-07  14.550267      21.825422      29.100562      9241.3404    
        46   0             -3456.8501      1.9862825      2.9842207      1.4873136      1.4873131      3.6945737e-06  1.2867077e-06 -3.7735412e-06  14.550267      21.825422      29.100562      9241.3404    
        47   0             -3456.8501      1.9862807      2.98422        1.4873101      1.487312       3.1044823e-06  1.3721779e-06 -3.3963374e-06  14.550267      21.825422      29.100562      9241.3404    
        48   0             -3456.8501      1.9862801      2.984219       1.4873103      1.4873109      4.3401794e-07  1.412978e-07  -1.6109834e-06  14.550267      21.825422      29.100562      9241.3404    
        49   0             -3456.8501      1.9862813      2.9842196      1.4873125      1.4873119     -6.310945e-07  -3.2607685e-07  4.0681403e-07  14.550267      21.825422      29.100562      9241.3404    
        50   0             -3456.8501      1.9862814      2.9842196      1.4873125      1.4873121     -6.2250021e-07 -2.1972872e-07  1.3352831e-06  14.550267      21.825422      29.100562      9241.3404    
        51   0             -3456.8501      1.9862808      2.9842193      1.4873114      1.4873116     -4.2457202e-07 -1.0816287e-07  8.4856411e-07  14.550267      21.825422      29.100562      9241.3404    
        52   0             -3456.8501      1.9862809      2.9842196      1.4873114      1.4873117     -1.7122842e-07 -6.6094823e-08 -2.1289674e-08  14.550267      21.825422      29.100562      9241.3404    
        53   0             -3456.8501      1.9862811      2.9842197      1.4873118      1.4873119      1.5783914e-07  3.9160288e-08 -3.6978411e-07  14.550267      21.825422      29.100562      9241.3404    
        54   0             -3456.8501      1.986281       2.9842195      1.4873119      1.4873118      2.8504039e-07  1.0520707e-07 -2.7530246e-07  14.550267      21.825422      29.100562      9241.3404    
        55   0             -3456.8501      1.986281       2.9842195      1.4873117      1.4873117      1.2881072e-07  5.0825962e-08 -1.1267471e-07  14.550267      21.825422      29.100562      9241.3404    
        56   0             -3456.8501      1.986281       2.9842196      1.4873117      1.4873117     -5.1826656e-08 -2.1164505e-08  1.8167957e-08  14.550267      21.825422      29.100562      9241.3404    
        57   0             -3456.8501      1.986281       2.9842196      1.4873117      1.4873118     -9.6610478e-08 -3.5521781e-08  1.0409688e-07  14.550267      21.825422      29.100562      9241.3404    
        58   0             -3456.8501      1.986281       2.9842195      1.4873118      1.4873118     -5.2026258e-08 -1.6702298e-08  9.4822425e-08  14.550267      21.825422      29.100562      9241.3404    
        59   0             -3456.8501      1.986281       2.9842195      1.4873118      1.4873118     -8.5974658e-09 -3.0641277e-09  2.3363839e-08  14.550267      21.825422      29.100562      9241.3404    
        60   0             -3456.8501      1.986281       2.9842195      1.4873117      1.4873117      1.3940316e-08  4.0920479e-09 -2.5699776e-08  14.550267      21.825422      29.100562      9241.3404    
        61   0             -3456.8501      1.986281       2.9842195      1.4873117      1.4873117      1.7783584e-08  6.5626442e-09 -2.6649857e-08  14.550267      21.825422      29.100562      9241.3404    
        62   0             -3456.8501      1.986281       2.9842195      1.4873117      1.4873118      1.0066348e-08  3.8935625e-09 -1.305538e-08   14.550267      21.825422      29.100562      9241.3404    
        63   0             -3456.8501      1.986281       2.9842195      1.4873118      1.4873117      4.3275279e-10 -2.7871105e-11 -9.9843228e-10  14.550267      21.825422      29.100562      9241.3404    
        64   0             -3456.8501      1.986281       2.9842195      1.4873117      1.4873117     -3.7299738e-09 -1.4166336e-09  5.5375727e-09  14.550267      21.825422      29.100562      9241.3404    
        65   0             -3456.8501      1.986281       2.9842195      1.4873117      1.4873118     -3.4185315e-09 -1.1241217e-09  5.4953811e-09  14.550267      21.825422      29.100562      9241.3404    
Loop time of 0.679812 on 4 procs for 46 steps with 768 atoms

71.3% CPU use with 4 MPI tasks x 1 OpenMP threads

Minimization stats:
  Stopping criterion = force tolerance
  Energy initial, next-to-last, final = 
     -3456.85012886753  -3456.85012918433  -3456.85012918433
  Force two-norm initial, final = 0.0026380946 8.4640109e-11
  Force max component initial, final = 0.00020672074 7.6972317e-12
  Final line search alpha, max atom move = 1 7.6972317e-12
  Iterations, force evaluations = 46 92

MPI task timing breakdown:
Section |  min time  |  avg time  |  max time  |%varavg| %total
---------------------------------------------------------------
Pair    | 0.66791    | 0.66965    | 0.67282    |   0.2 | 98.51
Neigh   | 0          | 0          | 0          |   0.0 |  0.00
Comm    | 0.005087   | 0.0081835  | 0.009998   |   2.2 |  1.20
Output  | 0.000679   | 0.00072075 | 0.000825   |   0.0 |  0.11
Modify  | 0          | 0          | 0          |   0.0 |  0.00
Other   |            | 0.001256   |            |       |  0.18

Nlocal:            192 ave         197 max         187 min
Histogram: 1 0 0 1 0 0 0 1 0 1
Nghost:           2876 ave        2881 max        2871 min
Histogram: 1 0 0 1 0 0 0 1 0 1
Neighs:          30720 ave       31557 max       29928 min
Histogram: 1 0 1 0 0 0 1 0 0 1
FullNghs:        61440 ave       63040 max       59840 min
Histogram: 1 0 0 1 0 0 0 1 0 1

Total # of neighbors = 245760
Ave neighs/atom = 320
Neighbor list builds = 0
Dangerous builds = 0

# Obtain new stress tensor

variable tmp equal pxx
variable pxx1 equal ${tmp}
variable pxx1 equal 2.98421953518098
variable tmp equal pyy
variable pyy1 equal ${tmp}
variable pyy1 equal 1.4873117481342
variable tmp equal pzz
variable pzz1 equal ${tmp}
variable pzz1 equal 1.48731175105785
variable tmp equal pxy
variable pxy1 equal ${tmp}
variable pxy1 equal -3.41853148428169e-09
variable tmp equal pxz
variable pxz1 equal ${tmp}
variable pxz1 equal -1.12412171845319e-09
variable tmp equal pyz
variable pyz1 equal ${tmp}
variable pyz1 equal 5.49538110176465e-09

# Compute elastic constant from pressure tensor

variable C1neg equal ${d1}
variable C1neg equal 298.421952859921
variable C2neg equal ${d2}
variable C2neg equal 148.73117523589
variable C3neg equal ${d3}
variable C3neg equal 148.731175334667
variable C4neg equal ${d4}
variable C4neg equal 5.44872399548987e-07
variable C5neg equal ${d5}
variable C5neg equal -1.08986031203029e-07
variable C6neg equal ${d6}
variable C6neg equal -3.41237213031802e-07

# Reset box and simulation parameters

clear
  using 1 OpenMP thread(s) per MPI task
Loaded 1 plugins from C:\Program Files\LAMMPS 64-bit 23Jun2022\plugins
Loaded 0 plugins from C:\Program Files\LAMMPS 64-bit 23Jun2022-MPI\plugins
Loaded 1 plugins from C:\Program Files\LAMMPS 64-bit 22Dec2022-MSMPI\plugins
Loaded 1 plugins from C:\Program Files\LAMMPS 64-bit 28Mar2023-MPI\plugins
box tilt large

The 'box' command has been removed and will be ignored

read_restart restart.equil
Reading restart file ...
  restart file = 22 Dec 2022, LAMMPS = 22 Dec 2022
  restoring atom style atomic from restart
  triclinic box = (0.010429713 0.010429693 0.010429673) to (14.560711 21.835851 29.110992) with tilt (0 0 0)
  1 by 2 by 2 MPI processor grid
  pair style meam stores no restart info
  768 atoms
  read_restart CPU = 0.000 seconds
include potential.mod
# NOTE: This script can be modified for different pair styles
# See in.elastic for more info.

# Choose potential
#-----------------------
#pair_style	sw
#pair_coeff * * Si.sw Si
#-----------------------
#pair_style morse	2.83994742	# D0[eV] a[1/A] r0[A] rc[A], 1NN for BCC
#pair_coeff 1 1	2.1173	1.0202	2.4595	2.6497	#	Fe-Fe
#-----------------------
#pair_style smatb # R0(A)   p       q     A(eV)   xi(eV)  Rcs(A)   Rc(A), 4NN: Rcs=4NN, Rc=(4NN+5NN)/2
#pair_coeff 1 1	2.4802	7.0149	2.3779	0.3144	3.0551	4.033	4.176	#	Co	Co
#-----------------------
#pair_style eam/alloy
#pair_coeff * * AlCrFeCoNi_Zhou04.eam.alloy Fe
#-----------------------
pair_style meam
#pair_coeff * * ./../../library.meam Co Al W ./../../CoAlW.meam Co Al
#pair_coeff * * ./../../library.meam Co Al W ./../../CoAlW.meam Al W
pair_coeff * * ./../../library.meam Co Al W ./../../CoAlW.meam Co Al W
#-----------------------

# Setup neighbor style
neighbor 1.0 nsq
neigh_modify once no every 1 delay 0 check yes

# Setup minimization style
min_style	     cg
min_modify	     dmax ${dmax} line quadratic
min_modify	     dmax 0.01 line quadratic

# Setup output
thermo		1
thermo_style custom step temp pe press pxx pyy pzz pxy pxz pyz lx ly lz vol
thermo_modify norm no

# Positive deformation

variable delta equal ${up}*${len0}
variable delta equal 1e-06*${len0}
variable delta equal 1e-06*14.5502810690918
variable deltaxy equal ${up}*xy
variable deltaxy equal 1e-06*xy
variable deltaxz equal ${up}*xz
variable deltaxz equal 1e-06*xz
variable deltayz equal ${up}*yz
variable deltayz equal 1e-06*yz
if "${dir} == 1" then    "change_box all x delta 0 ${delta} xy delta ${deltaxy} xz delta ${deltaxz} remap units box"
change_box all x delta 0 ${delta} xy delta ${deltaxy} xz delta ${deltaxz} remap units box
change_box all x delta 0 1.45502810690918e-05 xy delta ${deltaxy} xz delta ${deltaxz} remap units box
change_box all x delta 0 1.45502810690918e-05 xy delta 0 xz delta ${deltaxz} remap units box
change_box all x delta 0 1.45502810690918e-05 xy delta 0 xz delta 0 remap units box
Changing box ...
  triclinic box = (0.010429713 0.010429693 0.010429673) to (14.560725 21.835851 29.110992) with tilt (0 0 0)
  triclinic box = (0.010429713 0.010429693 0.010429673) to (14.560725 21.835851 29.110992) with tilt (0 0 0)
  triclinic box = (0.010429713 0.010429693 0.010429673) to (14.560725 21.835851 29.110992) with tilt (0 0 0)
if "${dir} == 2" then    "change_box all y delta 0 ${delta} yz delta ${deltayz} remap units box"
if "${dir} == 3" then    "change_box all z delta 0 ${delta} remap units box"
if "${dir} == 4" then    "change_box all yz delta ${delta} remap units box"
if "${dir} == 5" then    "change_box all xz delta ${delta} remap units box"
if "${dir} == 6" then    "change_box all xy delta ${delta} remap units box"

# Relax atoms positions

minimize ${etol} ${ftol} ${maxiter} ${maxeval}
minimize 0 ${ftol} ${maxiter} ${maxeval}
minimize 0 1e-10 ${maxiter} ${maxeval}
minimize 0 1e-10 1000 ${maxeval}
minimize 0 1e-10 1000 100000
Neighbor list info ...
  update: every = 1 steps, delay = 0 steps, check = yes
  max neighbors/atom: 2000, page size: 100000
  master list distance cutoff = 9.5
  ghost atom cutoff = 9.5
  2 neighbor lists, perpetual/occasional/extra = 2 0 0
  (1) pair meam, perpetual
      attributes: full, newton on
      pair build: full/nsq
      stencil: none
      bin: none
  (2) pair meam, perpetual, half/full from (1)
      attributes: half, newton on
      pair build: halffull/newton
      stencil: none
      bin: none
Per MPI rank memory allocation (min/avg/max) = 11.13 | 11.15 | 11.17 Mbytes
   Step          Temp          PotEng         Press           Pxx            Pyy            Pzz            Pxy            Pxz            Pyz             Lx             Ly             Lz           Volume    
        19   0             -3456.8501     -2.0502015     -3.0923368     -1.5641859     -1.4940818     -0.030760305   -0.026127598    0.047903567    14.550296      21.825422      29.100562      9241.3589    
        20   0             -3456.8501     -1.999096      -3.007006      -1.5088251     -1.4814568     -0.021611081   -0.01211643     0.038856111    14.550296      21.825422      29.100562      9241.3589    
        21   0             -3456.8501     -1.9788619     -2.9718669     -1.4822469     -1.4824721     -0.013564235   -0.0034679486   0.022243319    14.550296      21.825422      29.100562      9241.3589    
        22   0             -3456.8501     -1.9850621     -2.98194       -1.4842511     -1.4889952     -0.0070710185  -0.0016993065   0.0070931473   14.550296      21.825422      29.100562      9241.3589    
        23   0             -3456.8501     -1.9877018     -2.9867795     -1.4872641     -1.4890618     -0.0010449035  -0.0006498768  -9.2129602e-05  14.550296      21.825422      29.100562      9241.3589    
        24   0             -3456.8501     -1.9867432     -2.9849281     -1.4882497     -1.4870517      0.0021518561   0.00046607444 -0.0019530319   14.550296      21.825422      29.100562      9241.3589    
        25   0             -3456.8501     -1.985941      -2.9834643     -1.4878961     -1.4864627      0.0019475349   0.00078607486 -0.001857842    14.550296      21.825422      29.100562      9241.3589    
        26   0             -3456.8501     -1.9859926     -2.9839055     -1.486964      -1.4871084      0.00066140482  0.00033094661 -0.0012680401   14.550296      21.825422      29.100562      9241.3589    
        27   0             -3456.8501     -1.9863391     -2.9844241     -1.4869119     -1.4876812     -0.00014456723 -8.4780981e-05 -0.0002036067   14.550296      21.825422      29.100562      9241.3589    
        28   0             -3456.8501     -1.9864806     -2.9843599     -1.4875926     -1.4874893     -0.00027735722 -0.00013218941  0.00062414564  14.550296      21.825422      29.100562      9241.3589    
        29   0             -3456.8501     -1.9862344     -2.9840978     -1.4875329     -1.4870726     -0.00027746413 -8.9745278e-05  0.00063590477  14.550296      21.825422      29.100562      9241.3589    
        30   0             -3456.8501     -1.9861075     -2.984101      -1.4870834     -1.487138      -0.00020944117 -6.1516153e-05  0.00014004809  14.550296      21.825422      29.100562      9241.3589    
        31   0             -3456.8501     -1.9863368     -2.9842958     -1.4872392     -1.4874753      3.4341182e-05  1.1536695e-05 -0.0001698938   14.550296      21.825422      29.100562      9241.3589    
        32   0             -3456.8501     -1.9863823     -2.9842686     -1.4874437     -1.4874347      0.00022141479  7.317244e-05  -0.00021938742  14.550296      21.825422      29.100562      9241.3589    
        33   0             -3456.8501     -1.9861922     -2.9841133     -1.4873001     -1.4871631      0.00016598238  5.5628852e-05 -0.00015073556  14.550296      21.825422      29.100562      9241.3589    
        34   0             -3456.8501     -1.9862075     -2.9841805     -1.4872187     -1.4872233     -1.2182018e-05 -3.0553661e-06 -3.8205035e-05  14.550296      21.825422      29.100562      9241.3589    
        35   0             -3456.8501     -1.9863277     -2.9842656     -1.4873347     -1.4873829     -9.2735674e-05 -2.8579293e-05  9.1631774e-05  14.550296      21.825422      29.100562      9241.3589    
        36   0             -3456.8501     -1.9863052     -2.9842076     -1.4873517     -1.4873564     -7.6792031e-05 -2.6914359e-05  0.0001401963   14.550296      21.825422      29.100562      9241.3589    
        37   0             -3456.8501     -1.9862318     -2.9841643     -1.4872654     -1.4872657     -3.1553864e-05 -1.5571013e-05  6.0691432e-05  14.550296      21.825422      29.100562      9241.3589    
        38   0             -3456.8501     -1.9862554     -2.9842076     -1.4872821     -1.4872767      6.2881881e-06  1.7250386e-06 -2.1419327e-05  14.550296      21.825422      29.100562      9241.3589    
        39   0             -3456.8501     -1.986285      -2.9842204     -1.4873252     -1.4873093      3.1755152e-05  1.4549472e-05 -5.0098025e-05  14.550296      21.825422      29.100562      9241.3589    
        40   0             -3456.8501     -1.9862742     -2.9841997     -1.48731       -1.4873129      2.7645654e-05  1.0245808e-05 -3.5696309e-05  14.550296      21.825422      29.100562      9241.3589    
        41   0             -3456.8501     -1.9862633     -2.9841973     -1.4872893     -1.4873033      7.8960118e-06  8.3851144e-07 -1.0185522e-05  14.550296      21.825422      29.100562      9241.3589    
        42   0             -3456.8501     -1.9862647     -2.984203      -1.487296      -1.4872953     -6.5000146e-06 -2.5755562e-06  9.6315606e-06  14.550296      21.825422      29.100562      9241.3589    
        43   0             -3456.8501     -1.98627       -2.9842037     -1.4873072     -1.487299      -9.8453543e-06 -2.4366002e-06  1.4560271e-05  14.550296      21.825422      29.100562      9241.3589    
        44   0             -3456.8501     -1.9862719     -2.9842044     -1.4873058     -1.4873054     -6.2749188e-06 -2.061865e-06   7.2899173e-06  14.550296      21.825422      29.100562      9241.3589    
        45   0             -3456.8501     -1.9862678     -2.9842028     -1.4872981     -1.4873024     -1.2236662e-07 -6.0559044e-07 -9.7804499e-07  14.550296      21.825422      29.100562      9241.3589    
        46   0             -3456.8501     -1.9862661     -2.9842009     -1.4872985     -1.487299       3.6942168e-06  1.2847232e-06 -3.7678765e-06  14.550296      21.825422      29.100562      9241.3589    
        47   0             -3456.8501     -1.9862691     -2.9842029     -1.4873031     -1.4873012      3.1036544e-06  1.3717269e-06 -3.4007259e-06  14.550296      21.825422      29.100562      9241.3589    
        48   0             -3456.8501     -1.98627       -2.9842043     -1.4873031     -1.4873025      4.3687447e-07  1.4351806e-07 -1.613674e-06   14.550296      21.825422      29.100562      9241.3589    
        49   0             -3456.8501     -1.9862679     -2.9842026     -1.4873004     -1.4873009     -6.3027991e-07 -3.2576236e-07  4.0791744e-07  14.550296      21.825422      29.100562      9241.3589    
        50   0             -3456.8501     -1.9862678     -2.9842021     -1.4873005     -1.4873009     -6.2290097e-07 -2.2036943e-07  1.3346902e-06  14.550296      21.825422      29.100562      9241.3589    
        51   0             -3456.8501     -1.9862689     -2.984203      -1.4873019     -1.4873017     -4.2528092e-07 -1.0839738e-07  8.4884005e-07  14.550296      21.825422      29.100562      9241.3589    
        52   0             -3456.8501     -1.9862687     -2.9842031     -1.4873017     -1.4873014     -1.7113736e-07 -6.5800871e-08 -2.0914065e-08  14.550296      21.825422      29.100562      9241.3589    
        53   0             -3456.8501     -1.9862683     -2.9842027     -1.4873011     -1.4873011      1.5788008e-07  3.9194105e-08 -3.6932681e-07  14.550296      21.825422      29.100562      9241.3589    
        54   0             -3456.8501     -1.9862684     -2.9842027     -1.4873012     -1.4873014      2.8480159e-07  1.0498589e-07 -2.755181e-07   14.550296      21.825422      29.100562      9241.3589    
        55   0             -3456.8501     -1.9862686     -2.9842028     -1.4873014     -1.4873014      1.2878926e-07  5.0769136e-08 -1.1292333e-07  14.550296      21.825422      29.100562      9241.3589    
        56   0             -3456.8501     -1.9862685     -2.9842029     -1.4873014     -1.4873013     -5.1441497e-08 -2.0902709e-08  1.8149134e-08  14.550296      21.825422      29.100562      9241.3589    
        57   0             -3456.8501     -1.9862685     -2.9842028     -1.4873013     -1.4873013     -9.6599486e-08 -3.5522576e-08  1.0422078e-07  14.550296      21.825422      29.100562      9241.3589    
        58   0             -3456.8501     -1.9862685     -2.9842028     -1.4873013     -1.4873013     -5.2198115e-08 -1.6805819e-08  9.4765878e-08  14.550296      21.825422      29.100562      9241.3589    
        59   0             -3456.8501     -1.9862685     -2.9842028     -1.4873013     -1.4873013     -8.6186599e-09 -3.0406198e-09  2.3336229e-08  14.550296      21.825422      29.100562      9241.3589    
        60   0             -3456.8501     -1.9862685     -2.9842028     -1.4873013     -1.4873014      1.3988206e-08  4.1111914e-09 -2.5606873e-08  14.550296      21.825422      29.100562      9241.3589    
        61   0             -3456.8501     -1.9862685     -2.9842028     -1.4873013     -1.4873013      1.7778861e-08  6.547175e-09  -2.6634868e-08  14.550296      21.825422      29.100562      9241.3589    
        62   0             -3456.8501     -1.9862685     -2.9842028     -1.4873013     -1.4873013      1.0038621e-08  3.8512862e-09 -1.3110942e-08  14.550296      21.825422      29.100562      9241.3589    
        63   0             -3456.8501     -1.9862685     -2.9842028     -1.4873013     -1.4873013      4.4633136e-10 -4.7908177e-11 -1.0045896e-09  14.550296      21.825422      29.100562      9241.3589    
        64   0             -3456.8501     -1.9862685     -2.9842028     -1.4873013     -1.4873013     -3.7039912e-09 -1.4224244e-09  5.496448e-09   14.550296      21.825422      29.100562      9241.3589    
        65   0             -3456.8501     -1.9862685     -2.9842028     -1.4873013     -1.4873013     -3.4216332e-09 -1.1321459e-09  5.4704248e-09  14.550296      21.825422      29.100562      9241.3589    
Loop time of 0.670864 on 4 procs for 46 steps with 768 atoms

69.9% CPU use with 4 MPI tasks x 1 OpenMP threads

Minimization stats:
  Stopping criterion = force tolerance
  Energy initial, next-to-last, final = 
     -3456.85012886693  -3456.85012918433  -3456.85012918433
  Force two-norm initial, final = 0.0026406558 8.462708e-11
  Force max component initial, final = 0.00020671994 7.7050241e-12
  Final line search alpha, max atom move = 1 7.7050241e-12
  Iterations, force evaluations = 46 92

MPI task timing breakdown:
Section |  min time  |  avg time  |  max time  |%varavg| %total
---------------------------------------------------------------
Pair    | 0.66132    | 0.66227    | 0.66469    |   0.2 | 98.72
Neigh   | 0          | 0          | 0          |   0.0 |  0.00
Comm    | 0.004327   | 0.00672    | 0.00771    |   1.7 |  1.00
Output  | 0.000691   | 0.00074    | 0.000883   |   0.0 |  0.11
Modify  | 0          | 0          | 0          |   0.0 |  0.00
Other   |            | 0.001138   |            |       |  0.17

Nlocal:            192 ave         197 max         187 min
Histogram: 1 0 0 1 0 0 0 1 0 1
Nghost:           2876 ave        2881 max        2871 min
Histogram: 1 0 0 1 0 0 0 1 0 1
Neighs:          30720 ave       31557 max       29928 min
Histogram: 1 0 1 0 0 0 1 0 0 1
FullNghs:        61440 ave       63040 max       59840 min
Histogram: 1 0 0 1 0 0 0 1 0 1

Total # of neighbors = 245760
Ave neighs/atom = 320
Neighbor list builds = 0
Dangerous builds = 0

# Obtain new stress tensor

variable tmp equal pe
variable e1 equal ${tmp}
variable e1 equal -3456.85012918433
variable tmp equal press
variable p1 equal ${tmp}
variable p1 equal -1.98626849100182
variable tmp equal pxx
variable pxx1 equal ${tmp}
variable pxx1 equal -2.98420280981099
variable tmp equal pyy
variable pyy1 equal ${tmp}
variable pyy1 equal -1.48730133302969
variable tmp equal pzz
variable pzz1 equal ${tmp}
variable pzz1 equal -1.48730133016479
variable tmp equal pxy
variable pxy1 equal ${tmp}
variable pxy1 equal -3.42163319307055e-09
variable tmp equal pxz
variable pxz1 equal ${tmp}
variable pxz1 equal -1.1321458703195e-09
variable tmp equal pyz
variable pyz1 equal ${tmp}
variable pyz1 equal 5.47042475240595e-09

# Compute elastic constant from pressure tensor

variable C1pos equal ${d1}
variable C1pos equal 298.420281639276
variable C2pos equal ${d2}
variable C2pos equal 148.730132880499
variable C3pos equal ${d3}
variable C3pos equal 148.730132787597
variable C4pos equal ${d4}
variable C4pos equal -5.42376764613117e-07
variable C5pos equal ${d5}
variable C5pos equal 1.0978844638966e-07
variable C6pos equal ${d6}
variable C6pos equal 3.41547383910688e-07

# Combine positive and negative

variable C1${dir} equal 0.5*(${C1neg}+${C1pos})
variable C11 equal 0.5*(${C1neg}+${C1pos})
variable C11 equal 0.5*(298.421952859921+${C1pos})
variable C11 equal 0.5*(298.421952859921+298.420281639276)
variable C2${dir} equal 0.5*(${C2neg}+${C2pos})
variable C21 equal 0.5*(${C2neg}+${C2pos})
variable C21 equal 0.5*(148.73117523589+${C2pos})
variable C21 equal 0.5*(148.73117523589+148.730132880499)
variable C3${dir} equal 0.5*(${C3neg}+${C3pos})
variable C31 equal 0.5*(${C3neg}+${C3pos})
variable C31 equal 0.5*(148.731175334667+${C3pos})
variable C31 equal 0.5*(148.731175334667+148.730132787597)
variable C4${dir} equal 0.5*(${C4neg}+${C4pos})
variable C41 equal 0.5*(${C4neg}+${C4pos})
variable C41 equal 0.5*(5.44872399548987e-07+${C4pos})
variable C41 equal 0.5*(5.44872399548987e-07+-5.42376764613117e-07)
variable C5${dir} equal 0.5*(${C5neg}+${C5pos})
variable C51 equal 0.5*(${C5neg}+${C5pos})
variable C51 equal 0.5*(-1.08986031203029e-07+${C5pos})
variable C51 equal 0.5*(-1.08986031203029e-07+1.0978844638966e-07)
variable C6${dir} equal 0.5*(${C6neg}+${C6pos})
variable C61 equal 0.5*(${C6neg}+${C6pos})
variable C61 equal 0.5*(-3.41237213031802e-07+${C6pos})
variable C61 equal 0.5*(-3.41237213031802e-07+3.41547383910688e-07)

# Delete dir to make sure it is not reused

variable dir delete

# uyy Perturbation

variable dir equal 2
include displace.mod
# NOTE: This script should not need to be
# modified. See in.elastic for more info.
#
# Find which reference length to use

if "${dir} == 1" then    "variable len0 equal ${lx0}"
if "${dir} == 2" then    "variable len0 equal ${ly0}"
variable len0 equal ${ly0}
variable len0 equal 21.8254216036378
if "${dir} == 3" then    "variable len0 equal ${lz0}"
if "${dir} == 4" then    "variable len0 equal ${lz0}"
if "${dir} == 5" then    "variable len0 equal ${lz0}"
if "${dir} == 6" then    "variable len0 equal ${ly0}"

# Reset box and simulation parameters

clear
  using 1 OpenMP thread(s) per MPI task
Loaded 1 plugins from C:\Program Files\LAMMPS 64-bit 23Jun2022\plugins
Loaded 0 plugins from C:\Program Files\LAMMPS 64-bit 23Jun2022-MPI\plugins
Loaded 1 plugins from C:\Program Files\LAMMPS 64-bit 22Dec2022-MSMPI\plugins
Loaded 1 plugins from C:\Program Files\LAMMPS 64-bit 28Mar2023-MPI\plugins
box tilt large

The 'box' command has been removed and will be ignored

read_restart restart.equil
Reading restart file ...
  restart file = 22 Dec 2022, LAMMPS = 22 Dec 2022
  restoring atom style atomic from restart
  triclinic box = (0.010429713 0.010429693 0.010429673) to (14.560711 21.835851 29.110992) with tilt (0 0 0)
  1 by 2 by 2 MPI processor grid
  pair style meam stores no restart info
  768 atoms
  read_restart CPU = 0.000 seconds
include potential.mod
# NOTE: This script can be modified for different pair styles
# See in.elastic for more info.

# Choose potential
#-----------------------
#pair_style	sw
#pair_coeff * * Si.sw Si
#-----------------------
#pair_style morse	2.83994742	# D0[eV] a[1/A] r0[A] rc[A], 1NN for BCC
#pair_coeff 1 1	2.1173	1.0202	2.4595	2.6497	#	Fe-Fe
#-----------------------
#pair_style smatb # R0(A)   p       q     A(eV)   xi(eV)  Rcs(A)   Rc(A), 4NN: Rcs=4NN, Rc=(4NN+5NN)/2
#pair_coeff 1 1	2.4802	7.0149	2.3779	0.3144	3.0551	4.033	4.176	#	Co	Co
#-----------------------
#pair_style eam/alloy
#pair_coeff * * AlCrFeCoNi_Zhou04.eam.alloy Fe
#-----------------------
pair_style meam
#pair_coeff * * ./../../library.meam Co Al W ./../../CoAlW.meam Co Al
#pair_coeff * * ./../../library.meam Co Al W ./../../CoAlW.meam Al W
pair_coeff * * ./../../library.meam Co Al W ./../../CoAlW.meam Co Al W
#-----------------------

# Setup neighbor style
neighbor 1.0 nsq
neigh_modify once no every 1 delay 0 check yes

# Setup minimization style
min_style	     cg
min_modify	     dmax ${dmax} line quadratic
min_modify	     dmax 0.01 line quadratic

# Setup output
thermo		1
thermo_style custom step temp pe press pxx pyy pzz pxy pxz pyz lx ly lz vol
thermo_modify norm no

# Negative deformation

variable delta equal -${up}*${len0}
variable delta equal -1e-06*${len0}
variable delta equal -1e-06*21.8254216036378
variable deltaxy equal -${up}*xy
variable deltaxy equal -1e-06*xy
variable deltaxz equal -${up}*xz
variable deltaxz equal -1e-06*xz
variable deltayz equal -${up}*yz
variable deltayz equal -1e-06*yz
if "${dir} == 1" then    "change_box all x delta 0 ${delta} xy delta ${deltaxy} xz delta ${deltaxz} remap units box"
if "${dir} == 2" then    "change_box all y delta 0 ${delta} yz delta ${deltayz} remap units box"
change_box all y delta 0 ${delta} yz delta ${deltayz} remap units box
change_box all y delta 0 -2.18254216036378e-05 yz delta ${deltayz} remap units box
change_box all y delta 0 -2.18254216036378e-05 yz delta -0 remap units box
Changing box ...
  triclinic box = (0.010429713 0.010429693 0.010429673) to (14.560711 21.835829 29.110992) with tilt (0 0 0)
  triclinic box = (0.010429713 0.010429693 0.010429673) to (14.560711 21.835829 29.110992) with tilt (0 0 0)
if "${dir} == 3" then    "change_box all z delta 0 ${delta} remap units box"
if "${dir} == 4" then    "change_box all yz delta ${delta} remap units box"
if "${dir} == 5" then    "change_box all xz delta ${delta} remap units box"
if "${dir} == 6" then    "change_box all xy delta ${delta} remap units box"

# Relax atoms positions

minimize ${etol} ${ftol} ${maxiter} ${maxeval}
minimize 0 ${ftol} ${maxiter} ${maxeval}
minimize 0 1e-10 ${maxiter} ${maxeval}
minimize 0 1e-10 1000 ${maxeval}
minimize 0 1e-10 1000 100000
Neighbor list info ...
  update: every = 1 steps, delay = 0 steps, check = yes
  max neighbors/atom: 2000, page size: 100000
  master list distance cutoff = 9.5
  ghost atom cutoff = 9.5
  2 neighbor lists, perpetual/occasional/extra = 2 0 0
  (1) pair meam, perpetual
      attributes: full, newton on
      pair build: full/nsq
      stencil: none
      bin: none
  (2) pair meam, perpetual, half/full from (1)
      attributes: half, newton on
      pair build: halffull/newton
      stencil: none
      bin: none
Per MPI rank memory allocation (min/avg/max) = 11.13 | 11.15 | 11.17 Mbytes
   Step          Temp          PotEng         Press           Pxx            Pyy            Pzz            Pxy            Pxz            Pyz             Lx             Ly             Lz           Volume    
        19   0             -3456.8501      1.9476373      1.4263917      2.9545499      1.4619701     -0.030761126   -0.026127889    0.047903746    14.550281      21.8254        29.100562      9241.3404    
        20   0             -3456.8501      1.9791097      1.4769471      2.9751483      1.4852338     -0.021615649   -0.012123016    0.038860468    14.550281      21.8254        29.100562      9241.3404    
        21   0             -3456.8501      1.9909007      1.4954086      2.9850228      1.4922707     -0.013557692   -0.0034598899   0.022232257    14.550281      21.8254        29.100562      9241.3404    
        22   0             -3456.8501      1.9867573      1.4877599      2.9854552      1.4870567     -0.0070654847  -0.0016955636   0.0070813723   14.550281      21.8254        29.100562      9241.3404    
        23   0             -3456.8501      1.9854296      1.4854852      2.9850105      1.485793      -0.0010435741  -0.00065050944 -9.4534923e-05  14.550281      21.8254        29.100562      9241.3404    
        24   0             -3456.8501      1.9861051      1.4871875      2.983871       1.4872567      0.0021556868   0.00046614101 -0.0019541182   14.550281      21.8254        29.100562      9241.3404    
        25   0             -3456.8501      1.986438       1.4878712      2.9834451      1.4879975      0.0019468158   0.00078614493 -0.0018572981   14.550281      21.8254        29.100562      9241.3404    
        26   0             -3456.8501      1.9864116      1.4874167      2.984364       1.4874542      0.00065988368  0.00033115685 -0.0012673596   14.550281      21.8254        29.100562      9241.3404    
        27   0             -3456.8501      1.9862652      1.4871375      2.9846564      1.4870016     -0.00014495671 -8.515635e-05  -0.00020263078  14.550281      21.8254        29.100562      9241.3404    
        28   0             -3456.8501      1.9861596      1.4872362      2.9840108      1.4872317     -0.00027746607 -0.00013266727  0.00062443698  14.550281      21.8254        29.100562      9241.3404    
        29   0             -3456.8501      1.9862888      1.4873995      2.9839701      1.4874967     -0.00027729339 -8.956067e-05   0.00063565721  14.550281      21.8254        29.100562      9241.3404    
        30   0             -3456.8501      1.9863789      1.4873733      2.9843964      1.4873669     -0.00020926181 -6.1190514e-05  0.00013982042  14.550281      21.8254        29.100562      9241.3404    
        31   0             -3456.8501      1.9862434      1.4872408      2.984304       1.4871854      3.4449532e-05  1.1464919e-05 -0.00017007294  14.550281      21.8254        29.100562      9241.3404    
        32   0             -3456.8501      1.9862119      1.4872664      2.9840982      1.4872712      0.00022155284  7.3024768e-05 -0.00021962854  14.550281      21.8254        29.100562      9241.3404    
        33   0             -3456.8501      1.9863271      1.4873763      2.9841956      1.4874094      0.00016578094  5.5652015e-05 -0.00015054594  14.550281      21.8254        29.100562      9241.3404    
        34   0             -3456.8501      1.9863167      1.4873298      2.9842973      1.4873229     -1.226864e-05  -2.9528601e-06 -3.7936666e-05  14.550281      21.8254        29.100562      9241.3404    
        35   0             -3456.8501      1.9862445      1.4872687      2.9842061      1.4872587     -9.2719627e-05 -2.8643925e-05  9.1692199e-05  14.550281      21.8254        29.100562      9241.3404    
        36   0             -3456.8501      1.9862611      1.4873056      2.9841684      1.4873093     -7.6841441e-05 -2.7034769e-05  0.00014012156  14.550281      21.8254        29.100562      9241.3404    
        37   0             -3456.8501      1.9863034      1.4873357      2.9842409      1.4873338     -3.1520584e-05 -1.5512774e-05  6.0589626e-05  14.550281      21.8254        29.100562      9241.3404    
        38   0             -3456.8501      1.9862869      1.4873097      2.9842412      1.4873099      6.3738123e-06  1.8085086e-06 -2.1464243e-05  14.550281      21.8254        29.100562      9241.3404    
        39   0             -3456.8501      1.9862714      1.4873026      2.9842042      1.4873073      3.1771273e-05  1.4527572e-05 -5.0091784e-05  14.550281      21.8254        29.100562      9241.3404    
        40   0             -3456.8501      1.9862787      1.4873139      2.98421        1.4873123      2.7622199e-05  1.0210764e-05 -3.5689721e-05  14.550281      21.8254        29.100562      9241.3404    
        41   0             -3456.8501      1.9862837      1.4873134      2.9842276      1.4873101      7.8704567e-06  8.430384e-07  -1.0162957e-05  14.550281      21.8254        29.100562      9241.3404    
        42   0             -3456.8501      1.9862828      1.4873113      2.9842245      1.4873126     -6.5091742e-06 -2.566463e-06   9.6496142e-06  14.550281      21.8254        29.100562      9241.3404    
        43   0             -3456.8501      1.9862805      1.4873124      2.9842153      1.4873138     -9.8402455e-06 -2.4406327e-06  1.4556178e-05  14.550281      21.8254        29.100562      9241.3404    
        44   0             -3456.8501      1.9862791      1.4873111      2.984216       1.4873102     -6.2709832e-06 -2.0666782e-06  7.2851829e-06  14.550281      21.8254        29.100562      9241.3404    
        45   0             -3456.8501      1.9862812      1.487311       2.984222       1.4873107     -1.1672772e-07 -6.0143569e-07 -9.857115e-07   14.550281      21.8254        29.100562      9241.3404    
        46   0             -3456.8501      1.9862825      1.4873128      2.9842215      1.4873131      3.6960774e-06  1.2879389e-06 -3.7717054e-06  14.550281      21.8254        29.100562      9241.3404    
        47   0             -3456.8501      1.9862807      1.4873121      2.9842181      1.487312       3.1018101e-06  1.3703299e-06 -3.3986314e-06  14.550281      21.8254        29.100562      9241.3404    
        48   0             -3456.8501      1.9862801      1.4873109      2.9842184      1.4873109      4.3447532e-07  1.414667e-07  -1.6099046e-06  14.550281      21.8254        29.100562      9241.3404    
        49   0             -3456.8501      1.9862813      1.4873118      2.9842203      1.4873119     -6.2990784e-07 -3.2516552e-07  4.0901816e-07  14.550281      21.8254        29.100562      9241.3404    
        50   0             -3456.8501      1.9862814      1.4873121      2.9842201      1.4873121     -6.2333979e-07 -2.2006295e-07  1.3350867e-06  14.550281      21.8254        29.100562      9241.3404    
        51   0             -3456.8501      1.9862808      1.4873117      2.9842191      1.4873116     -4.2543417e-07 -1.0872966e-07  8.4723939e-07  14.550281      21.8254        29.100562      9241.3404    
        52   0             -3456.8501      1.9862809      1.4873116      2.9842194      1.4873117     -1.7042776e-07 -6.5686053e-08 -2.1315236e-08  14.550281      21.8254        29.100562      9241.3404    
        53   0             -3456.8501      1.9862811      1.4873118      2.9842197      1.4873119      1.5839803e-07  3.9482499e-08 -3.6901512e-07  14.550281      21.8254        29.100562      9241.3404    
        54   0             -3456.8501      1.986281       1.4873118      2.9842196      1.4873118      2.8472283e-07  1.0497438e-07 -2.7549663e-07  14.550281      21.8254        29.100562      9241.3404    
        55   0             -3456.8501      1.986281       1.4873117      2.9842195      1.4873117      1.2852909e-07  5.0647783e-08 -1.1300208e-07  14.550281      21.8254        29.100562      9241.3404    
        56   0             -3456.8501      1.986281       1.4873117      2.9842195      1.4873117     -5.1710263e-08 -2.1021357e-08  1.8367212e-08  14.550281      21.8254        29.100562      9241.3404    
        57   0             -3456.8501      1.986281       1.4873118      2.9842195      1.4873118     -9.6486742e-08 -3.5442556e-08  1.0426626e-07  14.550281      21.8254        29.100562      9241.3404    
        58   0             -3456.8501      1.986281       1.4873118      2.9842195      1.4873118     -5.2111892e-08 -1.67647e-08    9.4695696e-08  14.550281      21.8254        29.100562      9241.3404    
        59   0             -3456.8501      1.986281       1.4873118      2.9842195      1.4873118     -8.6291384e-09 -3.0343125e-09  2.3268369e-08  14.550281      21.8254        29.100562      9241.3404    
        60   0             -3456.8501      1.986281       1.4873117      2.9842195      1.4873117      1.4006703e-08  4.1195918e-09 -2.5668825e-08  14.550281      21.8254        29.100562      9241.3404    
        61   0             -3456.8501      1.986281       1.4873118      2.9842195      1.4873117      1.7799492e-08  6.5365824e-09 -2.6607358e-08  14.550281      21.8254        29.100562      9241.3404    
        62   0             -3456.8501      1.986281       1.4873118      2.9842195      1.4873118      1.0035715e-08  3.8612836e-09 -1.3082789e-08  14.550281      21.8254        29.100562      9241.3404    
        63   0             -3456.8501      1.986281       1.4873118      2.9842195      1.4873117      4.3244482e-10 -4.0805761e-11 -9.4038031e-10  14.550281      21.8254        29.100562      9241.3404    
        64   0             -3456.8501      1.986281       1.4873118      2.9842195      1.4873117     -3.7188965e-09 -1.4238131e-09  5.5183247e-09  14.550281      21.8254        29.100562      9241.3404    
        65   0             -3456.8501      1.986281       1.4873118      2.9842195      1.4873118     -3.4178867e-09 -1.1296074e-09  5.4753632e-09  14.550281      21.8254        29.100562      9241.3404    
Loop time of 0.665489 on 4 procs for 46 steps with 768 atoms

84.5% CPU use with 4 MPI tasks x 1 OpenMP threads

Minimization stats:
  Stopping criterion = force tolerance
  Energy initial, next-to-last, final = 
     -3456.85012886773  -3456.85012918433  -3456.85012918433
  Force two-norm initial, final = 0.0026376557 8.4635468e-11
  Force max component initial, final = 0.00020672132 7.709746e-12
  Final line search alpha, max atom move = 1 7.709746e-12
  Iterations, force evaluations = 46 92

MPI task timing breakdown:
Section |  min time  |  avg time  |  max time  |%varavg| %total
---------------------------------------------------------------
Pair    | 0.65625    | 0.65746    | 0.65965    |   0.2 | 98.79
Neigh   | 0          | 0          | 0          |   0.0 |  0.00
Comm    | 0.004119   | 0.0062687  | 0.007424   |   1.6 |  0.94
Output  | 0.000641   | 0.00069225 | 0.000823   |   0.0 |  0.10
Modify  | 0          | 0          | 0          |   0.0 |  0.00
Other   |            | 0.001072   |            |       |  0.16

Nlocal:            192 ave         197 max         187 min
Histogram: 1 0 0 1 0 0 0 1 0 1
Nghost:           2876 ave        2881 max        2871 min
Histogram: 1 0 0 1 0 0 0 1 0 1
Neighs:          30720 ave       31557 max       29928 min
Histogram: 1 0 1 0 0 0 1 0 0 1
FullNghs:        61440 ave       63040 max       59840 min
Histogram: 1 0 0 1 0 0 0 1 0 1

Total # of neighbors = 245760
Ave neighs/atom = 320
Neighbor list builds = 0
Dangerous builds = 0

# Obtain new stress tensor

variable tmp equal pxx
variable pxx1 equal ${tmp}
variable pxx1 equal 1.48731175924584
variable tmp equal pyy
variable pyy1 equal ${tmp}
variable pyy1 equal 2.98421952438768
variable tmp equal pzz
variable pzz1 equal ${tmp}
variable pzz1 equal 1.48731175112849
variable tmp equal pxy
variable pxy1 equal ${tmp}
variable pxy1 equal -3.41788667626881e-09
variable tmp equal pxz
variable pxz1 equal ${tmp}
variable pxz1 equal -1.12960739856276e-09
variable tmp equal pyz
variable pyz1 equal ${tmp}
variable pyz1 equal 5.47536318136482e-09

# Compute elastic constant from pressure tensor

variable C1neg equal ${d1}
variable C1neg equal 148.731175266407
variable C2neg equal ${d2}
variable C2neg equal 298.421952861238
variable C3neg equal ${d3}
variable C3neg equal 148.731175341731
variable C4neg equal ${d4}
variable C4neg equal 5.42870607509004e-07
variable C5neg equal ${d5}
variable C5neg equal -1.09534599213986e-07
variable C6neg equal ${d6}
variable C6neg equal -3.41172732230514e-07

# Reset box and simulation parameters

clear
  using 1 OpenMP thread(s) per MPI task
Loaded 1 plugins from C:\Program Files\LAMMPS 64-bit 23Jun2022\plugins
Loaded 0 plugins from C:\Program Files\LAMMPS 64-bit 23Jun2022-MPI\plugins
Loaded 1 plugins from C:\Program Files\LAMMPS 64-bit 22Dec2022-MSMPI\plugins
Loaded 1 plugins from C:\Program Files\LAMMPS 64-bit 28Mar2023-MPI\plugins
box tilt large

The 'box' command has been removed and will be ignored

read_restart restart.equil
Reading restart file ...
  restart file = 22 Dec 2022, LAMMPS = 22 Dec 2022
  restoring atom style atomic from restart
  triclinic box = (0.010429713 0.010429693 0.010429673) to (14.560711 21.835851 29.110992) with tilt (0 0 0)
  1 by 2 by 2 MPI processor grid
  pair style meam stores no restart info
  768 atoms
  read_restart CPU = 0.000 seconds
include potential.mod
# NOTE: This script can be modified for different pair styles
# See in.elastic for more info.

# Choose potential
#-----------------------
#pair_style	sw
#pair_coeff * * Si.sw Si
#-----------------------
#pair_style morse	2.83994742	# D0[eV] a[1/A] r0[A] rc[A], 1NN for BCC
#pair_coeff 1 1	2.1173	1.0202	2.4595	2.6497	#	Fe-Fe
#-----------------------
#pair_style smatb # R0(A)   p       q     A(eV)   xi(eV)  Rcs(A)   Rc(A), 4NN: Rcs=4NN, Rc=(4NN+5NN)/2
#pair_coeff 1 1	2.4802	7.0149	2.3779	0.3144	3.0551	4.033	4.176	#	Co	Co
#-----------------------
#pair_style eam/alloy
#pair_coeff * * AlCrFeCoNi_Zhou04.eam.alloy Fe
#-----------------------
pair_style meam
#pair_coeff * * ./../../library.meam Co Al W ./../../CoAlW.meam Co Al
#pair_coeff * * ./../../library.meam Co Al W ./../../CoAlW.meam Al W
pair_coeff * * ./../../library.meam Co Al W ./../../CoAlW.meam Co Al W
#-----------------------

# Setup neighbor style
neighbor 1.0 nsq
neigh_modify once no every 1 delay 0 check yes

# Setup minimization style
min_style	     cg
min_modify	     dmax ${dmax} line quadratic
min_modify	     dmax 0.01 line quadratic

# Setup output
thermo		1
thermo_style custom step temp pe press pxx pyy pzz pxy pxz pyz lx ly lz vol
thermo_modify norm no

# Positive deformation

variable delta equal ${up}*${len0}
variable delta equal 1e-06*${len0}
variable delta equal 1e-06*21.8254216036378
variable deltaxy equal ${up}*xy
variable deltaxy equal 1e-06*xy
variable deltaxz equal ${up}*xz
variable deltaxz equal 1e-06*xz
variable deltayz equal ${up}*yz
variable deltayz equal 1e-06*yz
if "${dir} == 1" then    "change_box all x delta 0 ${delta} xy delta ${deltaxy} xz delta ${deltaxz} remap units box"
if "${dir} == 2" then    "change_box all y delta 0 ${delta} yz delta ${deltayz} remap units box"
change_box all y delta 0 ${delta} yz delta ${deltayz} remap units box
change_box all y delta 0 2.18254216036378e-05 yz delta ${deltayz} remap units box
change_box all y delta 0 2.18254216036378e-05 yz delta 0 remap units box
Changing box ...
  triclinic box = (0.010429713 0.010429693 0.010429673) to (14.560711 21.835873 29.110992) with tilt (0 0 0)
  triclinic box = (0.010429713 0.010429693 0.010429673) to (14.560711 21.835873 29.110992) with tilt (0 0 0)
if "${dir} == 3" then    "change_box all z delta 0 ${delta} remap units box"
if "${dir} == 4" then    "change_box all yz delta ${delta} remap units box"
if "${dir} == 5" then    "change_box all xz delta ${delta} remap units box"
if "${dir} == 6" then    "change_box all xy delta ${delta} remap units box"

# Relax atoms positions

minimize ${etol} ${ftol} ${maxiter} ${maxeval}
minimize 0 ${ftol} ${maxiter} ${maxeval}
minimize 0 1e-10 ${maxiter} ${maxeval}
minimize 0 1e-10 1000 ${maxeval}
minimize 0 1e-10 1000 100000
Neighbor list info ...
  update: every = 1 steps, delay = 0 steps, check = yes
  max neighbors/atom: 2000, page size: 100000
  master list distance cutoff = 9.5
  ghost atom cutoff = 9.5
  2 neighbor lists, perpetual/occasional/extra = 2 0 0
  (1) pair meam, perpetual
      attributes: full, newton on
      pair build: full/nsq
      stencil: none
      bin: none
  (2) pair meam, perpetual, half/full from (1)
      attributes: half, newton on
      pair build: halffull/newton
      stencil: none
      bin: none
Per MPI rank memory allocation (min/avg/max) = 11.13 | 11.15 | 11.17 Mbytes
   Step          Temp          PotEng         Press           Pxx            Pyy            Pzz            Pxy            Pxz            Pyz             Lx             Ly             Lz           Volume    
        19   0             -3456.8501     -2.0502015     -1.5296602     -3.1268623     -1.4940819     -0.030760019   -0.02612798     0.047903532    14.550281      21.825443      29.100562      9241.3589    
        20   0             -3456.8501     -1.9990849     -1.4897225     -3.026078      -1.4814542     -0.021608842   -0.012113493    0.03885403     14.550281      21.825443      29.100562      9241.3589    
        21   0             -3456.8501     -1.9788564     -1.4793436     -2.9747539     -1.4824717     -0.013562429   -0.00346589     0.022240319    14.550281      21.825443      29.100562      9241.3589    
        22   0             -3456.8501     -1.9850677     -1.4882966     -2.9779133     -1.4889933     -0.0070757191  -0.0017028456   0.0071032694   14.550281      21.825443      29.100562      9241.3589    
        23   0             -3456.8501     -1.9877072     -1.4893706     -2.9846887     -1.4890625     -0.0010432763  -0.00065081147 -9.3595511e-05  14.550281      21.825443      29.100562      9241.3589    
        24   0             -3456.8501     -1.9867415     -1.4871201     -2.986051      -1.4870533      0.0021501941   0.00046627048 -0.0019533128   14.550281      21.825443      29.100562      9241.3589    
        25   0             -3456.8501     -1.9859375     -1.486587      -2.9847633     -1.4864622      0.0019466553   0.00078680817 -0.0018571625   14.550281      21.825443      29.100562      9241.3589    
        26   0             -3456.8501     -1.9859929     -1.4871461     -2.9837248     -1.4871079      0.00066213763  0.0003310156  -0.0012681918   14.550281      21.825443      29.100562      9241.3589    
        27   0             -3456.8501     -1.9863408     -1.4875468     -2.9837941     -1.4876816     -0.00014431673 -8.5226737e-05 -0.0002037405   14.550281      21.825443      29.100562      9241.3589    
        28   0             -3456.8501     -1.9864802     -1.4874842     -2.9844673     -1.4874891     -0.00027734404 -0.00013205971  0.00062412007  14.550281      21.825443      29.100562      9241.3589    
        29   0             -3456.8501     -1.9862335     -1.4871689     -2.9844591     -1.4870724     -0.00027764351 -8.9512713e-05  0.00063605037  14.550281      21.825443      29.100562      9241.3589    
        30   0             -3456.8501     -1.9861077     -1.4871323     -2.9840525     -1.4871384     -0.00020960317 -6.1645556e-05  0.00013979217  14.550281      21.825443      29.100562      9241.3589    
        31   0             -3456.8501     -1.9863371     -1.4874202     -2.9841159     -1.4874752      3.4359397e-05  1.1411522e-05 -0.00016985048  14.550281      21.825443      29.100562      9241.3589    
        32   0             -3456.8501     -1.9863822     -1.487439      -2.9842733     -1.4874342      0.00022160517  7.3276345e-05 -0.00021903317  14.550281      21.825443      29.100562      9241.3589    
        33   0             -3456.8501     -1.9861921     -1.4871962     -2.9842167     -1.4871633      0.00016601095  5.5715319e-05 -0.00015080108  14.550281      21.825443      29.100562      9241.3589    
        34   0             -3456.8501     -1.9862077     -1.4872168     -2.9841824     -1.4872239     -1.2389996e-05 -3.1521223e-06 -3.8519309e-05  14.550281      21.825443      29.100562      9241.3589    
        35   0             -3456.8501     -1.9863278     -1.4873727     -2.9842278     -1.4873828     -9.2719745e-05 -2.8604912e-05  9.1635245e-05  14.550281      21.825443      29.100562      9241.3589    
        36   0             -3456.8501     -1.986305      -1.4873596     -2.9841996     -1.4873558     -7.6580663e-05 -2.682835e-05   0.0001404126   14.550281      21.825443      29.100562      9241.3589    
        37   0             -3456.8501     -1.9862318     -1.4872638     -2.9841659     -1.4872657     -3.156174e-05  -1.5567901e-05  6.0699081e-05  14.550281      21.825443      29.100562      9241.3589    
        38   0             -3456.8501     -1.9862556     -1.4872771     -2.9842126     -1.487277       6.1593534e-06  1.6743185e-06 -2.1501402e-05  14.550281      21.825443      29.100562      9241.3589    
        39   0             -3456.8501     -1.986285      -1.4873141     -2.9842315     -1.4873094      3.1746009e-05  1.4550703e-05 -5.0075838e-05  14.550281      21.825443      29.100562      9241.3589    
        40   0             -3456.8501     -1.9862742     -1.4873112     -2.9841985     -1.4873127      2.7705478e-05  1.0270837e-05 -3.5659285e-05  14.550281      21.825443      29.100562      9241.3589    
        41   0             -3456.8501     -1.9862633     -1.4872999     -2.9841867     -1.4873032      7.9045311e-06  8.3605105e-07 -1.020928e-05   14.550281      21.825443      29.100562      9241.3589    
        42   0             -3456.8501     -1.9862648     -1.4872967     -2.9842023     -1.4872953     -6.5225849e-06 -2.5870937e-06  9.6116712e-06  14.550281      21.825443      29.100562      9241.3589    
        43   0             -3456.8501     -1.98627       -1.4873004     -2.9842105     -1.487299      -9.8408063e-06 -2.4315967e-06  1.4566614e-05  14.550281      21.825443      29.100562      9241.3589    
        44   0             -3456.8501     -1.9862719     -1.4873045     -2.9842057     -1.4873054     -6.2669062e-06 -2.0564988e-06  7.3004323e-06  14.550281      21.825443      29.100562      9241.3589    
        45   0             -3456.8501     -1.9862678     -1.487302      -2.9841989     -1.4873024     -1.2808328e-07 -6.093708e-07  -9.7965628e-07  14.550281      21.825443      29.100562      9241.3589    
        46   0             -3456.8501     -1.9862661     -1.4872993     -2.9842001     -1.487299       3.6926896e-06  1.2834596e-06 -3.7697468e-06  14.550281      21.825443      29.100562      9241.3589    
        47   0             -3456.8501     -1.9862691     -1.4873012     -2.9842048     -1.4873012      3.1063305e-06  1.3736007e-06 -3.3982916e-06  14.550281      21.825443      29.100562      9241.3589    
        48   0             -3456.8501     -1.98627       -1.4873025     -2.9842049     -1.4873025      4.3640155e-07  1.4334225e-07 -1.6146675e-06  14.550281      21.825443      29.100562      9241.3589    
        49   0             -3456.8501     -1.9862679     -1.487301      -2.9842019     -1.4873009     -6.3148835e-07 -3.2666272e-07  4.057475e-07   14.550281      21.825443      29.100562      9241.3589    
        50   0             -3456.8501     -1.9862678     -1.4873009     -2.9842017     -1.4873009     -6.2205901e-07 -2.2001579e-07  1.3349244e-06  14.550281      21.825443      29.100562      9241.3589    
[...]
        29   0             -3456.8501      2.2860763e-05  0.000112075   -0.00025110893  0.00020761622 -0.94517239    -8.7663339e-05  0.00062866109  14.550281      21.825422      29.100562      9241.3497    
        30   0             -3456.8501      0.00013126439  0.00011720355  0.00016737933  0.00010921029 -0.94492068    -6.0595633e-05  0.00013647805  14.550281      21.825422      29.100562      9241.3497    
        31   0             -3456.8501     -5.1634758e-05 -9.3400838e-05  8.8643384e-05 -0.00015014682 -0.94449878     1.0931212e-05 -0.00016779512  14.550281      21.825422      29.100562      9241.3497    
        32   0             -3456.8501     -9.0055142e-05 -8.9904002e-05 -9.3614672e-05 -8.6646753e-05 -0.94423711     7.1882119e-05 -0.00021439069  14.550281      21.825422      29.100562      9241.3497    
        33   0             -3456.8501      6.2926377e-05  8.686046e-05  -1.6518292e-05  0.00011843696 -0.94433623     5.47915e-05   -0.00014698575  14.550281      21.825422      29.100562      9241.3497    
        34   0             -3456.8501      4.979073e-05   5.3042875e-05  5.187994e-05   4.4449376e-05 -0.94460637    -3.099675e-06  -3.7886985e-05  14.550281      21.825422      29.100562      9241.3497    
        35   0             -3456.8501     -4.6564919e-05 -5.5791592e-05 -1.6409304e-05 -6.7493862e-05 -0.94474862    -2.7993753e-05  8.9183307e-05  14.550281      21.825422      29.100562      9241.3497    
        36   0             -3456.8501     -2.6966295e-05 -3.08514e-05   -2.1318529e-05 -2.8728957e-05 -0.94474351    -2.619812e-05   0.00013731114  14.550281      21.825422      29.100562      9241.3497    
        37   0             -3456.8501      3.1097212e-05  3.2467378e-05  3.1850313e-05  2.8973944e-05 -0.94466335    -1.5179209e-05  5.9277558e-05  14.550281      21.825422      29.100562      9241.3497    
        38   0             -3456.8501      1.0879595e-05  1.27317e-05    8.5791753e-06  1.1327909e-05 -0.94458686     1.6532349e-06 -2.1065895e-05  14.550281      21.825422      29.100562      9241.3497    
        39   0             -3456.8501     -1.1735815e-05 -9.4588314e-06 -1.936665e-05  -6.3819626e-06 -0.94454154     1.418127e-05  -4.8718556e-05  14.550281      21.825422      29.100562      9241.3497    
        40   0             -3456.8501     -2.6357864e-06 -2.4382657e-06  1.230023e-07  -5.5920958e-06 -0.94455213     9.9611455e-06 -3.4602287e-05  14.550281      21.825422      29.100562      9241.3497    
        41   0             -3456.8501      5.3476245e-06  3.0830488e-06  1.4822662e-05 -1.8628371e-06 -0.94458773     7.6253478e-07 -9.8689014e-06  14.550281      21.825422      29.100562      9241.3497    
        42   0             -3456.8501      4.1510836e-06  3.636906e-06   5.4106424e-06  3.4057025e-06 -0.94461239    -2.4934928e-06  9.3156202e-06  14.550281      21.825422      29.100562      9241.3497    
        43   0             -3456.8501      3.6810251e-07  2.3322206e-06 -3.3433833e-06  2.1154703e-06 -0.94461742    -2.3211293e-06  1.4098069e-05  14.550281      21.825422      29.100562      9241.3497    
        44   0             -3456.8501     -1.2885118e-06 -4.2706799e-07 -5.4228669e-07 -2.8961807e-06 -0.94461063    -1.996852e-06   7.0297574e-06  14.550281      21.825422      29.100562      9241.3497    
        45   0             -3456.8501      1.8512178e-06  8.1187045e-07  5.8915388e-06 -1.1497559e-06 -0.94460048    -6.0750953e-07 -9.693388e-07   14.550281      21.825422      29.100562      9241.3497    
        46   0             -3456.8501      3.3004175e-06  3.0860435e-06  5.0443314e-06  1.7708777e-06 -0.94459456     1.2457476e-06 -3.6141799e-06  14.550281      21.825422      29.100562      9241.3497    
        47   0             -3456.8501      9.4570552e-07  1.7469522e-06  9.6573843e-07  1.2442592e-07 -0.94459527     1.335578e-06  -3.2566774e-06  14.550281      21.825422      29.100562      9241.3497    
        48   0             -3456.8501      1.693754e-07   5.3862109e-07  1.046671e-06  -1.0771659e-06 -0.94459933     1.3027996e-07 -1.5645597e-06  14.550281      21.825422      29.100562      9241.3497    
        49   0             -3456.8501      1.8188233e-06  1.7187207e-06  3.5264489e-06  2.1130049e-07 -0.9446014     -3.192249e-07   3.8284296e-07  14.550281      21.825422      29.100562      9241.3497    
        50   0             -3456.8501      1.9229676e-06  1.9639305e-06  3.5112755e-06  2.9369686e-07 -0.94460167    -2.0820189e-07  1.2880715e-06  14.550281      21.825422      29.100562      9241.3497    
        51   0             -3456.8501      1.0625102e-06  1.3262945e-06  2.2306774e-06 -3.6944136e-07 -0.94460124    -1.004551e-07   8.1823075e-07  14.550281      21.825422      29.100562      9241.3497    
        52   0             -3456.8501      1.2001093e-06  1.4022104e-06  2.3309595e-06 -1.3284202e-07 -0.94460065    -6.4903557e-08 -2.4819733e-08  14.550281      21.825422      29.100562      9241.3497    
        53   0             -3456.8501      1.5231125e-06  1.65285e-06    2.8235312e-06  9.29562e-08   -0.94460011     3.5750296e-08 -3.5580524e-07  14.550281      21.825422      29.100562      9241.3497    
        54   0             -3456.8501      1.4259745e-06  1.5751069e-06  2.7828353e-06 -8.0018747e-08 -0.94459998     1.0143919e-07 -2.6080676e-07  14.550281      21.825422      29.100562      9241.3497    
        55   0             -3456.8501      1.3292238e-06  1.4908362e-06  2.6321513e-06 -1.3531619e-07 -0.94460024     4.9269962e-08 -1.0641639e-07  14.550281      21.825422      29.100562      9241.3497    
        56   0             -3456.8501      1.3562825e-06  1.5155223e-06  2.6267991e-06 -7.347401e-08  -0.94460051    -2.0473847e-08  1.6227896e-08  14.550281      21.825422      29.100562      9241.3497    
        57   0             -3456.8501      1.3852543e-06  1.5503894e-06  2.660015e-06  -5.4641554e-08 -0.94460059    -3.412336e-08   9.8641592e-08  14.550281      21.825422      29.100562      9241.3497    
        58   0             -3456.8501      1.3946273e-06  1.5575879e-06  2.6831184e-06 -5.6824506e-08 -0.94460053    -1.5673689e-08  9.07105e-08    14.550281      21.825422      29.100562      9241.3497    
        59   0             -3456.8501      1.379488e-06   1.5336477e-06  2.6809939e-06 -7.6177504e-08 -0.94460045    -2.7442232e-09  2.2398799e-08  14.550281      21.825422      29.100562      9241.3497    
        60   0             -3456.8501      1.3630627e-06  1.5192323e-06  2.6615337e-06 -9.1577814e-08 -0.94460041     3.8462086e-09 -2.4484972e-08  14.550281      21.825422      29.100562      9241.3497    
        61   0             -3456.8501      1.3759363e-06  1.538232e-06   2.660854e-06  -7.1277006e-08 -0.9446004      6.173559e-09  -2.5272291e-08  14.550281      21.825422      29.100562      9241.3497    
        62   0             -3456.8501      1.3854757e-06  1.5470166e-06  2.669453e-06  -6.0042422e-08 -0.94460042     3.6785009e-09 -1.233965e-08   14.550281      21.825422      29.100562      9241.3497    
        63   0             -3456.8501      1.3766277e-06  1.5349937e-06  2.6692236e-06 -7.4334125e-08 -0.94460043    -3.8476714e-11 -9.2020748e-10  14.550281      21.825422      29.100562      9241.3497    
        64   0             -3456.8501      1.3729753e-06  1.5314836e-06  2.6667962e-06 -7.9353844e-08 -0.94460044    -1.3411993e-09  5.2015744e-09  14.550281      21.825422      29.100562      9241.3497    
        65   0             -3456.8501      1.3774818e-06  1.5373994e-06  2.6671347e-06 -7.2088694e-08 -0.94460044    -1.0520177e-09  5.1059505e-09  14.550281      21.825422      29.100562      9241.3497    
Loop time of 0.668349 on 4 procs for 46 steps with 768 atoms

81.8% CPU use with 4 MPI tasks x 1 OpenMP threads

Minimization stats:
  Stopping criterion = force tolerance
  Energy initial, next-to-last, final = 
       -3456.850128873  -3456.85012919021  -3456.85012919021
  Force two-norm initial, final = 0.0026392179 8.4783286e-11
  Force max component initial, final = 0.00020672021 7.6889797e-12
  Final line search alpha, max atom move = 1 7.6889797e-12
  Iterations, force evaluations = 46 92

MPI task timing breakdown:
Section |  min time  |  avg time  |  max time  |%varavg| %total
---------------------------------------------------------------
Pair    | 0.65896    | 0.65986    | 0.66218    |   0.2 | 98.73
Neigh   | 0          | 0          | 0          |   0.0 |  0.00
Comm    | 0.004416   | 0.0067065  | 0.007571   |   1.6 |  1.00
Output  | 0.000667   | 0.00070425 | 0.000787   |   0.0 |  0.11
Modify  | 0          | 0          | 0          |   0.0 |  0.00
Other   |            | 0.001078   |            |       |  0.16

Nlocal:            192 ave         197 max         187 min
Histogram: 1 0 0 1 0 0 0 1 0 1
Nghost:           2876 ave        2881 max        2871 min
Histogram: 1 0 0 1 0 0 0 1 0 1
Neighs:          30720 ave       31557 max       29928 min
Histogram: 1 0 1 0 0 0 1 0 0 1
FullNghs:        61440 ave       63040 max       59840 min
Histogram: 1 0 0 1 0 0 0 1 0 1

Total # of neighbors = 245760
Ave neighs/atom = 320
Neighbor list builds = 0
Dangerous builds = 0

# Obtain new stress tensor

variable tmp equal pe
variable e1 equal ${tmp}
variable e1 equal -3456.85012919021
variable tmp equal press
variable p1 equal ${tmp}
variable p1 equal 1.37748179569465e-06
variable tmp equal pxx
variable pxx1 equal ${tmp}
variable pxx1 equal 1.5373993867471e-06
variable tmp equal pyy
variable pyy1 equal ${tmp}
variable pyy1 equal 2.667134694168e-06
variable tmp equal pzz
variable pzz1 equal ${tmp}
variable pzz1 equal -7.20886938311339e-08
variable tmp equal pxy
variable pxy1 equal ${tmp}
variable pxy1 equal -0.944600439469798
variable tmp equal pxz
variable pxz1 equal ${tmp}
variable pxz1 equal -1.0520176569943e-09
variable tmp equal pyz
variable pyz1 equal ${tmp}
variable pyz1 equal 5.10595045203071e-09

# Compute elastic constant from pressure tensor

variable C1pos equal ${d1}
variable C1pos equal -0.000153081761658941
variable C2pos equal ${d2}
variable C2pos equal -0.000267135939505168
variable C3pos equal ${d3}
variable C3pos equal 6.97998778982353e-06
variable C4pos equal ${d4}
variable C4pos equal -5.05929334575593e-07
variable C5pos equal ${d5}
variable C5pos equal 1.0177562505714e-07
variable C6pos equal ${d6}
variable C6pos equal 94.4600439463639

# Combine positive and negative

variable C1${dir} equal 0.5*(${C1neg}+${C1pos})
variable C16 equal 0.5*(${C1neg}+${C1pos})
variable C16 equal 0.5*(0.00015308361908912+${C1pos})
variable C16 equal 0.5*(0.00015308361908912+-0.000153081761658941)
variable C2${dir} equal 0.5*(${C2neg}+${C2pos})
variable C26 equal 0.5*(${C2neg}+${C2pos})
variable C26 equal 0.5*(0.000267138826702338+${C2pos})
variable C26 equal 0.5*(0.000267138826702338+-0.000267135939505168)
variable C3${dir} equal 0.5*(${C3neg}+${C3pos})
variable C36 equal 0.5*(${C3neg}+${C3pos})
variable C36 equal 0.5*(-6.96467794562759e-06+${C3pos})
variable C36 equal 0.5*(-6.96467794562759e-06+6.97998778982353e-06)
variable C4${dir} equal 0.5*(${C4neg}+${C4pos})
variable C46 equal 0.5*(${C4neg}+${C4pos})
variable C46 equal 0.5*(5.52232277997459e-07+${C4pos})
variable C46 equal 0.5*(5.52232277997459e-07+-5.05929334575593e-07)
variable C5${dir} equal 0.5*(${C5neg}+${C5pos})
variable C56 equal 0.5*(${C5neg}+${C5pos})
variable C56 equal 0.5*(-1.09461343924928e-07+${C5pos})
variable C56 equal 0.5*(-1.09461343924928e-07+1.0177562505714e-07)
variable C6${dir} equal 0.5*(${C6neg}+${C6pos})
variable C66 equal 0.5*(${C6neg}+${C6pos})
variable C66 equal 0.5*(94.4600432978493+${C6pos})
variable C66 equal 0.5*(94.4600432978493+94.4600439463639)

# Delete dir to make sure it is not reused

variable dir delete

# Output final values

variable C11all equal ${C11}
variable C11all equal 298.421117249599
variable C22all equal ${C22}
variable C22all equal 298.421117269831
variable C33all equal ${C33}
variable C33all equal 298.421117247363

variable C12all equal 0.5*(${C12}+${C21})
variable C12all equal 0.5*(148.730654067375+${C21})
variable C12all equal 0.5*(148.730654067375+148.730654058194)
variable C13all equal 0.5*(${C13}+${C31})
variable C13all equal 0.5*(148.730654056267+${C31})
variable C13all equal 0.5*(148.730654056267+148.730654061132)
variable C23all equal 0.5*(${C23}+${C32})
variable C23all equal 0.5*(148.730654059096+${C32})
variable C23all equal 0.5*(148.730654059096+148.730654066781)

variable C44all equal ${C44}
variable C44all equal 94.4600436065022
variable C55all equal ${C55}
variable C55all equal 94.460043632667
variable C66all equal ${C66}
variable C66all equal 94.4600436221066

variable C14all equal 0.5*(${C14}+${C41})
variable C14all equal 0.5*(1.9247981136518e-10+${C41})
variable C14all equal 0.5*(1.9247981136518e-10+1.247817467935e-09)
variable C15all equal 0.5*(${C15}+${C51})
variable C15all equal 0.5*(3.71774755650463e-09+${C51})
variable C15all equal 0.5*(3.71774755650463e-09+4.01207593315505e-10)
variable C16all equal 0.5*(${C16}+${C61})
variable C16all equal 0.5*(9.28715089491936e-10+${C61})
variable C16all equal 0.5*(9.28715089491936e-10+1.55085439443004e-10)

variable C24all equal 0.5*(${C24}+${C42})
variable C24all equal 0.5*(-5.42793068006526e-10+${C42})
variable C24all equal 0.5*(-5.42793068006526e-10+3.23913295497501e-10)
variable C25all equal 0.5*(${C25}+${C52})
variable C25all equal 0.5*(8.31512785094954e-10+${C52})
variable C25all equal 0.5*(8.31512785094954e-10+9.98856261386005e-10)
variable C26all equal 0.5*(${C26}+${C62})
variable C26all equal 0.5*(1.4435985849911e-09+${C62})
variable C26all equal 0.5*(1.4435985849911e-09+-1.95227402446515e-10)

variable C34all equal 0.5*(${C34}+${C43})
variable C34all equal 0.5*(-1.52251530751314e-09+${C43})
variable C34all equal 0.5*(-1.52251530751314e-09+-1.254422766825e-09)
variable C35all equal 0.5*(${C35}+${C53})
variable C35all equal 0.5*(-2.84677641000848e-09+${C53})
variable C35all equal 0.5*(-2.84677641000848e-09+1.4839064908595e-09)
variable C36all equal 0.5*(${C36}+${C63})
variable C36all equal 0.5*(7.65492209797006e-09+${C63})
variable C36all equal 0.5*(7.65492209797006e-09+-2.43347222476988e-10)

variable C45all equal 0.5*(${C45}+${C54})
variable C45all equal 0.5*(4.6580114350235e-09+${C54})
variable C45all equal 0.5*(4.6580114350235e-09+7.20740653654685e-09)
variable C46all equal 0.5*(${C46}+${C64})
variable C46all equal 0.5*(2.3151471710933e-08+${C64})
variable C46all equal 0.5*(2.3151471710933e-08+2.1760323874295e-08)
variable C56all equal 0.5*(${C56}+${C65})
variable C56all equal 0.5*(-3.84285943389401e-09+${C65})
variable C56all equal 0.5*(-3.84285943389401e-09+-5.880258237188e-09)

# Average moduli for cubic crystals

variable C11cubic equal (${C11all}+${C22all}+${C33all})/3.0
variable C11cubic equal (298.421117249599+${C22all}+${C33all})/3.0
variable C11cubic equal (298.421117249599+298.421117269831+${C33all})/3.0
variable C11cubic equal (298.421117249599+298.421117269831+298.421117247363)/3.0
variable C12cubic equal (${C12all}+${C13all}+${C23all})/3.0
variable C12cubic equal (148.730654062785+${C13all}+${C23all})/3.0
variable C12cubic equal (148.730654062785+148.730654058699+${C23all})/3.0
variable C12cubic equal (148.730654062785+148.730654058699+148.730654062938)/3.0
variable C44cubic equal (${C44all}+${C55all}+${C66all})/3.0
variable C44cubic equal (94.4600436065022+${C55all}+${C66all})/3.0
variable C44cubic equal (94.4600436065022+94.460043632667+${C66all})/3.0
variable C44cubic equal (94.4600436065022+94.460043632667+94.4600436221066)/3.0

variable bulkmodulus equal (${C11cubic}+2*${C12cubic})/3.0
variable bulkmodulus equal (298.421117255598+2*${C12cubic})/3.0
variable bulkmodulus equal (298.421117255598+2*148.730654061474)/3.0
variable shearmodulus1 equal ${C44cubic}
variable shearmodulus1 equal 94.4600436204253
variable shearmodulus2 equal (${C11cubic}-${C12cubic})/2.0
variable shearmodulus2 equal (298.421117255598-${C12cubic})/2.0
variable shearmodulus2 equal (298.421117255598-148.730654061474)/2.0
variable poissonratio equal 1.0/(1.0+${C11cubic}/${C12cubic})
variable poissonratio equal 1.0/(1.0+298.421117255598/${C12cubic})
variable poissonratio equal 1.0/(1.0+298.421117255598/148.730654061474)

# For Stillinger-Weber silicon, the analytical results
# are known to be (E. R. Cowley, 1988):
#               C11 = 151.4 GPa
#               C12 = 76.4 GPa
#               C44 = 56.4 GPa

print "========================================="
=========================================
print "Components of the Elastic Constant Tensor"
Components of the Elastic Constant Tensor
print "========================================="
=========================================

print "Elastic Constant C11all = ${C11all} ${cunits}"
Elastic Constant C11all = 298.421117249599 GPa
print "Elastic Constant C22all = ${C22all} ${cunits}"
Elastic Constant C22all = 298.421117269831 GPa
print "Elastic Constant C33all = ${C33all} ${cunits}"
Elastic Constant C33all = 298.421117247363 GPa

print "Elastic Constant C12all = ${C12all} ${cunits}"
Elastic Constant C12all = 148.730654062785 GPa
print "Elastic Constant C13all = ${C13all} ${cunits}"
Elastic Constant C13all = 148.730654058699 GPa
print "Elastic Constant C23all = ${C23all} ${cunits}"
Elastic Constant C23all = 148.730654062938 GPa

print "Elastic Constant C44all = ${C44all} ${cunits}"
Elastic Constant C44all = 94.4600436065022 GPa
print "Elastic Constant C55all = ${C55all} ${cunits}"
Elastic Constant C55all = 94.460043632667 GPa
print "Elastic Constant C66all = ${C66all} ${cunits}"
Elastic Constant C66all = 94.4600436221066 GPa

print "Elastic Constant C14all = ${C14all} ${cunits}"
Elastic Constant C14all = 7.2014863965009e-10 GPa
print "Elastic Constant C15all = ${C15all} ${cunits}"
Elastic Constant C15all = 2.05947757491007e-09 GPa
print "Elastic Constant C16all = ${C16all} ${cunits}"
Elastic Constant C16all = 5.4190026446747e-10 GPa

print "Elastic Constant C24all = ${C24all} ${cunits}"
Elastic Constant C24all = -1.09439886254512e-10 GPa
print "Elastic Constant C25all = ${C25all} ${cunits}"
Elastic Constant C25all = 9.15184523240479e-10 GPa
print "Elastic Constant C26all = ${C26all} ${cunits}"
Elastic Constant C26all = 6.24185591272292e-10 GPa

print "Elastic Constant C34all = ${C34all} ${cunits}"
Elastic Constant C34all = -1.38846903716907e-09 GPa
print "Elastic Constant C35all = ${C35all} ${cunits}"
Elastic Constant C35all = -6.8143495957449e-10 GPa
print "Elastic Constant C36all = ${C36all} ${cunits}"
Elastic Constant C36all = 3.70578743774654e-09 GPa

print "Elastic Constant C45all = ${C45all} ${cunits}"
Elastic Constant C45all = 5.93270898578517e-09 GPa
print "Elastic Constant C46all = ${C46all} ${cunits}"
Elastic Constant C46all = 2.2455897792614e-08 GPa
print "Elastic Constant C56all = ${C56all} ${cunits}"
Elastic Constant C56all = -4.86155883554101e-09 GPa

print "========================================="
=========================================
print "Average properties for a cubic crystal"
Average properties for a cubic crystal
print "========================================="
=========================================

print "Bulk Modulus = ${bulkmodulus} ${cunits}"
Bulk Modulus = 198.627475126182 GPa
print "Shear Modulus 1 = ${shearmodulus1} ${cunits}"
Shear Modulus 1 = 94.4600436204253 GPa
print "Shear Modulus 2 = ${shearmodulus2} ${cunits}"
Shear Modulus 2 = 74.845231597062 GPa
print "Poisson Ratio = ${poissonratio}"
Poisson Ratio = 0.332617834931957
Total wall time: 0:00:08
