LAMMPS (28 Jun 2014)
#-------------------------------------------------------------------------
# This script creates a solid argon beam of 3*${Nbins} x ny x ny unit cells
# with lattice parameter known at ${theta0} temperature. Using Langevin
# thermostats, it sets up the Nbins bins with a sinusoidal temperature
# distribution. Then the phase-space is stored `nEnsembles' times. Finally
# each ensemble (realization) is relaxed under NVE conditions.
#-------------------------------------------------------------------------
dimension       3
boundary        p p p
units           metal
atom_style      atomic

# variables for interatomic potential
variable sig equal 3.4 	        # sigma in LJ potential
variable cut equal 4.5*${sig}   # cutoff r_c
variable cut equal 4.5*3.4   
variable eps equal  0.01025423  # epsilon

variable skin equal 0.5*${sig}  # skin
variable skin equal 0.5*3.4  
neighbor ${skin} bin
neighbor 1.7 bin

# Variables defined to store data, run MD simulation
variable nev equal 10
variable nrep equal 1000
variable nfreq0 equal ${nev}*${nrep}
variable nfreq0 equal 10*${nrep}
variable nfreq0 equal 10*1000
variable runtime0 equal 200*${nfreq0}
variable runtime0 equal 200*10000
variable ndump equal ${runtime0}
variable ndump equal 2000000

# Variable to set number of bins or layers
variable Nbins equal 11

# Variable to set the base temperature and amplitude of the sinusoidal
# temperature distribution distribution
variable theta0   equal 35.0
variable theta2   equal 2*${theta0}
variable theta2   equal 2*35
variable dtheta0  equal 0.1*${theta0}
variable dtheta0  equal 0.1*35

# Variable to set damping time of the Langevin thermostat
variable tdamp  equal 1.0

# create geometry
# The lattice parameter is obtained after running the sysetm with NPT ensemble
# at zero pressure and ${theta0} temperature
variable nx equal 0.01+3*11
variable ny equal 4

lattice          fcc 5.325
Lattice spacing in x,y,z = 5.325 5.325 5.325
region	         box block 0.01 ${nx} 0 ${ny} 0 ${ny}
region	         box block 0.01 33.01 0 ${ny} 0 ${ny}
region	         box block 0.01 33.01 0 4 0 ${ny}
region	         box block 0.01 33.01 0 4 0 4
create_box       1 box
Created orthogonal box = (0.05325 0 0) to (175.778 21.3 21.3)
  12 by 1 by 2 MPI processor grid
create_atoms	 1 region box
Created 2112 atoms

# Set mass
mass             * 39.948

# Set interatomic potential
pair_style      lj/cut ${cut}
pair_style      lj/cut 15.3
pair_coeff      * * ${eps} ${sig}
pair_coeff      * * 0.01025423 ${sig}
pair_coeff      * * 0.01025423 3.4

#------------------------------------------------------------------
# Divide into 'Nbins' bins and then independent Langevin thermostats
# are applied to all bins with target temperature of the following
# sinusoidal form along x-axis:
#
#  T_n = theta0 + dtheta0 cos(2 \pi n/(Nbins-1)), 0 <= n <= Nbins-1,
#
#  where n is the bin number.
#------------------------------------------------------------------

velocity    all create ${theta2} 4459 mom yes rot yes dist gaussian
velocity    all create 70 4459 mom yes rot yes dist gaussian

fix 100 all langevin/layer ${theta0} ${dtheta0} ${tdamp} 48279 ${Nbins}
fix 100 all langevin/layer 35 ${dtheta0} ${tdamp} 48279 ${Nbins}
fix 100 all langevin/layer 35 3.5 ${tdamp} 48279 ${Nbins}
fix 100 all langevin/layer 35 3.5 1 48279 ${Nbins}
fix 100 all langevin/layer 35 3.5 1 48279 11
fix 200 all nve

# To observe the global temperature evolution
compute 1 all temp
fix gb_t all ave/time ${nev} ${nrep} ${nfreq0} c_1 ave running
fix gb_t all ave/time 10 ${nrep} ${nfreq0} c_1 ave running
fix gb_t all ave/time 10 1000 ${nfreq0} c_1 ave running
fix gb_t all ave/time 10 1000 10000 c_1 ave running

timestep        0.002
thermo	        ${nfreq0}
thermo	        10000
thermo_style	custom step temp f_gb_t etotal press vol

dump		1 all xyz ${ndump} beam0.xyz
dump		1 all xyz 2000000 beam0.xyz
run	        ${runtime0}
run	        2000000
Memory usage per processor = 3.61252 Mbytes
Step Temp gb_t TotEng Press Volume 
       0           70            0   -163.70699   -885.89377    79724.675 
   10000     35.42874    35.585524   -163.91832   -5.2623965    79724.675 
   20000    35.623268    35.547891   -163.85449   -6.2164448    79724.675 
   30000    35.507322     35.43571   -163.98611    -12.47401    79724.675 
   40000    34.443894    35.480802    -164.3035   -19.553271    79724.675 
   50000    35.643591    35.451039   -163.88968   -7.1112757    79724.675 
   60000    35.376163    35.441278   -163.88838   -1.4940254    79724.675 
   70000    34.664755    35.438963    -164.3218   -30.313096    79724.675 
   80000    34.669537    35.416846    -163.7453    31.490127    79724.675 
   90000    36.168906    35.386448   -163.76814   -8.1793896    79724.675 
  100000    34.690565    35.373471   -164.00056    4.1543656    79724.675 
  110000    35.383337    35.396729   -164.14494   -27.250396    79724.675 
  120000     35.03332     35.39878   -164.08648   -13.998068    79724.675 
  130000     36.23743    35.372994   -163.68979   -2.3562091    79724.675 
  140000    36.049474    35.381437    -164.0306   -34.039581    79724.675 
  150000    35.354742    35.368669   -163.96413   -8.0311361    79724.675 
  160000    36.528884     35.37865   -163.65019   -3.4065399    79724.675 
  170000    36.561304    35.388492   -163.30602    30.120484    79724.675 
  180000    36.662612    35.386296   -163.37668    21.304863    79724.675 
  190000    34.810286    35.395648     -163.762     27.39764    79724.675 
  200000    35.533278    35.409444   -163.79851    5.0509327    79724.675 
  210000    35.605849    35.416005   -163.79427    4.5062167    79724.675 
  220000    35.410765    35.410216   -163.82248    4.3639565    79724.675 
  230000    35.087569     35.40462   -164.13433   -20.810745    79724.675 
  240000    35.471083    35.402201   -163.80012    3.0598313    79724.675 
  250000    34.371964    35.395812   -164.15906   -3.6704401    79724.675 
  260000    35.624593    35.390358   -163.66568    15.618091    79724.675 
  270000    36.471797    35.393179   -163.57993     2.262503    79724.675 
  280000    35.378865    35.393629   -163.75524    13.204603    79724.675 
  290000    35.350062    35.390413   -164.07353   -19.742741    79724.675 
  300000    35.131154    35.385768   -163.99811   -4.0264093    79724.675 
  310000    34.866202    35.378019   -164.17695   -19.009034    79724.675 
  320000    34.790066    35.379815   -164.01261   0.62635417    79724.675 
  330000      34.5739    35.377701   -164.25111   -19.332398    79724.675 
  340000    35.239667    35.372898   -163.93041    1.4546508    79724.675 
  350000     35.10666     35.37069   -164.05046   -12.426981    79724.675 
  360000    34.662477     35.36125   -163.97893    9.6692149    79724.675 
  370000    34.856638    35.358006   -164.07414   -9.0051028    79724.675 
  380000    34.842745    35.360326   -164.28806   -29.029537    79724.675 
  390000    35.963233    35.367131   -163.74723   -1.6546281    79724.675 
  400000    36.066393    35.369009   -163.80595    -9.896218    79724.675 
  410000    34.507398    35.362479    -164.1347   -3.8299696    79724.675 
  420000    35.818486    35.360506   -163.87494   -10.165022    79724.675 
  430000    35.040396    35.356025   -164.17604    -20.70567    79724.675 
  440000    34.829994    35.353239   -164.27435   -29.563282    79724.675 
  450000    35.745126    35.352896   -163.71204    7.3156377    79724.675 
  460000    35.266736    35.352712   -163.85886    2.7167344    79724.675 
  470000    35.424435    35.358757   -164.01227   -15.453754    79724.675 
  480000    34.577166    35.356379   -164.42711   -37.244123    79724.675 
  490000    35.179938    35.352706   -163.93157 -0.050185062    79724.675 
  500000     35.56079    35.356512   -163.79652    6.3177731    79724.675 
  510000    35.629499    35.357264    -163.7306    10.407636    79724.675 
  520000    36.350492    35.354085   -163.68202   -2.7477537    79724.675 
  530000    35.208866    35.354249   -164.01799   -11.098773    79724.675 
  540000    34.858265    35.354495   -164.17347   -17.714605    79724.675 
  550000    36.392888    35.358556   -163.87686   -26.929304    79724.675 
  560000    37.453794     35.36095   -163.60658   -25.228555    79724.675 
  570000    35.273701    35.363782   -164.11145   -23.506656    79724.675 
  580000    35.425736    35.360521   -163.97865   -12.037263    79724.675 
  590000    35.792694    35.363174   -163.75802    2.4948822    79724.675 
  600000    35.471113    35.362063   -164.17074   -34.251042    79724.675 
  610000    36.188607    35.363114   -163.65669    3.1865107    79724.675 
  620000    35.533929    35.359567   -163.85318   -1.4059925    79724.675 
  630000    34.718465    35.359037   -164.47724    -44.05163    79724.675 
  640000    36.085636    35.355937   -163.80562   -11.253075    79724.675 
  650000    34.448498    35.357658   -164.25277   -17.432087    79724.675 
  660000    36.044167    35.358468   -164.10695    -40.69608    79724.675 
  670000    35.349233    35.362039   -163.82489    5.6569906    79724.675 
  680000    35.263996    35.362395   -164.29025   -41.963041    79724.675 
  690000    34.367958    35.364009   -164.17319    -5.912662    79724.675 
  700000    35.705663    35.363677   -164.05223   -25.454017    79724.675 
  710000    35.608995    35.363279   -163.68256    16.866852    79724.675 
  720000    35.586932    35.363584   -163.83118   0.77660024    79724.675 
  730000    35.115817    35.362807    -164.0868   -15.724252    79724.675 
  740000     35.17618     35.36366   -164.16405   -25.157563    79724.675 
  750000    35.293395    35.363244   -164.00943   -10.187171    79724.675 
  760000    35.632468    35.364039    -163.8221    -1.309407    79724.675 
  770000    34.966895    35.361543    -164.2771   -32.471941    79724.675 
  780000    35.734085    35.360215   -163.88454   -9.7033208    79724.675 
  790000    36.163108    35.360151   -163.65272    3.2419227    79724.675 
  800000    35.760223    35.356669   -163.63407    17.015157    79724.675 
  810000    35.404645    35.357444   -164.01722   -14.924557    79724.675 
  820000    36.198286    35.359811   -163.67198    2.3459096    79724.675 
  830000    34.020058    35.361587   -164.54437   -35.908623    79724.675 
  840000    35.011595    35.362222   -164.40968   -49.735199    79724.675 
  850000    36.193497    35.366039    -163.7929   -12.811331    79724.675 
  860000    34.735278    35.365677   -163.94076    9.1184851    79724.675 
  870000    35.043914    35.364115   -163.86365    11.776478    79724.675 
  880000    35.511256    35.365116   -163.57581    29.046686    79724.675 
  890000    35.011332    35.363475   -164.11249   -12.116069    79724.675 
  900000    35.778442    35.363723   -163.79877   -1.6057892    79724.675 
  910000    35.067692    35.364835   -163.79715    15.299885    79724.675 
  920000    35.608243    35.365475    -163.9335   -11.629002    79724.675 
  930000    35.570146    35.365006   -163.75033    10.062436    79724.675 
  940000    35.020161     35.36673   -164.27364   -32.686822    79724.675 
  950000    35.321603    35.365652   -163.98549   -10.277057    79724.675 
  960000    35.698119     35.36557   -164.14203   -36.225344    79724.675 
  970000    35.182607    35.363662   -164.14682   -22.406724    79724.675 
  980000    35.050812    35.364069   -164.12325   -17.453727    79724.675 
  990000    35.110956     35.36145   -164.23714   -30.214312    79724.675 
 1000000    36.258306    35.361862   -163.93869   -29.437436    79724.675 
 1010000    35.675528    35.361993   -164.20041   -41.760516    79724.675 
 1020000    34.205832    35.359486   -164.27241   -11.641265    79724.675 
 1030000    35.642699    35.359564   -164.01169   -18.926006    79724.675 
 1040000    34.214918    35.361993   -164.23891   -7.3560886    79724.675 
 1050000     34.59845    35.361125   -164.06623  -0.50328475    79724.675 
 1060000    36.143001     35.36001   -163.67144    5.9192132    79724.675 
 1070000    35.811587    35.359536   -163.74706    3.5086377    79724.675 
 1080000    34.631147    35.359071   -164.11311   -5.6806371    79724.675 
 1090000    36.173396    35.357784   -163.58834    11.507879    79724.675 
 1100000    35.827602    35.360714   -163.68039    9.2946445    79724.675 
 1110000    36.018571    35.362615    -163.4147    33.912936    79724.675 
 1120000    34.832722    35.363445   -163.94639    5.9698756    79724.675 
 1130000     34.97204    35.361121   -164.19584    -24.88363    79724.675 
 1140000    34.862453    35.358219    -164.1814   -20.155521    79724.675 
 1150000    34.433878     35.35863   -164.25233    -16.58764    79724.675 
 1160000    35.895734    35.359805   -163.73821    2.1445886    79724.675 
 1170000     35.51526    35.358477   -163.62431    22.043763    79724.675 
 1180000    35.770319    35.357545   -163.95797   -20.370342    79724.675 
 1190000    36.189265    35.357354   -163.64587    3.7009533    79724.675 
 1200000     34.64371     35.35698    -164.1556   -11.829581    79724.675 
 1210000    36.441173    35.358215   -163.73386   -14.666827    79724.675 
 1220000    35.288408    35.359879    -163.8537    5.5682143    79724.675 
 1230000    35.346372      35.3613   -163.81655     7.652672    79724.675 
 1240000     35.26401    35.360046   -164.07791   -18.151583    79724.675 
 1250000    35.131684    35.357866   -163.94814  -0.84445911    79724.675 
 1260000     36.00555    35.358872   -163.77796   -5.7188423    79724.675 
 1270000    35.973382    35.357383   -164.00998   -29.324975    79724.675 
 1280000    35.547326    35.357938   -163.97506   -16.599004    79724.675 
 1290000     35.89336    35.358192   -163.52615    26.294069    79724.675 
 1300000    34.181413    35.357629    -164.2814   -13.101909    79724.675 
 1310000     35.57219    35.357499   -164.17136   -36.629694    79724.675 
 1320000    34.930802    35.358014    -164.1559   -17.917607    79724.675 
 1330000    34.852575    35.358268   -164.08835   -8.9930665    79724.675 
 1340000    34.806497    35.359215   -164.24765   -24.186263    79724.675 
 1350000    36.025039    35.359787   -163.73124    -1.585392    79724.675 
 1360000    34.649559    35.359963   -164.14319   -12.256482    79724.675 
 1370000    35.991527    35.359598   -163.60876    13.621414    79724.675 
 1380000    35.383757    35.358313   -163.82576    6.1758419    79724.675 
 1390000    35.450876    35.358557   -163.96185   -8.1007444    79724.675 
 1400000     35.19078    35.359382   -164.02576   -12.461226    79724.675 
 1410000    36.192315    35.360016   -163.54954     14.97952    79724.675 
 1420000     35.61242    35.358346   -163.88594   -5.9297152    79724.675 
 1430000    34.918701    35.359042   -164.25163    -26.04321    79724.675 
 1440000    33.821995    35.358084   -164.28487   -2.8610569    79724.675 
 1450000    36.127767    35.359885   -163.62863    7.3200578    79724.675 
 1460000    35.071266    35.360715   -164.22515    -30.83962    79724.675 
 1470000    35.887418     35.36109   -163.84476   -7.0704473    79724.675 
 1480000    35.975603    35.361635   -163.72848 -0.003719998    79724.675 
 1490000    35.022037    35.361011   -163.96235    1.3078623    79724.675 
 1500000    36.324629    35.360677   -163.52976    13.264418    79724.675 
 1510000    36.506211    35.362736   -163.62699   -1.0346503    79724.675 
 1520000    36.290725    35.364039    -163.5962    8.2525022    79724.675 
 1530000    35.346965    35.363303   -163.84189    5.7261091    79724.675 
 1540000    35.780487    35.364202   -163.93306   -16.724702    79724.675 
 1550000    35.163456    35.363684   -163.92889     1.216555    79724.675 
 1560000    35.455693    35.364596   -163.73577    13.196914    79724.675 
 1570000    35.862515    35.363642   -163.66738    12.176565    79724.675 
 1580000    35.259781    35.363997   -163.86318    3.8477122    79724.675 
 1590000    36.136722    35.364099   -163.52323    16.701623    79724.675 
 1600000    34.293722     35.36498   -164.31831   -20.275101    79724.675 
 1610000    35.677066    35.364315   -164.20444   -41.388627    79724.675 
 1620000     35.82627    35.365419   -164.12193   -37.148438    79724.675 
 1630000    35.863162    35.365224   -163.53228    25.086374    79724.675 
 1640000    36.317774    35.366003   -163.78244   -13.160312    79724.675 
 1650000    35.310542    35.365856   -164.48391   -63.477747    79724.675 
 1660000    34.533483    35.365995   -164.19953   -13.678398    79724.675 
 1670000    34.445163    35.366758   -164.30345   -23.382115    79724.675 
 1680000    35.757803    35.368078   -163.61089    20.361197    79724.675 
 1690000    36.396963    35.368333   -163.89128   -26.975052    79724.675 
 1700000    36.930787    35.368206   -163.46738    3.9695619    79724.675 
 1710000    34.677014    35.369828   -163.97273    8.1963384    79724.675 
 1720000    34.991751    35.370169   -164.07188   -8.8706045    79724.675 
 1730000    34.520191    35.369851   -164.11493   -5.0716524    79724.675 
 1740000     35.30669    35.370458   -163.78167    10.366749    79724.675 
 1750000    35.167471    35.370125   -164.22584   -32.029327    79724.675 
 1760000    35.978876    35.370152   -163.90167    -17.52294    79724.675 
 1770000    35.448667    35.370288    -163.9088   -6.5393945    79724.675 
 1780000    34.592585    35.368519   -164.24997   -18.770398    79724.675 
 1790000    34.709252    35.367746   -163.95954    6.6940568    79724.675 
 1800000    36.402266    35.368612    -163.6851   -5.0615795    79724.675 
 1810000    35.662557    35.370531   -163.78937    5.8939288    79724.675 
 1820000    35.753096    35.371671   -164.08054   -32.183539    79724.675 
 1830000    35.005746    35.370274   -164.00679   -2.5622525    79724.675 
 1840000    34.050997    35.369416   -164.20941   -1.6578341    79724.675 
 1850000    36.285812    35.368968   -163.60797    6.3385294    79724.675 
 1860000    34.701622    35.368884   -164.22779   -22.425454    79724.675 
 1870000    35.911918    35.368923   -163.77898   -3.8195041    79724.675 
 1880000     36.63834    35.368599   -163.40239    19.266444    79724.675 
 1890000    34.726291    35.368509   -163.90393    13.505234    79724.675 
 1900000    35.261521    35.367721   -163.88328    4.1867906    79724.675 
 1910000    36.913283    35.367848   -163.32121    20.786158    79724.675 
 1920000     34.89561    35.367725    -163.9752    2.6507299    79724.675 
 1930000    36.467152    35.368762   -163.46727    19.427143    79724.675 
 1940000    35.428593    35.368501   -164.27456   -45.703712    79724.675 
 1950000    35.693653    35.367315   -164.12522   -34.950408    79724.675 
 1960000    34.060372    35.366791   -164.35537   -16.678661    79724.675 
 1970000    35.763067     35.36596   -163.57918    23.850467    79724.675 
 1980000    35.628712    35.366273   -163.93977   -12.614364    79724.675 
 1990000    36.093059     35.36556   -163.67571    1.7435779    79724.675 
 2000000    35.468732    35.365347   -163.83169     4.620706    79724.675 
Loop time of 3126.93 on 24 procs for 2000000 steps with 2112 atoms

Pair  time (%) = 1590.92 (50.8779)
Neigh time (%) = 18.4142 (0.588891)
Comm  time (%) = 1306.32 (41.7764)
Outpt time (%) = 0.0881271 (0.00281833)
Other time (%) = 211.192 (6.75399)

Nlocal:    88 ave 96 max 80 min
Histogram: 12 0 0 0 0 0 0 0 0 12
Nghost:    3189.67 ave 3311 max 3101 min
Histogram: 12 0 0 0 0 4 0 1 3 4
Neighs:    24355.5 ave 26809 max 21885 min
Histogram: 9 3 0 0 0 0 0 0 2 10

Total # of neighbors = 584533
Ave neighs/atom = 276.768
Neighbor list builds = 12280
Dangerous builds = 0

#------------------------------------------------------------------
# Store the positions and momenta of all atoms after each 'nfreq0'
# time-steps in ICEns.*.file, which helps prepare initial conditions
# for 'nEnsembles' realizations (ensembles).
#------------------------------------------------------------------

variable nEnsembles equal 50
variable runtimeStore equal ${nEnsembles}*${nfreq0}
variable runtimeStore equal 50*${nfreq0}
variable runtimeStore equal 50*10000

restart		${nfreq0} ICEns.*.file
restart		10000 ICEns.*.file

run	        ${runtimeStore}
run	        500000
Memory usage per processor = 3.61252 Mbytes
Step Temp gb_t TotEng Press Volume 
 2000000    35.468732    35.365347   -163.83169     4.620706    79724.675 
 2010000    35.174484    35.365475   -163.93255   0.32214876    79724.675 
 2020000    35.324231     35.36543   -164.09837   -21.762016    79724.675 
 2030000    36.398445    35.365293   -163.53626    12.120445    79724.675 
 2040000     34.35256    35.365059   -164.38782   -30.774274    79724.675 
 2050000    35.580882    35.366359   -164.02957   -22.892148    79724.675 
 2060000    36.081098    35.367073   -163.94426   -24.397356    79724.675 
 2070000    34.150042    35.365418   -164.25826   -7.1316202    79724.675 
 2080000    34.854338    35.365283    -164.0867   -9.2099452    79724.675 
 2090000    34.102369    35.365744   -164.17364    3.9569569    79724.675 
 2100000    34.699541    35.365059   -164.18104   -13.464726    79724.675 
 2110000    35.145412    35.364225   -164.14454   -23.503971    79724.675 
 2120000    35.873932    35.363834   -163.75797    1.4547864    79724.675 
 2130000    35.645095    35.363774   -164.13107   -33.895342    79724.675 
 2140000    34.808767    35.362974   -164.20393   -18.930868    79724.675 
 2150000    35.008382    35.361523   -164.18124   -19.695729    79724.675 
 2160000    36.866077    35.362589   -163.42255    11.631629    79724.675 
 2170000    35.201346     35.36171   -164.08285   -16.182812    79724.675 
 2180000    36.758702    35.361563   -163.51712    5.5883717    79724.675 
 2190000    35.099342    35.361673      -163.99   -3.2644331    79724.675 
 2200000    34.431018    35.360732   -164.09392    1.6944427    79724.675 
 2210000    34.485073    35.359926   -164.43557   -37.476577    79724.675 
 2220000    35.027705    35.359854   -163.97191   0.08429029    79724.675 
 2230000    35.297423    35.360505    -163.5399    39.880927    79724.675 
 2240000    34.939439    35.359878   -163.94111    5.8876036    79724.675 
 2250000    35.533762    35.358941   -163.98433   -15.906845    79724.675 
 2260000     34.77387    35.357686   -164.23777   -22.533803    79724.675 
 2270000    35.030492    35.357802   -163.64628    35.662876    79724.675 
 2280000    35.387519    35.358252   -163.98352   -11.909612    79724.675 
 2290000    35.173058    35.358202   -164.18015   -23.571624    79724.675 
 2300000    34.991473    35.357432   -164.19975   -25.471646    79724.675 
 2310000    35.530679    35.356615   -164.01222   -17.128792    79724.675 
 2320000     35.14093    35.357045   -164.05305   -12.318118    79724.675 
 2330000    35.057137    35.356313   -164.08013   -13.975981    79724.675 
 2340000    35.133097    35.355445   -164.22377   -29.001676    79724.675 
 2350000    35.919712    35.355773   -163.89487    -17.26066    79724.675 
 2360000    35.032343    35.355859   -163.88207    8.2749149    79724.675 
 2370000    35.966995    35.355724   -164.12315   -41.703038    79724.675 
 2380000    35.480848    35.355392    -164.0798   -24.618163    79724.675 
 2390000    35.732159    35.354778   -164.03166   -23.882181    79724.675 
 2400000    35.455406    35.354185   -164.00735   -13.199212    79724.675 
 2410000    35.365838    35.353853   -164.24092   -38.593749    79724.675 
 2420000     34.81033    35.354387   -163.87986    15.737626    79724.675 
 2430000    34.622354    35.354966   -164.19309   -13.158699    79724.675 
 2440000    36.614111    35.355151   -163.44154    16.574807    79724.675 
 2450000    34.662902    35.354981   -164.25903   -22.703983    79724.675 
 2460000    36.373292     35.35577   -163.81234   -18.719458    79724.675 
 2470000    35.333911    35.355162   -164.10684   -22.868946    79724.675 
 2480000    35.251165    35.354918   -163.76226    17.377607    79724.675 
 2490000    34.731552    35.355093   -163.97229    5.0881271    79724.675 
 2500000    35.580358    35.355006   -163.62251    23.818564    79724.675 
Loop time of 788.117 on 24 procs for 500000 steps with 2112 atoms

Pair  time (%) = 395.912 (50.2352)
Neigh time (%) = 4.51284 (0.57261)
Comm  time (%) = 334.24 (42.4099)
Outpt time (%) = 0.200098 (0.0253894)
Other time (%) = 53.2524 (6.75691)

Nlocal:    88 ave 96 max 80 min
Histogram: 12 0 0 0 0 0 0 0 0 12
Nghost:    3144.38 ave 3291 max 2998 min
Histogram: 4 1 2 5 0 1 1 6 1 3
Neighs:    24351 ave 26797 max 21885 min
Histogram: 10 2 0 0 0 0 0 0 0 12

Total # of neighbors = 584424
Ave neighs/atom = 276.716
Neighbor list builds = 3124
Dangerous builds = 0

#------------------------------------------------------------------
# Now relax the system from sinusoidal temperature distribution to
# achieve the steady state by switching the thermostats off.
#------------------------------------------------------------------

# Variables defined to store data, run MD simulation for 'nEnsembles'
# ensembles (realizations)
variable nev equal     5
variable nrep equal    100
variable nfreq equal   ${nev}*${nrep}
variable nfreq equal   5*${nrep}
variable nfreq equal   5*100
variable nprofs equal  100           # number of profiles for each realization
variable runtime equal ${nprofs}*${nfreq}
variable runtime equal 100*${nfreq}
variable runtime equal 100*500

label      loop
variable   i loop ${nEnsembles}
variable   i loop 50
    variable n equal ${runtime0}+$i*${nfreq0}
    variable n equal 2000000+$i*${nfreq0}
    variable n equal 2000000+1*${nfreq0}
    variable n equal 2000000+1*10000
    clear
    read_restart ICEns.${n}.file
    read_restart ICEns.2010000.file
  orthogonal box = (0.05325 0 0) to (175.778 21.3 21.3)
  12 by 1 by 2 MPI processor grid
  2112 atoms

    reset_timestep 0

    # Perform NVE simulation
    fix 200 all nve


    # compute temperature and heat flux for all bins by averaging over
    # 'nfreq = nev*nrep' data and store in 'tempFlux.*.ensemble', where '*'
    # represents the ensemble number

    compute 1 all temp

    compute myPE all pe/atom
    compute myStress all stress/atom NULL virial
    compute 5 all temp/heat/flux/layer myPE myStress ${Nbins}
    compute 5 all temp/heat/flux/layer myPE myStress 11

    # If both temperature and heat current recorded (uncomment the following two lines)
    fix 16 all binAve/time ${nev} ${nrep} ${nfreq} ${Nbins} 2 c_5 ave one file tempCurrent.$i.ensemble mode vector            title2 "# Bin  Temperature       Heat-current" title3 "#------------------------------------"
    fix 16 all binAve/time 5 ${nrep} ${nfreq} ${Nbins} 2 c_5 ave one file tempCurrent.$i.ensemble mode vector            title2 "# Bin  Temperature       Heat-current" title3 "#------------------------------------"
    fix 16 all binAve/time 5 100 ${nfreq} ${Nbins} 2 c_5 ave one file tempCurrent.$i.ensemble mode vector            title2 "# Bin  Temperature       Heat-current" title3 "#------------------------------------"
    fix 16 all binAve/time 5 100 500 ${Nbins} 2 c_5 ave one file tempCurrent.$i.ensemble mode vector            title2 "# Bin  Temperature       Heat-current" title3 "#------------------------------------"
    fix 16 all binAve/time 5 100 500 11 2 c_5 ave one file tempCurrent.$i.ensemble mode vector            title2 "# Bin  Temperature       Heat-current" title3 "#------------------------------------"
    fix 16 all binAve/time 5 100 500 11 2 c_5 ave one file tempCurrent.1.ensemble mode vector            title2 "# Bin  Temperature       Heat-current" title3 "#------------------------------------"

    # If only temperature is recorded (uncomment the following two lines)
    #fix 16 all binAve/time ${nev} ${nrep} ${nfreq} ${Nbins} 1 c_5 ave one file temp.$i.ensemble mode vector     #       title2 "# Bin  Temperature" title3 "#-----------------"

    # Just for tracking the global temperature
    fix gb_t all ave/time ${nev} ${nrep} ${nfreq} c_1 ave running
    fix gb_t all ave/time 5 ${nrep} ${nfreq} c_1 ave running
    fix gb_t all ave/time 5 100 ${nfreq} c_1 ave running
    fix gb_t all ave/time 5 100 500 c_1 ave running

    # run
    timestep   0.001
    thermo     ${nfreq}
    thermo     500
    thermo_style  custom step temp f_gb_t etotal press

    # dump for only the first ensemble and only once after runtime
    if	    '$i == 1' then "dump	1 all xyz ${runtime} $i.xyz"
dump	1 all xyz ${runtime} $i.xyz
dump	1 all xyz 50000 $i.xyz
dump	1 all xyz 50000 1.xyz
    run	     ${runtime}
    run	     50000
Memory usage per processor = 3.87195 Mbytes
Step Temp gb_t TotEng Press 
       0    35.174484            0   -163.93255   0.32214876 
     500    35.592166    35.456598   -163.93328    -12.22559 
    1000    35.339025    35.424461   -163.93343   -4.6130971 
    1500    36.143789    35.433335   -163.93199   -25.229901 
    2000    35.179482    35.379566   -163.93381   -1.9970385 
    2500    35.477092    35.394142   -163.93261   -7.1215914 
    3000    35.993728    35.380323   -163.93307   -21.535929 
    3500    36.624073    35.410049   -163.93112   -38.352394 
    4000    35.814436    35.421101   -163.93208   -14.182929 
    4500    34.887983    35.398188   -163.93282    7.9077599 
    5000    35.507042      35.4138   -163.93232   -10.875178 
    5500     36.28661    35.403394   -163.93168   -28.402088 
    6000    34.766166    35.390054   -163.93271    8.6665999 
    6500    35.283663    35.403636   -163.93155     -1.88295 
    7000     35.44927    35.394359   -163.93235   -6.9291735 
    7500     35.12073    35.411627   -163.93211    2.2475055 
    8000     36.00495    35.414737   -163.93201   -21.975923 
    8500    35.543849     35.40202   -163.93294   -10.794011 
    9000    35.801799    35.407719   -163.93338   -18.886888 
    9500    35.200135    35.404594   -163.93337   -2.6296757 
   10000    35.109759    35.406433   -163.93297   -1.4335209 
   10500    34.901001    35.409018   -163.93481    7.0732814 
   11000    35.973088    35.402779   -163.93215   -20.221316 
   11500    35.742363     35.39774   -163.93289   -15.028347 
   12000    36.032056    35.405449   -163.93243   -21.266469 
   12500    35.065578    35.404747   -163.93332   0.67024078 
   13000    35.766457    35.409387   -163.93243   -15.323385 
   13500    35.140171     35.41141   -163.93414  -0.77698254 
   14000    34.996988    35.401138   -163.93317    5.0024258 
   14500    35.901862    35.399982   -163.93205   -18.779457 
   15000    35.617302    35.407565   -163.93269   -13.390209 
   15500    35.931456    35.407168   -163.93313   -21.640571 
   16000     35.53854    35.400748   -163.93292   -9.4571688 
   16500    35.149179    35.405812   -163.93337    1.2779739 
   17000    35.407797    35.405216    -163.9326   -6.2769961 
   17500    35.336757     35.40896   -163.93254   -3.5701086 
   18000    34.691763    35.407329   -163.93295    12.343464 
   18500    35.824164    35.410737   -163.93196   -14.998602 
   19000    35.402061    35.405289   -163.93256   -7.3765328 
   19500    35.493653    35.408563   -163.93257   -9.0391811 
   20000    35.863505    35.412295    -163.9324   -15.624558 
   20500    35.277873    35.411584   -163.93233   -1.8443955 
   21000    35.653498    35.411032   -163.93244   -10.174091 
   21500    36.313708    35.411608    -163.9321   -30.874935 
   22000    35.695007    35.411453     -163.932    -13.68718 
   22500    35.469165    35.413859    -163.9329   -8.0525619 
   23000    35.476111    35.413183   -163.93275    -8.887959 
   23500    35.983418    35.412535   -163.93229    -22.43236 
   24000    35.267422    35.413727   -163.93258   -2.4337092 
   24500    35.718746    35.412951    -163.9323   -14.109448 
   25000    35.725839    35.413789   -163.93191   -14.319599 
   25500    35.332923    35.415707   -163.93201   -3.6795121 
   26000    35.155547    35.414175   -163.93299     1.053228 
   26500    35.543759     35.41582   -163.93184   -10.955769 
   27000    35.324412    35.412546   -163.93161   -4.7446715 
   27500    35.208331    35.417423   -163.93291  -0.74312992 
   28000    35.125135    35.415242   -163.93337  -0.96889611 
   28500    35.750111    35.415027   -163.93301   -16.717807 
   29000    35.645523    35.414315   -163.93257   -11.777779 
   29500    35.652017    35.415243   -163.93262   -14.160202 
   30000    34.967033    35.414917    -163.9336    6.0992091 
   30500    35.977073    35.413844   -163.93174   -21.816712 
   31000    35.178686    35.415584   -163.93311    1.3070681 
   31500    35.040084    35.414645   -163.93234    2.9057325 
   32000    35.539096    35.417428   -163.93256   -9.4302002 
   32500    35.202151    35.417623   -163.93321   0.47232741 
   33000     35.75894    35.417621   -163.93145   -13.778152 
   33500    34.220194    35.416504   -163.93342    25.224921 
   34000    35.860087    35.417539   -163.93195   -17.943107 
   34500    34.583893     35.41814   -163.93385    13.778904 
   35000    35.517975     35.41754    -163.9328   -10.072382 
   35500    36.175481    35.418155   -163.93279   -25.905793 
   36000    35.593905    35.418628   -163.93312    -10.14402 
   36500    35.060565    35.415314   -163.93312    2.9256359 
   37000     34.88511    35.416192   -163.93256    8.8664733 
   37500    35.195102    35.416377   -163.93266  -0.38275081 
   38000    35.400372    35.418267   -163.93311   -7.2116249 
   38500    34.752896    35.415995   -163.93308    8.5854521 
   39000     35.34804    35.415653   -163.93165   -3.6804215 
   39500    34.570992    35.417545   -163.93279    14.981193 
   40000    35.535227    35.417389   -163.93277   -10.150127 
   40500     35.73682    35.416188   -163.93215   -15.468507 
   41000    35.787571    35.416269   -163.93293   -18.886369 
   41500    35.838595    35.419639    -163.9316   -19.160723 
   42000    35.389801    35.418988   -163.93362   -6.9055769 
   42500    35.045145    35.417387   -163.93289    1.2097937 
   43000    35.556466    35.417712   -163.93363   -11.366257 
   43500     35.38235    35.417927   -163.93257    -5.484641 
   44000    36.149161    35.416519   -163.93231   -24.998392 
   44500    34.829682    35.417646   -163.93287     9.329636 
   45000    34.408989    35.417541   -163.93364    22.455919 
   45500    35.604474    35.418191   -163.93327   -11.661108 
   46000    36.564086    35.417003   -163.93242   -36.302104 
   46500    36.010336    35.417249   -163.93224   -20.398375 
   47000     35.00145    35.417227   -163.93352    5.4474192 
   47500    35.061395    35.415945   -163.93302    3.4517045 
   48000    35.572794    35.415848   -163.93395   -10.860355 
   48500      34.9782    35.416433   -163.93283    5.9642486 
   49000    35.443208    35.416627   -163.93209   -7.0630279 
   49500    35.630446    35.416858   -163.93232   -12.175687 
   50000    35.968371    35.416627   -163.93213   -21.084479 
Loop time of 134.964 on 24 procs for 50000 steps with 2112 atoms

Pair  time (%) = 49.5499 (36.7135)
Neigh time (%) = 0.0835212 (0.0618842)
Comm  time (%) = 34.7671 (25.7604)
Outpt time (%) = 0.0447603 (0.0331647)
Other time (%) = 50.5184 (37.4311)

Nlocal:    88 ave 102 max 75 min
Histogram: 2 5 2 2 1 2 2 2 4 2
Nghost:    3213.33 ave 3316 max 3111 min
Histogram: 12 0 0 0 0 0 0 0 2 10
Neighs:    25639.6 ave 30221 max 21206 min
Histogram: 1 4 4 2 1 1 4 2 4 1

Total # of neighbors = 615351
Ave neighs/atom = 291.359
Neighbor list builds = 55
Dangerous builds = 0

    next   i
    jump   in.sinusoidal loop
variable   i loop ${nEnsembles}
variable   i loop 50
    variable n equal ${runtime0}+$i*${nfreq0}
    variable n equal 2000000+$i*${nfreq0}
    variable n equal 2000000+2*${nfreq0}
    variable n equal 2000000+2*10000
    clear
    read_restart ICEns.${n}.file
    read_restart ICEns.2020000.file
  orthogonal box = (0.05325 0 0) to (175.778 21.3 21.3)
  12 by 1 by 2 MPI processor grid
  2112 atoms

    reset_timestep 0

    # Perform NVE simulation
    fix 200 all nve


    # compute temperature and heat flux for all bins by averaging over
    # 'nfreq = nev*nrep' data and store in 'tempFlux.*.ensemble', where '*'
    # represents the ensemble number

    compute 1 all temp

    compute myPE all pe/atom
    compute myStress all stress/atom NULL virial
    compute 5 all temp/heat/flux/layer myPE myStress ${Nbins}
    compute 5 all temp/heat/flux/layer myPE myStress 11

    # If both temperature and heat current recorded (uncomment the following two lines)
    fix 16 all binAve/time ${nev} ${nrep} ${nfreq} ${Nbins} 2 c_5 ave one file tempCurrent.$i.ensemble mode vector            title2 "# Bin  Temperature       Heat-current" title3 "#------------------------------------"
    fix 16 all binAve/time 5 ${nrep} ${nfreq} ${Nbins} 2 c_5 ave one file tempCurrent.$i.ensemble mode vector            title2 "# Bin  Temperature       Heat-current" title3 "#------------------------------------"
    fix 16 all binAve/time 5 100 ${nfreq} ${Nbins} 2 c_5 ave one file tempCurrent.$i.ensemble mode vector            title2 "# Bin  Temperature       Heat-current" title3 "#------------------------------------"
    fix 16 all binAve/time 5 100 500 ${Nbins} 2 c_5 ave one file tempCurrent.$i.ensemble mode vector            title2 "# Bin  Temperature       Heat-current" title3 "#------------------------------------"
    fix 16 all binAve/time 5 100 500 11 2 c_5 ave one file tempCurrent.$i.ensemble mode vector            title2 "# Bin  Temperature       Heat-current" title3 "#------------------------------------"
    fix 16 all binAve/time 5 100 500 11 2 c_5 ave one file tempCurrent.2.ensemble mode vector            title2 "# Bin  Temperature       Heat-current" title3 "#------------------------------------"

    # If only temperature is recorded (uncomment the following two lines)
    #fix 16 all binAve/time ${nev} ${nrep} ${nfreq} ${Nbins} 1 c_5 ave one file temp.$i.ensemble mode vector     #       title2 "# Bin  Temperature" title3 "#-----------------"

    # Just for tracking the global temperature
    fix gb_t all ave/time ${nev} ${nrep} ${nfreq} c_1 ave running
    fix gb_t all ave/time 5 ${nrep} ${nfreq} c_1 ave running
    fix gb_t all ave/time 5 100 ${nfreq} c_1 ave running
    fix gb_t all ave/time 5 100 500 c_1 ave running

    # run
    timestep   0.001
    thermo     ${nfreq}
    thermo     500
    thermo_style  custom step temp f_gb_t etotal press

    # dump for only the first ensemble and only once after runtime
    if	    '$i == 1' then "dump	1 all xyz ${runtime} $i.xyz"
    run	     ${runtime}
    run	     50000
Memory usage per processor = 2.84833 Mbytes
Step Temp gb_t TotEng Press 
       0    35.324231            0   -164.09837   -21.762016 
     500    34.365269    35.224536   -164.09944    2.1679135 
    1000    34.733963    35.096841    -164.0996   -5.7090888 
    1500    34.810955    35.128071   -164.09903   -8.7301507 
    2000    35.221298     35.13897   -164.09972   -18.420124 
    2500    35.731059    35.129237   -164.09829   -31.731888 
    3000    34.569964    35.110042   -164.09974   -1.1507833 
    3500    34.880711    35.088035   -164.09844   -10.889276 
    4000      35.1875    35.095081   -164.09951   -17.726728 
    4500    35.599538    35.099124   -164.09934   -30.063563 
    5000    34.536528    35.084667   -164.10006   -1.4411255 
    5500     35.06528    35.099402   -164.09911   -14.919043 
    6000    35.478431    35.105898   -164.09942   -26.295184 
    6500    35.338079    35.097365   -164.09848    -22.07629 
    7000    34.112968    35.103889   -164.10037    7.3645177 
    7500    35.359363    35.089397   -164.09978   -23.444163 
    8000    35.287038    35.095896   -164.09953   -21.804631 
    8500     34.99599    35.095726   -164.09901   -14.401473 
    9000    34.657756    35.092308   -164.10055   -7.0329841 
    9500      34.9668    35.094695   -164.09955   -13.524322 
   10000    35.160892    35.098212   -164.09966   -18.954056 
   10500    35.252462     35.09466   -164.09897   -19.776135 
   11000       35.845    35.099965   -164.09839    -38.16381 
   11500      35.6608     35.10108   -164.09951   -29.282029 
   12000    34.932986    35.100244       -164.1     -11.4572 
   12500    34.826466    35.100737   -164.10043   -10.664801 
   13000    34.966819    35.099182   -164.09952   -11.358792 
   13500    35.340003    35.101771   -164.09941   -21.391996 
   14000    34.780271    35.097325   -164.10055   -6.9629712 
   14500      35.3783    35.098665    -164.0995   -23.860581 
   15000    34.906156    35.092713   -164.10024   -11.387666 
   15500    34.894137    35.093956   -164.09951   -9.3569429 
   16000     34.85767    35.092942   -164.09901   -9.6739802 
   16500    34.463339    35.089578   -164.10067    1.0852429 
   17000    34.978772     35.08969   -164.09951    -12.61543 
   17500    34.775179    35.093493   -164.10021   -7.1006948 
   18000    35.990877    35.092099    -164.0989   -37.523578 
   18500     34.75227    35.093288   -164.09972   -6.4420941 
   19000    34.255322    35.088977   -164.09951    5.0499143 
   19500    34.416109    35.091991   -164.10049    1.7460605 
   20000    34.465583     35.09175   -164.09989   0.98235626 
   20500    35.470281     35.09405   -164.09915   -24.181266 
   21000     35.18587    35.093216   -164.09988   -18.182806 
   21500    34.881486     35.09286   -164.10037   -12.407531 
   22000    35.612226    35.095451   -164.10057    -29.41844 
   22500    35.108942    35.090906   -164.09999   -14.877789 
   23000    35.633971    35.097205   -164.09891   -30.123333 
   23500    34.186546    35.092353   -164.10085    9.9860881 
   24000    35.067247    35.092203   -164.09955   -15.019485 
   24500    35.048563     35.09223   -164.10014   -14.027311 
   25000    35.286549    35.093184   -164.10009   -20.168588 
   25500    35.411234    35.094652   -164.09981   -21.870162 
   26000    34.395952    35.092756   -164.09972     4.732727 
   26500    34.921837    35.093004   -164.09992   -7.9375058 
   27000    35.088659    35.094109   -164.09986   -14.793121 
   27500    35.654363    35.094757   -164.09889   -30.061648 
   28000    35.055796    35.092303   -164.09937   -12.906052 
   28500    35.836933    35.089566    -164.0993   -32.116821 
   29000    35.435926    35.094109   -164.09898   -21.879617 
   29500    34.844475    35.093909   -164.10012   -8.9675155 
   30000    35.851823    35.094134   -164.09883   -36.049681 
   30500    34.494962    35.093639   -164.10095  0.046452055 
   31000    35.019945    35.094579   -164.09982   -13.649515 
   31500    35.597707    35.095942   -164.09919   -29.009098 
   32000    34.905646     35.09494   -164.09993   -10.925414 
   32500    35.186481    35.096006   -164.10025    -20.67588 
   33000    34.302273    35.093675   -164.10062    4.8559283 
   33500    35.260685    35.095267    -164.0996   -20.509706 
   34000    35.063063    35.094417    -164.1001   -15.431359 
   34500    34.747237    35.091978   -164.10076    -7.872358 
   35000    34.855232    35.091285   -164.10021   -10.256195 
   35500    36.209254    35.091519   -164.09829   -44.239989 
   36000    35.784434    35.093292   -164.10028    -34.15402 
   36500    35.870193    35.092885   -164.09957   -37.945944 
   37000    35.346439    35.093751   -164.09893   -23.854442 
   37500    35.190298    35.094223       -164.1   -19.014769 
   38000    34.943955    35.094699   -164.09984   -12.064764 
   38500    34.743506    35.095196   -164.10097   -7.7462688 
   39000    35.537654     35.09461   -164.10001   -29.802895 
   39500    35.707397    35.092386    -164.1006   -33.282116 
   40000    35.728578    35.091851   -164.09978   -34.103098 
   40500    35.800372    35.092149   -164.09952   -34.932908 
   41000    35.520192     35.09276   -164.09925   -29.992896 
   41500    35.260576    35.094698   -164.09994   -20.936119 
   42000    35.913318    35.091206   -164.09989   -39.246605 
   42500    36.796598    35.090314   -164.09875   -60.593459 
   43000    35.402389    35.090216   -164.09994   -23.068034 
   43500    35.117152     35.09136   -164.09953   -16.994188 
   44000    34.942931    35.089999   -164.10004   -12.519358 
   44500    34.593791    35.092268   -164.09982   -3.8730707 
   45000    34.900326    35.091407   -164.09989   -10.925029 
   45500    34.896415    35.091384   -164.09965   -12.926382 
   46000    34.681858    35.092163   -164.09971   -4.4265732 
   46500    35.160759    35.092123   -164.09948   -17.495292 
   47000    34.750178    35.090537   -164.09983    -8.082797 
   47500    34.767234    35.091641   -164.09984   -7.9328395 
   48000    35.096392    35.090288   -164.10014   -18.032381 
   48500    34.747159    35.091421   -164.09936   -8.4609949 
   49000    35.878209     35.09102   -164.09862   -38.529593 
   49500    35.296307     35.09013   -164.09978    -21.34262 
   50000    35.808081    35.091217    -164.0992   -34.754735 
Loop time of 136.267 on 24 procs for 50000 steps with 2112 atoms

Pair  time (%) = 49.1574 (36.0743)
Neigh time (%) = 0.0662046 (0.0485845)
Comm  time (%) = 36.3438 (26.6711)
Outpt time (%) = 0.0434035 (0.0318518)
Other time (%) = 50.6561 (37.1742)

Nlocal:    88 ave 96 max 80 min
Histogram: 9 3 0 0 0 0 0 0 3 9
Nghost:    3214.21 ave 3312 max 3117 min
Histogram: 10 0 2 0 0 0 0 0 2 10
Neighs:    25645.2 ave 28211 max 22974 min
Histogram: 8 2 2 0 0 0 0 1 3 8

Total # of neighbors = 615485
Ave neighs/atom = 291.423
Neighbor list builds = 42
Dangerous builds = 0

    next   i
    jump   in.sinusoidal loop
variable   i loop ${nEnsembles}
variable   i loop 50
    variable n equal ${runtime0}+$i*${nfreq0}
    variable n equal 2000000+$i*${nfreq0}
    variable n equal 2000000+3*${nfreq0}
    variable n equal 2000000+3*10000
    clear
    read_restart ICEns.${n}.file
    read_restart ICEns.2030000.file
  orthogonal box = (0.05325 0 0) to (175.778 21.3 21.3)
  12 by 1 by 2 MPI processor grid
  2112 atoms

    reset_timestep 0

    # Perform NVE simulation
    fix 200 all nve


    # compute temperature and heat flux for all bins by averaging over
    # 'nfreq = nev*nrep' data and store in 'tempFlux.*.ensemble', where '*'
    # represents the ensemble number

    compute 1 all temp

    compute myPE all pe/atom
    compute myStress all stress/atom NULL virial
    compute 5 all temp/heat/flux/layer myPE myStress ${Nbins}
    compute 5 all temp/heat/flux/layer myPE myStress 11

    # If both temperature and heat current recorded (uncomment the following two lines)
    fix 16 all binAve/time ${nev} ${nrep} ${nfreq} ${Nbins} 2 c_5 ave one file tempCurrent.$i.ensemble mode vector            title2 "# Bin  Temperature       Heat-current" title3 "#------------------------------------"
    fix 16 all binAve/time 5 ${nrep} ${nfreq} ${Nbins} 2 c_5 ave one file tempCurrent.$i.ensemble mode vector            title2 "# Bin  Temperature       Heat-current" title3 "#------------------------------------"
    fix 16 all binAve/time 5 100 ${nfreq} ${Nbins} 2 c_5 ave one file tempCurrent.$i.ensemble mode vector            title2 "# Bin  Temperature       Heat-current" title3 "#------------------------------------"
    fix 16 all binAve/time 5 100 500 ${Nbins} 2 c_5 ave one file tempCurrent.$i.ensemble mode vector            title2 "# Bin  Temperature       Heat-current" title3 "#------------------------------------"
    fix 16 all binAve/time 5 100 500 11 2 c_5 ave one file tempCurrent.$i.ensemble mode vector            title2 "# Bin  Temperature       Heat-current" title3 "#------------------------------------"
    fix 16 all binAve/time 5 100 500 11 2 c_5 ave one file tempCurrent.3.ensemble mode vector            title2 "# Bin  Temperature       Heat-current" title3 "#------------------------------------"

    # If only temperature is recorded (uncomment the following two lines)
    #fix 16 all binAve/time ${nev} ${nrep} ${nfreq} ${Nbins} 1 c_5 ave one file temp.$i.ensemble mode vector     #       title2 "# Bin  Temperature" title3 "#-----------------"

    # Just for tracking the global temperature
    fix gb_t all ave/time ${nev} ${nrep} ${nfreq} c_1 ave running
    fix gb_t all ave/time 5 ${nrep} ${nfreq} c_1 ave running
    fix gb_t all ave/time 5 100 ${nfreq} c_1 ave running
    fix gb_t all ave/time 5 100 500 c_1 ave running

    # run
    timestep   0.001
    thermo     ${nfreq}
    thermo     500
    thermo_style  custom step temp f_gb_t etotal press

    # dump for only the first ensemble and only once after runtime
    if	    '$i == 1' then "dump	1 all xyz ${runtime} $i.xyz"
    run	     ${runtime}
    run	     50000
Memory usage per processor = 2.84833 Mbytes
Step Temp gb_t TotEng Press 
       0    36.398445            0   -163.53626    12.120445 
     500    36.406574    36.038258   -163.53692    12.526085 
    1000    36.558753    36.134286   -163.53614    9.5715223 
    1500    36.399912    36.118655   -163.53632    12.668783 
    2000    36.301822    36.165966   -163.53564    12.950726 
    2500    36.163278    36.178247   -163.53595    16.998174 
    3000    37.102074    36.201178   -163.53573   -8.3392315 
    3500    36.632053    36.192219   -163.53586    4.0047812 
    4000    36.438108    36.184076   -163.53635    9.0341774 
    4500    36.097001     36.19127   -163.53583    19.613405 
    5000     36.83291    36.184094   -163.53614   -1.0257998 
    5500    36.608427     36.18256   -163.53519    6.9115284 
    6000    35.659842    36.181974   -163.53688    28.376098 
    6500    36.636762    36.184513   -163.53604    4.2559617 
    7000    37.148877    36.187004   -163.53663   -9.7850504 
    7500    36.880354    36.184411   -163.53626   -2.4439605 
    8000    36.666967    36.198495   -163.53607    4.3497035 
    8500    36.552053    36.177986   -163.53589    6.8272118 
    9000    35.778975    36.192508   -163.53695    26.387442 
    9500    35.875661    36.176578   -163.53687      24.3638 
   10000    36.172964    36.187506   -163.53586    17.484396 
   10500    36.735267    36.178192   -163.53573     3.575042 
   11000    36.102782    36.183214   -163.53572    19.129956 
   11500    35.679322    36.182983   -163.53648    29.701902 
   12000    36.554579    36.186013   -163.53571    7.4146206 
   12500    36.659235    36.188595   -163.53594     4.227698 
   13000    37.026358    36.182889   -163.53508   -4.1432378 
   13500    35.605933    36.183132   -163.53677       33.069 
   14000    35.870514    36.181865   -163.53632    26.284166 
   14500     36.32941    36.181189   -163.53643    13.931554 
   15000    36.804461    36.185401   -163.53604   -0.6556783 
   15500    36.806041    36.186469   -163.53546  -0.65892629 
   16000    36.245637    36.187137   -163.53641    13.802014 
   16500    35.400795     36.18593   -163.53608    35.165942 
   17000    36.018898    36.183897     -163.536    19.610707 
   17500    34.948641    36.185153   -163.53834    47.183906 
   18000     35.33946    36.182895   -163.53632    38.474246 
   18500    36.598024    36.189959   -163.53656     6.246805 
   19000    36.544315    36.186581   -163.53616    6.9540948 
   19500     35.79866    36.183961   -163.53679     26.58092 
   20000    36.028754     36.18312   -163.53623    17.742236 
   20500    35.214904     36.18666   -163.53684    39.371664 
   21000    36.611149    36.186193   -163.53671    3.2074762 
   21500    35.700183     36.18734   -163.53661    28.988181 
   22000    36.434244    36.185698   -163.53573    9.5007158 
   22500    36.270772    36.187269   -163.53595    13.329821 
   23000    36.333584    36.184058    -163.5354    11.555019 
   23500    35.706019    36.186859   -163.53666    29.012575 
   24000    36.223458    36.183902   -163.53627    14.233364 
   24500    36.424255     36.18494   -163.53536    10.266716 
   25000     35.49165    36.181535   -163.53652    34.221773 
   25500    36.263729    36.182516   -163.53589    14.494753 
   26000    36.039696     36.18322   -163.53611    17.456719 
   26500    36.882403    36.181717   -163.53677   -1.9402241 
   27000     36.69007    36.183793   -163.53565    5.1408806 
   27500    36.448288    36.181115   -163.53627    11.080042 
   28000    36.564914    36.180675   -163.53513    7.8188344 
   28500    36.899107    36.181379   -163.53541    -2.528197 
   29000    35.772429    36.183856   -163.53696    26.836428 
   29500    36.823636    36.183204   -163.53576  -0.23053154 
   30000    36.518185    36.180935   -163.53637    8.7878026 
   30500    36.479289    36.181279   -163.53605       8.6977 
   31000    35.686811    36.182143   -163.53594    28.903415 
   31500    35.582272    36.182017   -163.53668    31.444738 
   32000    35.746641    36.180948    -163.5371    26.998646 
   32500    35.861933    36.181981   -163.53642    23.912239 
   33000    36.806108    36.180668   -163.53669    -2.440323 
   33500    36.887788    36.176779   -163.53588   -1.5207815 
   34000    36.251285    36.177829   -163.53617    16.751944 
   34500    35.546923     36.17491   -163.53672    31.472961 
   35000    35.258249    36.176438   -163.53608    40.641448 
   35500    35.582952    36.176359   -163.53693    32.465292 
   36000    36.307267    36.176336   -163.53499    14.118073 
   36500    36.213343    36.176846    -163.5362    13.441823 
   37000    36.438167    36.176231   -163.53561    9.0986828 
   37500    36.867694    36.178063    -163.5363  -0.81713399 
   38000    35.897859    36.177374    -163.5361    23.206265 
   38500    36.202139    36.177503   -163.53586    15.534623 
   39000    36.919941    36.176893   -163.53566   -4.7625685 
   39500    36.036563    36.178792   -163.53562    19.747167 
   40000    35.939291    36.179623   -163.53685    20.949014 
   40500    36.211826    36.178879   -163.53627    14.479754 
   41000    36.159749    36.177645   -163.53663    16.635342 
   41500    35.431871    36.177312   -163.53688    34.291371 
   42000    35.249956    36.176618   -163.53647    40.324868 
   42500    36.791404    36.180177   -163.53617  -0.77836767 
   43000    36.146198    36.178168   -163.53613    17.467138 
   43500    35.827778    36.176385   -163.53726    25.428414 
   44000    36.952631     36.17574   -163.53577   -3.2799851 
   44500    36.630217     36.17543   -163.53619    4.3534391 
   45000    36.532714     36.17819    -163.5366    6.6579624 
   45500    35.930966    36.176311   -163.53669    21.711211 
   46000    36.694948    36.177184   -163.53573    3.8683166 
   46500    35.736079     36.17562   -163.53673    26.898361 
   47000     36.60741    36.176657   -163.53642    4.1808155 
   47500    35.941772    36.176111   -163.53594    20.991502 
   48000    36.114818    36.178062    -163.5357    16.820986 
   48500    35.633884    36.177988   -163.53665    29.589393 
   49000    35.995458    36.178633   -163.53695    21.434317 
   49500    36.127823      36.1765   -163.53598    17.773673 
   50000    35.554971     36.17708   -163.53655    33.856593 
Loop time of 135.19 on 24 procs for 50000 steps with 2112 atoms

Pair  time (%) = 49.1515 (36.3575)
Neigh time (%) = 0.0827757 (0.0612294)
Comm  time (%) = 35.3252 (26.1301)
Outpt time (%) = 0.0431621 (0.0319271)
Other time (%) = 50.5869 (37.4192)

Nlocal:    88 ave 96 max 80 min
Histogram: 12 0 0 0 0 0 0 0 0 12
Nghost:    3212.38 ave 3319 max 3104 min
Histogram: 11 1 0 0 0 0 0 0 1 11
Neighs:    25638.8 ave 28182 max 23213 min
Histogram: 12 0 0 0 0 0 0 0 0 12

Total # of neighbors = 615332
Ave neighs/atom = 291.35
Neighbor list builds = 54
Dangerous builds = 0

    next   i
    jump   in.sinusoidal loop
variable   i loop ${nEnsembles}
variable   i loop 50
    variable n equal ${runtime0}+$i*${nfreq0}
    variable n equal 2000000+$i*${nfreq0}
    variable n equal 2000000+4*${nfreq0}
    variable n equal 2000000+4*10000
    clear
    read_restart ICEns.${n}.file
    read_restart ICEns.2040000.file
  orthogonal box = (0.05325 0 0) to (175.778 21.3 21.3)
  12 by 1 by 2 MPI processor grid
  2112 atoms

    reset_timestep 0

    # Perform NVE simulation
    fix 200 all nve


    # compute temperature and heat flux for all bins by averaging over
    # 'nfreq = nev*nrep' data and store in 'tempFlux.*.ensemble', where '*'
    # represents the ensemble number

    compute 1 all temp

    compute myPE all pe/atom
    compute myStress all stress/atom NULL virial
    compute 5 all temp/heat/flux/layer myPE myStress ${Nbins}
    compute 5 all temp/heat/flux/layer myPE myStress 11

    # If both temperature and heat current recorded (uncomment the following two lines)
    fix 16 all binAve/time ${nev} ${nrep} ${nfreq} ${Nbins} 2 c_5 ave one file tempCurrent.$i.ensemble mode vector            title2 "# Bin  Temperature       Heat-current" title3 "#------------------------------------"
    fix 16 all binAve/time 5 ${nrep} ${nfreq} ${Nbins} 2 c_5 ave one file tempCurrent.$i.ensemble mode vector            title2 "# Bin  Temperature       Heat-current" title3 "#------------------------------------"
    fix 16 all binAve/time 5 100 ${nfreq} ${Nbins} 2 c_5 ave one file tempCurrent.$i.ensemble mode vector            title2 "# Bin  Temperature       Heat-current" title3 "#------------------------------------"
    fix 16 all binAve/time 5 100 500 ${Nbins} 2 c_5 ave one file tempCurrent.$i.ensemble mode vector            title2 "# Bin  Temperature       Heat-current" title3 "#------------------------------------"
    fix 16 all binAve/time 5 100 500 11 2 c_5 ave one file tempCurrent.$i.ensemble mode vector            title2 "# Bin  Temperature       Heat-current" title3 "#------------------------------------"
    fix 16 all binAve/time 5 100 500 11 2 c_5 ave one file tempCurrent.4.ensemble mode vector            title2 "# Bin  Temperature       Heat-current" title3 "#------------------------------------"

    # If only temperature is recorded (uncomment the following two lines)
    #fix 16 all binAve/time ${nev} ${nrep} ${nfreq} ${Nbins} 1 c_5 ave one file temp.$i.ensemble mode vector     #       title2 "# Bin  Temperature" title3 "#-----------------"

    # Just for tracking the global temperature
    fix gb_t all ave/time ${nev} ${nrep} ${nfreq} c_1 ave running
    fix gb_t all ave/time 5 ${nrep} ${nfreq} c_1 ave running
    fix gb_t all ave/time 5 100 ${nfreq} c_1 ave running
    fix gb_t all ave/time 5 100 500 c_1 ave running

    # run
    timestep   0.001
    thermo     ${nfreq}
    thermo     500
    thermo_style  custom step temp f_gb_t etotal press

    # dump for only the first ensemble and only once after runtime
    if	    '$i == 1' then "dump	1 all xyz ${runtime} $i.xyz"
    run	     ${runtime}
    run	     50000
Memory usage per processor = 2.84833 Mbytes
Step Temp gb_t TotEng Press 
       0     34.35256            0   -164.38782   -30.774274 
     500    34.337282    34.393423   -164.38806   -29.041289 
    1000    34.483018     34.46077   -164.38777    -32.20436 
    1500     33.95404    34.467002     -164.389    -17.85239 
    2000    35.328552    34.466624   -164.38701   -54.022441 
    2500    33.533485    34.486879   -164.38919   -7.6494812 
    3000    34.710891    34.491095   -164.38713   -37.350384 
    3500    34.138195    34.505065   -164.38795   -23.559956 
    4000    34.915681    34.492527   -164.38795   -43.302589 
    4500    34.457778    34.529422   -164.38665   -32.263807 
    5000    34.139368    34.514393   -164.38699   -24.663425 
    5500    34.115147    34.525343   -164.38776   -22.118265 
    6000     34.82188    34.523604   -164.38769   -43.278927 
    6500    34.766334    34.526977   -164.38717   -39.069767 
    7000    34.592713    34.532164   -164.38796   -35.086711 
    7500    33.811837    34.524524   -164.38632   -16.510326 
    8000    34.602949     34.53081   -164.38747   -35.564954 
    8500    34.900489    34.535817   -164.38695   -42.910425 
    9000    33.993217    34.535987   -164.38856   -20.195249 
    9500      34.6126    34.540811   -164.38669   -34.516954 
   10000    34.909356    34.541338   -164.38677    -42.75899 
   10500    34.310648    34.542784   -164.38736   -27.059735 
   11000    34.137028    34.544284   -164.38759   -21.050622 
   11500    34.429309    34.541617   -164.38753   -27.993195 
   12000    35.116633    34.542984   -164.38711   -47.015685 
   12500    34.334832    34.541038    -164.3879   -28.793563 
   13000    34.206514    34.543592   -164.38765   -23.198097 
   13500    35.114985    34.545286   -164.38744   -50.338583 
   14000    34.245395     34.53735   -164.38799   -22.868476 
   14500    33.214367    34.536094   -164.38817    3.2794419 
   15000    34.879925    34.543142   -164.38769   -42.881903 
   15500    35.477713    34.533104   -164.38705   -56.787988 
   16000     34.85027    34.536913   -164.38655   -40.764827 
   16500    34.253212    34.538697   -164.38767   -24.679502 
   17000    34.744401    34.543332   -164.38719    -37.60279 
   17500    34.002784    34.541964   -164.38697   -19.610222 
   18000    33.738181    34.543334   -164.38755    -12.86161 
   18500    34.419352    34.542249   -164.38774   -30.669278 
   19000    34.503595    34.543863   -164.38692   -32.323451 
   19500    34.773192    34.547907     -164.387   -38.653791 
   20000    34.489985    34.542804   -164.38754   -33.361164 
   20500    34.757479    34.542044   -164.38634   -36.292155 
   21000    34.641369    34.543503   -164.38725   -36.207187 
   21500    35.005674    34.544601   -164.38637   -45.208444 
   22000    34.392694    34.542383   -164.38713   -31.017139 
   22500    35.092652    34.545698   -164.38663   -46.350187 
   23000    34.756934    34.540537   -164.38661    -38.56925 
   23500    34.076337    34.545091   -164.38762   -21.865525 
   24000    34.729494    34.544698    -164.3881   -38.073611 
   24500    34.537045    34.544011   -164.38711   -33.723032 
   25000    34.275791    34.544513   -164.38779   -25.869186 
   25500    34.832762    34.543714   -164.38701   -40.988481 
   26000    34.307866    34.543593   -164.38797   -28.046561 
   26500    33.912362    34.542159   -164.38785   -17.166463 
   27000    34.305416    34.541286    -164.3867   -27.751371 
   27500    34.347247    34.541468    -164.3867   -28.478247 
   28000    34.790211     34.54356   -164.38622   -40.750076 
   28500    34.764954    34.541974   -164.38573   -38.892093 
   29000    34.781875    34.544293   -164.38647   -39.900198 
   29500    34.456765    34.545348   -164.38674   -29.477441 
   30000    34.422313    34.541516   -164.38748   -29.862757 
   30500     33.74154    34.543212   -164.38673   -11.615258 
   31000    34.322712    34.546899   -164.38594   -27.412363 
   31500    34.771666    34.546713   -164.38624   -39.294961 
   32000    35.009008    34.544152   -164.38614   -43.500436 
   32500    34.445113    34.543372   -164.38758   -29.636727 
   33000       34.534    34.546046   -164.38682   -31.097381 
   33500    34.282739     34.54517   -164.38645   -26.596888 
   34000    34.705639    34.544749   -164.38667     -36.1968 
   34500     35.13404    34.544954   -164.38677   -49.439585 
   35000     34.28125    34.544718   -164.38641   -28.204766 
   35500    33.807796    34.544665   -164.38772   -15.890082 
   36000    34.492001    34.543645   -164.38637   -32.840119 
   36500     33.54487    34.544695   -164.38755   -9.6243019 
   37000    34.572932     34.54481   -164.38699   -34.804351 
   37500    34.069595    34.544732   -164.38712   -21.328799 
   38000    33.622678    34.544069   -164.38766   -11.539366 
   38500    34.600195    34.544961   -164.38693   -36.836824 
   39000    35.054486    34.545437   -164.38729   -48.420039 
   39500    34.762018      34.5439   -164.38763   -39.846748 
   40000    35.356174    34.542608   -164.38678   -52.906871 
   40500     34.35507    34.542053    -164.3874   -27.301984 
   41000    34.719287    34.542653   -164.38697   -36.577899 
   41500    34.338029    34.545324   -164.38716    -29.01662 
   42000    33.735112    34.544937   -164.38729   -12.451856 
   42500      34.4737    34.545464   -164.38708   -32.552465 
   43000    34.796071    34.545479   -164.38672   -41.303372 
   43500    34.326996    34.545392   -164.38797   -28.647428 
   44000    34.787372    34.545205   -164.38674   -38.538131 
   44500    34.489093    34.545188   -164.38762   -31.105548 
   45000    34.772916    34.544401   -164.38677   -40.807391 
   45500    34.726202    34.545218   -164.38667   -38.462211 
   46000    34.230263     34.54491   -164.38737   -24.761807 
   46500    34.256789    34.545548   -164.38656   -25.216685 
   47000    34.630161    34.545266   -164.38708   -36.091587 
   47500    34.326744    34.545869   -164.38754   -27.223729 
   48000    34.461219    34.545638   -164.38694   -30.043803 
   48500    34.644062    34.545735   -164.38719   -36.203481 
   49000     34.61496    34.545848   -164.38682   -35.260169 
   49500    35.260511    34.546644   -164.38655   -50.410364 
   50000    34.563579      34.5479   -164.38682   -34.436401 
Loop time of 135.836 on 24 procs for 50000 steps with 2112 atoms

Pair  time (%) = 49.1315 (36.1698)
Neigh time (%) = 0.0736034 (0.0541855)
Comm  time (%) = 35.6123 (26.2172)
Outpt time (%) = 0.0432742 (0.0318577)
Other time (%) = 50.9751 (37.527)

Nlocal:    88 ave 102 max 75 min
Histogram: 2 4 4 2 0 1 3 5 1 2
Nghost:    3215.67 ave 3314 max 3117 min
Histogram: 11 1 0 0 0 0 0 0 2 10
Neighs:    25640.3 ave 29680 max 21983 min
Histogram: 3 4 2 2 1 2 2 5 2 1

Total # of neighbors = 615367
Ave neighs/atom = 291.367
Neighbor list builds = 48
Dangerous builds = 0

    next   i
    jump   in.sinusoidal loop
variable   i loop ${nEnsembles}
variable   i loop 50
    variable n equal ${runtime0}+$i*${nfreq0}
    variable n equal 2000000+$i*${nfreq0}
    variable n equal 2000000+5*${nfreq0}
    variable n equal 2000000+5*10000
    clear
    read_restart ICEns.${n}.file
    read_restart ICEns.2050000.file
  orthogonal box = (0.05325 0 0) to (175.778 21.3 21.3)
  12 by 1 by 2 MPI processor grid
  2112 atoms

    reset_timestep 0

    # Perform NVE simulation
    fix 200 all nve


    # compute temperature and heat flux for all bins by averaging over
    # 'nfreq = nev*nrep' data and store in 'tempFlux.*.ensemble', where '*'
    # represents the ensemble number

    compute 1 all temp

    compute myPE all pe/atom
    compute myStress all stress/atom NULL virial
    compute 5 all temp/heat/flux/layer myPE myStress ${Nbins}
    compute 5 all temp/heat/flux/layer myPE myStress 11

    # If both temperature and heat current recorded (uncomment the following two lines)
    fix 16 all binAve/time ${nev} ${nrep} ${nfreq} ${Nbins} 2 c_5 ave one file tempCurrent.$i.ensemble mode vector            title2 "# Bin  Temperature       Heat-current" title3 "#------------------------------------"
    fix 16 all binAve/time 5 ${nrep} ${nfreq} ${Nbins} 2 c_5 ave one file tempCurrent.$i.ensemble mode vector            title2 "# Bin  Temperature       Heat-current" title3 "#------------------------------------"
    fix 16 all binAve/time 5 100 ${nfreq} ${Nbins} 2 c_5 ave one file tempCurrent.$i.ensemble mode vector            title2 "# Bin  Temperature       Heat-current" title3 "#------------------------------------"
    fix 16 all binAve/time 5 100 500 ${Nbins} 2 c_5 ave one file tempCurrent.$i.ensemble mode vector            title2 "# Bin  Temperature       Heat-current" title3 "#------------------------------------"
    fix 16 all binAve/time 5 100 500 11 2 c_5 ave one file tempCurrent.$i.ensemble mode vector            title2 "# Bin  Temperature       Heat-current" title3 "#------------------------------------"
    fix 16 all binAve/time 5 100 500 11 2 c_5 ave one file tempCurrent.5.ensemble mode vector            title2 "# Bin  Temperature       Heat-current" title3 "#------------------------------------"

    # If only temperature is recorded (uncomment the following two lines)
    #fix 16 all binAve/time ${nev} ${nrep} ${nfreq} ${Nbins} 1 c_5 ave one file temp.$i.ensemble mode vector     #       title2 "# Bin  Temperature" title3 "#-----------------"

    # Just for tracking the global temperature
    fix gb_t all ave/time ${nev} ${nrep} ${nfreq} c_1 ave running
    fix gb_t all ave/time 5 ${nrep} ${nfreq} c_1 ave running
    fix gb_t all ave/time 5 100 ${nfreq} c_1 ave running
    fix gb_t all ave/time 5 100 500 c_1 ave running

    # run
    timestep   0.001
    thermo     ${nfreq}
    thermo     500
    thermo_style  custom step temp f_gb_t etotal press

    # dump for only the first ensemble and only once after runtime
    if	    '$i == 1' then "dump	1 all xyz ${runtime} $i.xyz"
    run	     ${runtime}
    run	     50000
Memory usage per processor = 2.84833 Mbytes
Step Temp gb_t TotEng Press 
       0    35.580882            0   -164.02957   -22.892148 
     500    34.595508    35.341406   -164.03152    4.1004684 
    1000    35.462339    35.299548   -164.02941   -18.397036 
    1500    35.875231    35.272678   -164.03043   -29.475569 
    2000    36.169481    35.292006   -164.02919   -35.318592 
    2500    35.052797    35.269204   -164.03002   -7.3309343 
    3000    35.076027    35.251247   -164.03077   -5.8379199 
    3500    35.514313    35.232025   -164.03067   -18.584049 
    4000    34.935683    35.235421   -164.03049   -4.7674673 
    4500    34.745542    35.242011   -164.03084    1.0046027 
    5000    35.411593    35.226252   -164.02973   -16.838403 
    5500    34.626546    35.248976   -164.03014    2.2810408 
    6000    35.086761    35.240911   -164.02935    -7.994081 
    6500    35.056998     35.24096   -164.02933   -6.2940061 
    7000    35.452849    35.231012   -164.02927   -18.820069 
    7500    35.456414    35.234723   -164.02937   -18.623677 
    8000    35.157179    35.236822   -164.03037   -10.710168 
    8500    35.123476    35.240231   -164.02957   -8.2948641 
    9000    35.378761    35.252454   -164.02953   -14.128818 
    9500     35.27073    35.246399   -164.02944   -15.103723 
   10000    35.014853    35.249759   -164.02981   -6.3162861 
   10500     35.20096    35.249153   -164.03023   -13.482888 
   11000     35.96476    35.241049   -164.03016   -33.031929 
   11500    34.772625     35.23868   -164.03005   0.45873747 
   12000    34.774194      35.2385   -164.03055   0.12417417 
   12500    34.798279    35.239297   -164.03081   -1.9365104 
   13000    35.725853    35.237623   -164.03011    -25.28118 
   13500    34.644791    35.234003   -164.03024    4.4323794 
   14000    35.191479    35.236835   -164.03056   -9.7696507 
   14500    35.983317    35.232835   -164.03031   -31.666829 
   15000    35.184823    35.232462   -164.03058    -11.38376 
   15500    34.434709    35.234279   -164.03073     9.052008 
   16000    35.287655    35.236467   -164.02924   -14.047996 
   16500    35.803749    35.230671   -164.03095   -29.020502 
   17000    34.958376    35.236376     -164.031   -7.5203513 
   17500    34.528797    35.230914   -164.03073    4.2260668 
   18000    35.233274    35.230935   -164.03075   -11.495552 
   18500    35.165702    35.235899   -164.03033   -12.421679 
   19000    35.852498    35.234947   -164.03013   -29.339605 
   19500    35.636935    35.228766   -164.03092   -22.659905 
   20000    35.295633    35.232315   -164.03015    -15.70281 
   20500    35.075298     35.23388   -164.03074   -9.3714258 
   21000    35.596624    35.231007    -164.0298   -22.403295 
   21500    34.586832    35.230598   -164.03026    4.8405579 
   22000    35.876039    35.231451   -164.02885    -29.31233 
   22500    34.768941    35.228334   -164.02998   0.45557169 
   23000    35.057506    35.232436    -164.0297   -6.3909086 
   23500    34.915268    35.229403   -164.03063    -2.899063 
   24000    35.621751     35.22773   -164.02985   -23.592959 
   24500    35.570702    35.226797   -164.03008   -22.190171 
   25000    34.729253    35.227227   -164.02976    2.0168152 
   25500    34.908551    35.229447   -164.02999   -3.0208106 
   26000    34.425886    35.231021   -164.03087    8.8346953 
   26500     36.17765    35.230434   -164.02939   -36.021804 
   27000    34.343956    35.229369   -164.03109     12.93138 
   27500    35.460323    35.232965   -164.03073   -18.109953 
   28000    35.669851    35.232524   -164.02968    -25.82228 
   28500    34.968596     35.23203   -164.03061   -4.4735575 
   29000    36.040881    35.229706   -164.03006   -33.191908 
   29500    34.836511    35.227913    -164.0311   -1.9887829 
   30000    34.678073    35.230198   -164.03011    1.4069732 
   30500    35.075568    35.229663   -164.02992   -8.8635036 
   31000    34.670048    35.230541    -164.0305   0.46100291 
   31500    35.361075      35.2327   -164.02951   -15.902343 
   32000    35.111294     35.23053   -164.03014   -8.6180843 
   32500    35.535184    35.232551   -164.02994    -20.54704 
   33000    35.217659    35.230217   -164.03064   -11.462181 
   33500    34.796284    35.230507   -164.03127   -2.7514262 
   34000    34.929526    35.229913   -164.03086   -8.5045331 
   34500    35.381681    35.230821   -164.03072   -18.101384 
   35000     34.60907    35.229584   -164.03144    2.8559414 
   35500    35.044982    35.230958   -164.03039   -8.4256711 
   36000    35.364837    35.229668   -164.03159   -17.134648 
   36500    35.026571    35.230435   -164.03034   -6.1450647 
   37000     35.42511    35.228606   -164.03036   -16.581839 
   37500    35.309674    35.229167     -164.031   -12.613837 
   38000    36.306922    35.229736    -164.0302   -39.390428 
   38500    36.320948    35.227826   -164.03013   -40.104663 
   39000    34.848337    35.226311   -164.03139    -1.064644 
   39500    35.070724    35.228024   -164.03105   -9.5042264 
   40000    35.493685    35.226906   -164.03111    -20.72653 
   40500    35.422051    35.228395   -164.02977   -17.945212 
   41000    34.852651    35.227956   -164.03084   -1.3979758 
   41500    35.624749    35.228659   -164.03059   -23.013865 
   42000    35.571137    35.228578   -164.03057   -22.483563 
   42500    35.254069     35.22753   -164.03006    -12.77372 
   43000    35.290176    35.228037   -164.02979   -14.602414 
   43500    35.308952    35.229545   -164.02971   -14.204422 
   44000    35.513563    35.229119   -164.03054   -19.675615 
   44500    35.305182    35.229061   -164.03052    -13.69556 
   45000    34.349905     35.22752   -164.03044    10.015494 
   45500    35.127633    35.229268   -164.03044   -10.306671 
   46000    34.880173    35.228961   -164.03148   -4.2747779 
   46500    34.546535    35.229029   -164.03137    6.3594397 
   47000    34.714097    35.229221    -164.0297    1.3130567 
   47500    36.401016    35.228621   -164.02982   -41.710576 
   48000    34.612049    35.227138   -164.03128    6.1968837 
   48500    34.899939    35.227789   -164.03102    -2.392574 
   49000    35.891784    35.228892   -164.03017   -29.974989 
   49500    36.040801    35.228424    -164.0301   -32.259602 
   50000    35.398059    35.228038   -164.03161   -17.816657 
Loop time of 134.763 on 24 procs for 50000 steps with 2112 atoms

Pair  time (%) = 48.9264 (36.3054)
Neigh time (%) = 0.0725424 (0.0538294)
Comm  time (%) = 34.7634 (25.7958)
Outpt time (%) = 0.0437201 (0.0324421)
Other time (%) = 50.9575 (37.8125)

Nlocal:    88 ave 96 max 80 min
Histogram: 12 0 0 0 0 0 0 0 0 12
Nghost:    3214.25 ave 3312 max 3117 min
Histogram: 12 0 0 0 0 0 0 0 0 12
Neighs:    25639.2 ave 28189 max 23050 min
Histogram: 11 1 0 0 0 0 0 0 0 12

Total # of neighbors = 615342
Ave neighs/atom = 291.355
Neighbor list builds = 49
Dangerous builds = 0

    next   i
    jump   in.sinusoidal loop
variable   i loop ${nEnsembles}
variable   i loop 50
    variable n equal ${runtime0}+$i*${nfreq0}
    variable n equal 2000000+$i*${nfreq0}
    variable n equal 2000000+6*${nfreq0}
    variable n equal 2000000+6*10000
    clear
    read_restart ICEns.${n}.file
    read_restart ICEns.2060000.file
  orthogonal box = (0.05325 0 0) to (175.778 21.3 21.3)
  12 by 1 by 2 MPI processor grid
  2112 atoms

    reset_timestep 0

    # Perform NVE simulation
    fix 200 all nve


    # compute temperature and heat flux for all bins by averaging over
    # 'nfreq = nev*nrep' data and store in 'tempFlux.*.ensemble', where '*'
    # represents the ensemble number

    compute 1 all temp

    compute myPE all pe/atom
    compute myStress all stress/atom NULL virial
    compute 5 all temp/heat/flux/layer myPE myStress ${Nbins}
    compute 5 all temp/heat/flux/layer myPE myStress 11

    # If both temperature and heat current recorded (uncomment the following two lines)
    fix 16 all binAve/time ${nev} ${nrep} ${nfreq} ${Nbins} 2 c_5 ave one file tempCurrent.$i.ensemble mode vector            title2 "# Bin  Temperature       Heat-current" title3 "#------------------------------------"
    fix 16 all binAve/time 5 ${nrep} ${nfreq} ${Nbins} 2 c_5 ave one file tempCurrent.$i.ensemble mode vector            title2 "# Bin  Temperature       Heat-current" title3 "#------------------------------------"
    fix 16 all binAve/time 5 100 ${nfreq} ${Nbins} 2 c_5 ave one file tempCurrent.$i.ensemble mode vector            title2 "# Bin  Temperature       Heat-current" title3 "#------------------------------------"
    fix 16 all binAve/time 5 100 500 ${Nbins} 2 c_5 ave one file tempCurrent.$i.ensemble mode vector            title2 "# Bin  Temperature       Heat-current" title3 "#------------------------------------"
    fix 16 all binAve/time 5 100 500 11 2 c_5 ave one file tempCurrent.$i.ensemble mode vector            title2 "# Bin  Temperature       Heat-current" title3 "#------------------------------------"
    fix 16 all binAve/time 5 100 500 11 2 c_5 ave one file tempCurrent.6.ensemble mode vector            title2 "# Bin  Temperature       Heat-current" title3 "#------------------------------------"

    # If only temperature is recorded (uncomment the following two lines)
    #fix 16 all binAve/time ${nev} ${nrep} ${nfreq} ${Nbins} 1 c_5 ave one file temp.$i.ensemble mode vector     #       title2 "# Bin  Temperature" title3 "#-----------------"

    # Just for tracking the global temperature
    fix gb_t all ave/time ${nev} ${nrep} ${nfreq} c_1 ave running
    fix gb_t all ave/time 5 ${nrep} ${nfreq} c_1 ave running
    fix gb_t all ave/time 5 100 ${nfreq} c_1 ave running
    fix gb_t all ave/time 5 100 500 c_1 ave running

    # run
    timestep   0.001
    thermo     ${nfreq}
    thermo     500
    thermo_style  custom step temp f_gb_t etotal press

    # dump for only the first ensemble and only once after runtime
    if	    '$i == 1' then "dump	1 all xyz ${runtime} $i.xyz"
    run	     ${runtime}
    run	     50000
Memory usage per processor = 2.84833 Mbytes
Step Temp gb_t TotEng Press 
       0    36.081098            0   -163.94426   -24.397356 
     500    34.706819    35.395405   -163.94513    12.530514 
    1000    35.154698    35.416512   -163.94482  -0.33757623 
    1500    35.228883    35.425006   -163.94566   -2.7480755 
    2000    35.269109    35.467164   -163.94443    -4.624992 
    2500    35.035023    35.427769   -163.94455   0.39190403 
    3000     35.30205    35.438142    -163.9447   -4.5482778 
    3500    35.614844    35.425395   -163.94375   -12.726871 
    4000    36.079671    35.425088   -163.94399   -25.130925 
    4500    35.312537    35.402381   -163.94516   -5.9269869 
    5000    35.127166     35.42406   -163.94596   -2.8142997 
    5500    34.653921    35.400146    -163.9454    12.509728 
    6000    35.115259    35.395418    -163.9457   0.64691779 
    6500     34.97605    35.400343   -163.94363    2.9587533 
    7000    35.006268    35.415642   -163.94606    2.8340425 
    7500    35.640522    35.396756   -163.94533   -14.032212 
    8000    35.129906    35.398736   -163.94525  -0.14589817 
    8500    35.319256    35.398816   -163.94464   -4.8261583 
    9000    35.387292    35.398216   -163.94545    -8.078222 
    9500    34.986511    35.399191   -163.94466    4.4241493 
   10000    35.068292    35.398905   -163.94452 -0.099988506 
[...]
    variable n equal 2000000+49*${nfreq0}
    variable n equal 2000000+49*10000
    clear
    read_restart ICEns.${n}.file
    read_restart ICEns.2490000.file
  orthogonal box = (0.05325 0 0) to (175.778 21.3 21.3)
  12 by 1 by 2 MPI processor grid
  2112 atoms

    reset_timestep 0

    # Perform NVE simulation
    fix 200 all nve


    # compute temperature and heat flux for all bins by averaging over
    # 'nfreq = nev*nrep' data and store in 'tempFlux.*.ensemble', where '*'
    # represents the ensemble number

    compute 1 all temp

    compute myPE all pe/atom
    compute myStress all stress/atom NULL virial
    compute 5 all temp/heat/flux/layer myPE myStress ${Nbins}
    compute 5 all temp/heat/flux/layer myPE myStress 11

    # If both temperature and heat current recorded (uncomment the following two lines)
    fix 16 all binAve/time ${nev} ${nrep} ${nfreq} ${Nbins} 2 c_5 ave one file tempCurrent.$i.ensemble mode vector            title2 "# Bin  Temperature       Heat-current" title3 "#------------------------------------"
    fix 16 all binAve/time 5 ${nrep} ${nfreq} ${Nbins} 2 c_5 ave one file tempCurrent.$i.ensemble mode vector            title2 "# Bin  Temperature       Heat-current" title3 "#------------------------------------"
    fix 16 all binAve/time 5 100 ${nfreq} ${Nbins} 2 c_5 ave one file tempCurrent.$i.ensemble mode vector            title2 "# Bin  Temperature       Heat-current" title3 "#------------------------------------"
    fix 16 all binAve/time 5 100 500 ${Nbins} 2 c_5 ave one file tempCurrent.$i.ensemble mode vector            title2 "# Bin  Temperature       Heat-current" title3 "#------------------------------------"
    fix 16 all binAve/time 5 100 500 11 2 c_5 ave one file tempCurrent.$i.ensemble mode vector            title2 "# Bin  Temperature       Heat-current" title3 "#------------------------------------"
    fix 16 all binAve/time 5 100 500 11 2 c_5 ave one file tempCurrent.49.ensemble mode vector            title2 "# Bin  Temperature       Heat-current" title3 "#------------------------------------"

    # If only temperature is recorded (uncomment the following two lines)
    #fix 16 all binAve/time ${nev} ${nrep} ${nfreq} ${Nbins} 1 c_5 ave one file temp.$i.ensemble mode vector     #       title2 "# Bin  Temperature" title3 "#-----------------"

    # Just for tracking the global temperature
    fix gb_t all ave/time ${nev} ${nrep} ${nfreq} c_1 ave running
    fix gb_t all ave/time 5 ${nrep} ${nfreq} c_1 ave running
    fix gb_t all ave/time 5 100 ${nfreq} c_1 ave running
    fix gb_t all ave/time 5 100 500 c_1 ave running

    # run
    timestep   0.001
    thermo     ${nfreq}
    thermo     500
    thermo_style  custom step temp f_gb_t etotal press

    # dump for only the first ensemble and only once after runtime
    if	    '$i == 1' then "dump	1 all xyz ${runtime} $i.xyz"
    run	     ${runtime}
    run	     50000
Memory usage per processor = 2.84833 Mbytes
Step Temp gb_t TotEng Press 
       0    34.731552            0   -163.97229    5.0881271 
     500    36.017153    35.456733     -163.971   -26.846036 
    1000    34.257344    35.379199   -163.97176    19.813231 
    1500    35.306653    35.422601   -163.97117   -7.6265576 
    2000    35.245975    35.401713   -163.97155   -5.8842422 
    2500    35.584777    35.392187   -163.97211   -16.926173 
    3000    35.693399    35.401065   -163.97094   -16.793955 
    3500    35.206567    35.399688   -163.97255   -6.1925285 
    4000    35.001754     35.39141   -163.97123    1.8240836 
    4500    35.556415    35.393043   -163.97264   -14.823997 
    5000    36.101408    35.380565   -163.97192   -29.549938 
    5500    35.867504    35.386195   -163.97246   -23.752363 
    6000    35.806914    35.377289   -163.97266   -20.368939 
    6500    35.139773    35.374558   -163.97318   -3.2217458 
    7000    34.575279    35.368311   -163.97262    12.263371 
    7500    35.004871    35.362639   -163.97239  -0.50531326 
    8000    35.133917    35.363426   -163.97273   -4.3841504 
    8500    34.893752    35.368878    -163.9723    1.9123405 
    9000    35.578333    35.367923   -163.97226   -15.544989 
    9500    35.550044    35.362966    -163.9712   -13.274696 
   10000    35.084725    35.361063   -163.97269   -3.1942805 
   10500    35.483946    35.376916   -163.97295   -12.257274 
   11000    35.497442     35.36888   -163.97236    -11.34255 
   11500    35.496646    35.368504   -163.97126   -12.642363 
   12000    35.033864    35.363493   -163.97152   0.27821173 
   12500    34.808598    35.361386   -163.97247    4.8979843 
   13000     35.01079    35.365512   -163.97191    1.4665404 
   13500    34.846623     35.36306   -163.97324    3.2599654 
   14000    35.775035      35.3664   -163.97276   -22.350311 
   14500    35.079493    35.363059    -163.9727    -1.550594 
   15000    35.257575    35.362383   -163.97319   -10.215043 
   15500    33.953695    35.358088   -163.97378    26.475471 
   16000    35.549295    35.358613   -163.97303   -13.554707 
   16500    35.759078     35.35675    -163.9721   -21.222516 
   17000    36.275571    35.356751    -163.9719    -33.64598 
   17500    35.002679    35.360312   -163.97267  -0.19418514 
   18000    35.399679    35.361706   -163.97154   -9.5245748 
   18500    34.991197    35.361655   -163.97314   -1.8601656 
   19000       35.594    35.361939   -163.97321   -15.003121 
   19500    35.425151    35.361794   -163.97247   -10.965947 
   20000     34.87786    35.357037   -163.97166    1.9367284 
   20500    34.690503    35.363016   -163.97274    8.5141372 
   21000    35.343334    35.361049   -163.97245   -8.7116007 
   21500    34.446768    35.359465   -163.97242    14.687325 
   22000    35.571358      35.3613   -163.97216   -13.701635 
   22500    35.376399    35.360956   -163.97293   -9.3540075 
   23000    35.818941    35.357878   -163.97286   -23.546273 
   23500    35.034174    35.359174   -163.97246    1.2409654 
   24000    35.316073    35.358951   -163.97191   -8.1028161 
   24500      34.5887    35.359791   -163.97238    9.8706906 
   25000    35.581469     35.36072    -163.9723   -14.737985 
   25500     35.41584    35.359617   -163.97232   -10.486671 
   26000    35.325704     35.36009   -163.97216   -7.9357738 
   26500    34.766623    35.359108   -163.97238    6.4574317 
   27000    35.799031    35.360866   -163.97207   -20.794329 
   27500    35.421561    35.357591   -163.97242    -9.632096 
   28000    35.926914    35.356916   -163.97253    -24.70026 
   28500    36.035068     35.36021   -163.97241   -28.136724 
   29000    35.311502    35.357667   -163.97268   -8.1977067 
   29500    35.359754     35.36008    -163.9724   -6.5650214 
   30000    36.007693    35.357521   -163.97221   -26.240617 
   30500     34.47449    35.359023   -163.97238    13.364841 
   31000    35.005175    35.356113   -163.97355   -2.3288907 
   31500    35.544052    35.359306    -163.9728   -15.316369 
   32000    35.146811    35.359861    -163.9727   -4.9993836 
   32500    35.753261    35.357201   -163.97273   -21.692457 
   33000    35.050824    35.357004   -163.97344   -3.0661689 
   33500    35.503992    35.358237   -163.97319   -13.197854 
   34000    34.700918    35.355606   -163.97352    6.1186183 
   34500    35.024083    35.355773   -163.97342   -3.9968668 
   35000    34.931485    35.354947   -163.97361     -1.66278 
   35500    35.230089    35.355368    -163.9735   -4.8362732 
   36000     35.32784    35.355141   -163.97222   -6.7939827 
   36500    36.008993    35.355257   -163.97167   -26.193316 
   37000    35.212891    35.356003   -163.97274   -3.4594216 
   37500    35.512738    35.355342   -163.97204   -14.938145 
   38000    34.494143    35.355877    -163.9736     13.01154 
   38500    36.154339     35.35687   -163.97154   -30.529405 
   39000    35.525406    35.355743   -163.97244   -11.988344 
   39500    35.109402     35.35561   -163.97211  -0.64465005 
   40000    35.596298    35.356371    -163.9727   -13.893376 
   40500    35.053009    35.356462   -163.97207 -0.013023063 
   41000    36.226972    35.356367   -163.97172   -31.259987 
   41500    35.378918    35.355441   -163.97229   -10.246692 
   42000    35.340889    35.354953   -163.97196    -8.928636 
   42500    35.052147    35.356768    -163.9724   -4.1195741 
   43000    35.230437    35.355784   -163.97276   -8.2587993 
   43500    35.492582    35.357787   -163.97186   -14.471393 
   44000    34.463698    35.355509   -163.97327    11.682861 
   44500    34.700652    35.354527   -163.97278    5.8832083 
   45000    35.104772    35.356329   -163.97263   -2.8127646 
   45500    34.982897    35.353027   -163.97265  -0.98340314 
   46000    35.498449    35.354393   -163.97148   -14.530043 
   46500     35.81287    35.354784    -163.9719   -20.717185 
   47000    35.630394    35.354239   -163.97247   -17.143018 
   47500    35.370213    35.356988   -163.97283   -8.9107631 
   48000    35.426868    35.353515   -163.97365   -12.195702 
   48500    35.760625    35.353628   -163.97138   -21.004422 
   49000    35.686087    35.354745   -163.97188   -17.606553 
   49500    35.067708    35.354795   -163.97246   0.37964356 
   50000    34.841978    35.353521   -163.97254    3.9572546 
Loop time of 134.964 on 24 procs for 50000 steps with 2112 atoms

Pair  time (%) = 48.861 (36.2028)
Neigh time (%) = 0.0798361 (0.0591534)
Comm  time (%) = 35.2129 (26.0905)
Outpt time (%) = 0.0432994 (0.032082)
Other time (%) = 50.7675 (37.6154)

Nlocal:    88 ave 97 max 80 min
Histogram: 12 0 0 0 0 0 0 0 1 11
Nghost:    3203.12 ave 3322 max 3092 min
Histogram: 8 4 0 0 0 0 0 0 7 5
Neighs:    25640.3 ave 28216 max 23013 min
Histogram: 12 0 0 0 0 0 0 0 0 12

Total # of neighbors = 615367
Ave neighs/atom = 291.367
Neighbor list builds = 52
Dangerous builds = 0

    next   i
    jump   in.sinusoidal loop
variable   i loop ${nEnsembles}
variable   i loop 50
    variable n equal ${runtime0}+$i*${nfreq0}
    variable n equal 2000000+$i*${nfreq0}
    variable n equal 2000000+50*${nfreq0}
    variable n equal 2000000+50*10000
    clear
    read_restart ICEns.${n}.file
    read_restart ICEns.2500000.file
  orthogonal box = (0.05325 0 0) to (175.778 21.3 21.3)
  12 by 1 by 2 MPI processor grid
  2112 atoms

    reset_timestep 0

    # Perform NVE simulation
    fix 200 all nve


    # compute temperature and heat flux for all bins by averaging over
    # 'nfreq = nev*nrep' data and store in 'tempFlux.*.ensemble', where '*'
    # represents the ensemble number

    compute 1 all temp

    compute myPE all pe/atom
    compute myStress all stress/atom NULL virial
    compute 5 all temp/heat/flux/layer myPE myStress ${Nbins}
    compute 5 all temp/heat/flux/layer myPE myStress 11

    # If both temperature and heat current recorded (uncomment the following two lines)
    fix 16 all binAve/time ${nev} ${nrep} ${nfreq} ${Nbins} 2 c_5 ave one file tempCurrent.$i.ensemble mode vector            title2 "# Bin  Temperature       Heat-current" title3 "#------------------------------------"
    fix 16 all binAve/time 5 ${nrep} ${nfreq} ${Nbins} 2 c_5 ave one file tempCurrent.$i.ensemble mode vector            title2 "# Bin  Temperature       Heat-current" title3 "#------------------------------------"
    fix 16 all binAve/time 5 100 ${nfreq} ${Nbins} 2 c_5 ave one file tempCurrent.$i.ensemble mode vector            title2 "# Bin  Temperature       Heat-current" title3 "#------------------------------------"
    fix 16 all binAve/time 5 100 500 ${Nbins} 2 c_5 ave one file tempCurrent.$i.ensemble mode vector            title2 "# Bin  Temperature       Heat-current" title3 "#------------------------------------"
    fix 16 all binAve/time 5 100 500 11 2 c_5 ave one file tempCurrent.$i.ensemble mode vector            title2 "# Bin  Temperature       Heat-current" title3 "#------------------------------------"
    fix 16 all binAve/time 5 100 500 11 2 c_5 ave one file tempCurrent.50.ensemble mode vector            title2 "# Bin  Temperature       Heat-current" title3 "#------------------------------------"

    # If only temperature is recorded (uncomment the following two lines)
    #fix 16 all binAve/time ${nev} ${nrep} ${nfreq} ${Nbins} 1 c_5 ave one file temp.$i.ensemble mode vector     #       title2 "# Bin  Temperature" title3 "#-----------------"

    # Just for tracking the global temperature
    fix gb_t all ave/time ${nev} ${nrep} ${nfreq} c_1 ave running
    fix gb_t all ave/time 5 ${nrep} ${nfreq} c_1 ave running
    fix gb_t all ave/time 5 100 ${nfreq} c_1 ave running
    fix gb_t all ave/time 5 100 500 c_1 ave running

    # run
    timestep   0.001
    thermo     ${nfreq}
    thermo     500
    thermo_style  custom step temp f_gb_t etotal press

    # dump for only the first ensemble and only once after runtime
    if	    '$i == 1' then "dump	1 all xyz ${runtime} $i.xyz"
    run	     ${runtime}
    run	     50000
Memory usage per processor = 2.84833 Mbytes
Step Temp gb_t TotEng Press 
       0    35.580358            0   -163.62251    23.818564 
     500    36.182377    35.902063   -163.62298     9.419965 
    1000    36.463628    35.981489    -163.6225    1.2236561 
    1500    35.873748    35.974836   -163.62272    15.368245 
    2000    35.289641    35.972696   -163.62313    32.246313 
    2500    36.116692    35.962943   -163.62169    12.657154 
    3000    36.154299    35.987315   -163.62162    8.0714658 
    3500    36.055614    35.986097   -163.62108    12.646719 
    4000    35.761065    36.002802   -163.62248    19.923987 
    4500    36.658772     35.99388   -163.62211   -4.2268646 
    5000    36.014712    36.017403   -163.62268    10.439193 
    5500     35.85821    35.999541   -163.62314    14.689288 
    6000    35.642811    36.013586   -163.62207    22.375924 
    6500    35.969666    35.995609   -163.62257    10.913507 
    7000    35.876439    35.994872   -163.62295    14.432587 
    7500    36.070779     35.99256   -163.62292    10.946814 
    8000    36.166759    35.991346   -163.62155    7.9117924 
    8500    35.751953    35.996748   -163.62241    17.692281 
    9000    35.923034    36.002106   -163.62241    14.377469 
    9500    36.270829    35.995066   -163.62261    5.3254774 
   10000    36.848369    36.001646   -163.62201   -11.228079 
   10500     36.30153    36.001748   -163.62299    5.0074515 
   11000    35.808506     35.99861   -163.62318    14.827487 
   11500    35.528277    36.002362   -163.62338    26.443308 
   12000    35.928445    35.995098   -163.62337    12.237548 
   12500    35.697791    35.998576   -163.62264     20.55125 
   13000     35.72019    35.996441   -163.62301    19.752661 
   13500    36.375262    35.989591    -163.6227    2.2724539 
   14000    35.547641     35.99617   -163.62289    23.012705 
   14500    36.359137    35.991956    -163.6236    2.5482241 
   15000    36.455737    35.997248   -163.62317    1.9141155 
   15500     35.35982    35.996532   -163.62234    25.991922 
   16000    35.031112     35.99558   -163.62341     36.33595 
   16500    35.480235    35.995787    -163.6237     25.38925 
   17000    35.665472    35.994498   -163.62308    21.839184 
   17500     35.10261    35.997756   -163.62312    33.097946 
   18000     35.32811    35.993062   -163.62315    29.069081 
   18500    36.481172    36.001432   -163.62238   -1.3218538 
   19000    36.551442    36.000384   -163.62288   -2.3434637 
   19500    36.295117    35.996655   -163.62223    5.0500625 
   20000    36.312777    35.998955   -163.62226    4.4135913 
   20500    36.179545    35.996417   -163.62249    8.8849733 
   21000    34.842819    35.997712   -163.62334    44.752816 
   21500    36.020165    36.000716   -163.62235    12.667066 
   22000    37.211867    36.003312   -163.62118   -17.917058 
   22500    36.814661    36.002473   -163.62228   -6.6907183 
   23000     36.78365    36.002765    -163.6223   -8.4106041 
   23500    35.892988    36.002225   -163.62303    13.364131 
   24000    34.837046    35.999199   -163.62325    43.768267 
   24500    35.560229    36.001409   -163.62422     24.39917 
   25000    36.356738    35.999964    -163.6221    4.1781859 
   25500    35.747473    36.001962   -163.62304     19.03872 
   26000    36.255541     35.99886   -163.62303    5.5054939 
   26500    35.804792    35.996965   -163.62427    16.694545 
   27000     35.77331    35.997017   -163.62376    18.909618 
   27500    35.814013    35.999493   -163.62325    14.748867 
   28000    36.114348    35.999655   -163.62254    8.8039198 
   28500    37.106732    35.999668   -163.62274   -16.459391 
   29000    36.646508    35.996955   -163.62229   -3.9571285 
   29500    35.684939    35.999474   -163.62294    20.691683 
   30000    35.403088    36.001635   -163.62304     26.54384 
   30500     36.50748    36.002174   -163.62235   -1.4712215 
   31000    36.315507    35.999083   -163.62353    3.0460144 
   31500    35.821308    35.999457   -163.62222    18.318057 
   32000    35.635204    35.998727   -163.62431    19.445824 
   32500    36.326412    35.996169    -163.6226    4.0251248 
   33000    35.478705    35.997721   -163.62266    25.333951 
   33500    35.580111    35.996781   -163.62218    22.565642 
   34000    36.479817    35.999944   -163.62215  -0.17424992 
   34500    35.641054    35.997124   -163.62352    21.814215 
   35000    35.858084    35.999667   -163.62292    16.297083 
   35500    36.627195    35.999997    -163.6228   -5.3454631 
   36000    35.931861    35.997668   -163.62201    14.766866 
   36500    35.976375    36.000184   -163.62283    11.581864 
   37000    35.101858    35.997687   -163.62497    33.295084 
   37500    36.028396    35.997935   -163.62387    9.9571064 
   38000    35.557913    35.997502   -163.62334    21.370702 
   38500     35.85618    35.997938   -163.62254    16.010385 
   39000    35.837736    35.996605   -163.62247    14.888217 
   39500    36.018796    35.995062   -163.62317      12.4777 
   40000    36.570769    35.997864   -163.62189   -3.8345953 
   40500    35.101629    35.998865   -163.62317    33.357477 
   41000    35.676222    36.000228   -163.62205    19.803866 
   41500    35.664224    35.998092   -163.62276    20.034491 
   42000    35.917787     35.99879    -163.6231    12.983538 
   42500    35.304634     35.99972   -163.62306    27.871573 
   43000    35.846072    35.998209    -163.6239     14.74682 
   43500    35.788166    35.995609   -163.62307    17.437391 
   44000    36.630544    35.996714   -163.62227   -4.0566574 
   44500     36.45174    35.996682   -163.62297  -0.18710195 
   45000    36.505933    35.995881   -163.62294    -1.207104 
   45500     36.33708      35.9958   -163.62298    3.4208425 
   46000    36.489567    35.995688   -163.62256  -0.43701972 
   46500    36.735702    35.996912   -163.62135   -6.2746118 
   47000    35.528041    35.995913   -163.62284    24.811119 
   47500     36.48631    35.997654   -163.62158    2.0215806 
   48000    36.125604    35.997994   -163.62243    6.2901811 
   48500    36.502829    35.998758   -163.62113   -3.0539033 
   49000    36.166552    35.998165   -163.62231    6.6694917 
   49500    35.120852    35.998214   -163.62331    37.479908 
   50000    35.768508    35.998065   -163.62185    19.772234 
Loop time of 134.602 on 24 procs for 50000 steps with 2112 atoms

Pair  time (%) = 48.7784 (36.239)
Neigh time (%) = 0.0922864 (0.0685625)
Comm  time (%) = 35.09 (26.0694)
Outpt time (%) = 0.0432349 (0.0321206)
Other time (%) = 50.5981 (37.5909)

Nlocal:    88 ave 96 max 80 min
Histogram: 12 0 0 0 0 0 0 0 0 12
Nghost:    3205.92 ave 3316 max 3098 min
Histogram: 9 3 0 0 0 0 0 0 2 10
Neighs:    25642.3 ave 28202 max 22999 min
Histogram: 9 2 1 0 0 0 0 0 3 9

Total # of neighbors = 615415
Ave neighs/atom = 291.39
Neighbor list builds = 63
Dangerous builds = 0

    next   i
    jump   in.sinusoidal loop
    # ATTENTION: make sure that script file name is put here

label break
variable i delete
