# LAMMPS data file written by OVITO Basic 3.8.4

4 atoms
2 atom types

0.0 4.392 xlo xhi
0.0 4.392 ylo yhi
0.0 4.392 zlo zhi

Masses

1 26.981538  # Al
2 91.224  # Zr

Atoms  # atomic

1 1 0.0 0.0 0.0
2 2 2.196 2.196 0.0
3 2 2.196 0.0 2.196
4 2 0.0 2.196 2.196
