ITEM: TIMESTEP
0
ITEM: NUMBER OF ATOMS
6000
ITEM: BOX BOUNDS pp pp pp
3.4191673060742644e-01 2.6999083269392404e+01
3.5246881715516665e-01 2.6988531182844504e+01
1.6913568164745527e+00 1.0767264318352640e+02
ITEM: ATOMS id type x y z c_peratom fx fy fz 
122 2 5.85714 5.51508 6.98917 -24.5718 -0.252242 1.27562 -2.15193 
601 3 6.06534 3.00994 4.29223 -27.6255 -0.687393 2.69426 -2.67542 
602 3 5.90303 2.89165 9.33128 -28.5327 -1.23944 0.85668 3.19177 
1021 3 3.12706 6.00364 4.20106 -29.2317 0.191853 -3.85873 0.853177 
1022 2 2.9508 5.62232 9.54968 -25.0577 1.41576 3.40811 -0.555707 
1502 3 3.69781 2.79796 6.41613 -27.9891 -2.17001 1.91943 1.79684 
2501 1 1.66862 1.9281 7.05384 -6.72498 1.22905 -0.157595 -1.34819 
4502 1 4.69083 4.37523 5.17102 -7.3644 -0.747355 0.160955 0.663417 
5001 1 1.6178 4.63918 8.23824 -7.29891 -0.0174349 -1.9544 1.424 
5502 1 2.84245 2.12471 4.71879 -8.33514 1.498 -0.167139 -0.0992325 
4002 1 4.71656 1.35722 8.39121 -8.55677 -0.600484 0.464546 -0.44396 
2022 1 2.23543 4.53593 5.70229 -6.96566 -1.06939 -1.5351 -1.39951 
2001 1 1.33554 1.6214 2.65178 -7.02724 -0.2556 1.3432 0.663315 
2502 1 4.52594 3.95345 7.95195 -8.4723 0.864021 0.591307 -1.09594 
4602 1 3.02925 4.63794 2.63741 -6.33314 0.204666 -1.62618 2.15968 
2601 1 6.44449 4.92305 3.07574 -7.24583 -1.11319 0.0539161 -1.00492 
502 3 0.40733 3.00972 9.4087 -28.4026 1.38441 0.256709 -2.09877 
3540 1 4.32228 6.94532 3.03126 -8.27976 1.71611 2.65554 -1.74797 
3601 1 5.75469 2.05615 5.93825 -8.89728 -0.962656 -1.30641 -0.046736 
4421 1 2.04669 6.96061 5.72644 -8.30941 -2.20534 3.4824 -0.883008 
3502 1 2.18908 1.96325 9.79213 -7.38013 -0.921253 2.63939 1.11403 
501 2 0.68689 3.0425 4.41704 -25.2072 4.81144 -4.81092 -3.38473 
5522 1 4.52092 6.87944 8.42809 -8.65485 -0.893513 -1.0396 -2.32757 
101 3 5.48429 0.617021 2.06732 -28.2195 1.00478 -2.72555 -3.47328 
5120 1 4.89657 2.30001 2.65438 -8.20434 -2.15623 2.71973 1.14327 
1002 3 3.24542 0.44296 9.38971 -28.2617 -0.762817 0.964838 2.31848 
5002 1 4.42879 4.38088 10.5065 -7.68466 1.20454 -0.343798 0.132915 
22 3 0.563018 5.41877 6.67229 -29.3146 1.45297 1.69495 2.37901 
4121 1 7.10171 4.23351 5.49596 -8.37566 3.50774 -0.74565 2.68036 
2600 1 7.21663 1.77496 3.05016 -8.85318 1.11769 -0.71285 2.61992 
1221 3 13.5493 5.3626 4.17856 -27.9939 2.45825 3.58529 1.51598 
3102 1 7.29678 4.20191 8.51019 -8.55842 -1.7927 0.936642 -0.820757 
2102 1 7.1489 1.65057 8.04479 -8.78353 1.22397 0.0312082 -1.76195 
222 3 11.1414 5.66404 6.74352 -29.5813 -0.391249 -0.620618 1.32157 
701 3 10.7531 3.17636 4.18669 -28.4927 -0.778881 -1.73571 0.272539 
702 2 11.0636 3.12865 9.37442 -26.1463 0.38314 0.720235 -0.874424 
1121 3 8.30869 5.83267 4.04694 -29.1989 -2.14735 -0.965636 1.48147 
1122 3 8.60613 5.77314 9.75388 -28.7476 -1.32413 -0.702576 -0.643018 
1602 3 8.21602 3.06598 6.89203 -27.6833 2.82015 0.477062 -0.301451 
2202 1 12.4206 4.62462 8.29758 -7.3115 0.165437 1.76958 -0.997076 
5602 1 9.69389 1.53342 8.19351 -7.84613 1.05803 -0.15377 -2.50077 
5101 1 9.89328 1.15687 2.83962 -8.06359 -2.31686 2.3429 0.581303 
2201 1 9.27253 1.86544 5.41574 -8.28659 -1.88628 0.710032 1.03302 
4621 1 8.78981 3.98242 3.03503 -7.77812 1.01346 -1.03496 0.577634 
3022 1 9.67058 4.23422 7.82015 -7.44159 0.810649 0.812747 2.16986 
4202 1 11.8442 1.61066 4.70633 -7.68446 -0.0738578 -1.14658 -0.426235 
5621 1 11.4885 3.99259 2.53811 -8.43887 2.58265 0.73075 2.80747 
2122 1 10.0789 4.45267 5.39062 -7.14462 -2.62568 0.765834 -1.52619 
5282 1 12.0579 2.34109 7.38087 -6.56291 0.202375 -1.40079 0.262845 
2721 1 12.102 6.99244 5.50274 -7.32402 -0.82743 1.12677 -0.520699 
4201 1 12.7434 1.52698 2.09159 -9.0048 0.346726 -0.431333 -0.594926 
4101 1 7.21435 6.96151 7.98731 -7.41755 -2.37001 -1.2716 2.56114 
3621 1 7.24483 6.86416 5.57429 -6.28723 -3.38628 -1.09296 -0.665061 
3641 1 9.62674 6.57121 2.64836 -8.67183 -0.83702 -0.505616 0.308159 
2222 1 9.5402 6.91726 5.7233 -7.33641 2.4848 0.621143 -1.55564 
4140 1 12.0743 6.91501 2.72725 -8.68489 2.72419 -2.0278 0.355321 
2602 1 12.473 4.53298 5.41377 -7.24733 -1.33866 -2.42578 -0.162794 
1102 3 8.48727 0.641613 9.31633 -27.9367 -0.957477 -2.23398 2.50888 
3722 1 12.1673 6.81935 10.4589 -7.06169 -0.739778 1.56171 1.3013 
4102 1 7.06222 1.50272 10.4587 -7.24784 -0.3944 0.735703 0.747261 
202 2 11.148 0.369593 6.60019 -25.0885 1.55886 3.77224 -1.51927 
2203 1 12.4722 1.76721 10.2823 -6.95489 -1.87963 -0.485539 0.957058 
1201 3 13.5554 0.742882 3.95706 -28.3778 0.546576 -0.330715 2.61249 
5541 1 4.90661 12.316 2.66762 -9.38643 -0.34516 1.73185 0.457971 
3521 1 4.5085 7.18491 5.6158 -7.76534 1.12137 -1.279 1.00817 
5922 1 1.69521 7.22144 8.33599 -7.29915 1.32364 0.947781 -1.64004 
41 2 0.93918 10.9219 1.85171 -25.0404 -3.53606 2.1569 2.84779 
5521 1 1.63504 7.02301 3.00139 -7.82675 2.10675 2.14287 -0.356549 
5942 1 1.2159 12.597 5.90676 -7.75767 1.22221 2.62588 0.945351 
2940 1 5.43363 9.78077 3.07119 -8.23938 -1.99572 0.635065 -0.641731 
5021 1 1.48191 10.137 4.92277 -7.04578 1.58837 -1.70477 1.98502 
4021 1 4.2536 9.59204 5.53077 -8.66826 -0.219372 1.56778 -2.14154 
142 3 5.57543 11.0385 6.73192 -27.7729 0.206304 -0.919783 1.40285 
621 3 5.69461 8.35872 4.24137 -28.2778 1.44938 -2.96047 2.31215 
622 3 5.51739 8.3028 9.27403 -28.9278 1.9536 0.252241 3.47203 
1041 3 3.35712 10.9183 4.24037 -27.2503 -1.26124 -0.0313699 -0.0736001 
1042 3 3.09825 10.9357 9.55365 -28.8419 -2.18864 0.236924 -1.32181 
1522 3 3.14045 8.33734 6.87758 -27.5954 -0.657115 -0.734561 1.12046 
2042 1 1.81185 12.5937 8.77455 -6.90747 0.316869 -0.914641 -2.10563 
2521 1 4.25272 9.68783 7.91858 -8.54783 1.64605 0.568879 1.52127 
3541 1 2.24759 12.2368 3.17113 -8.55276 1.11454 2.93568 -1.01509 
4041 1 4.1632 12.2957 5.74534 -9.06284 0.315576 0.919767 -2.63971 
4521 1 2.51373 9.62964 2.72603 -8.05343 1.77387 -0.710185 1.82588 
4522 1 1.63757 9.90478 7.9947 -8.10086 0.663278 -0.458936 -0.513797 
4042 1 4.47181 12.5651 8.2396 -7.72307 -0.77722 -1.12482 1.48095 
3642 1 6.92404 12.0504 5.28928 -8.6213 -1.39394 0.315923 -1.28927 
2522 1 6.91886 12.1417 7.75563 -7.83815 0.744153 -0.636314 1.48972 
522 3 0.450861 8.53621 9.37406 -28.691 0.492768 -1.17037 1.17169 
521 2 0.535844 8.22464 4.34618 -24.1923 -1.76433 0.650806 -0.421783 
2622 1 3.99877 9.25157 10.4256 -6.57983 0.591083 3.70916 -2.17678 
641 2 5.74603 13.6607 4.46256 -23.1215 -0.122367 0.517625 -0.469695 
1721 2 13.5704 8.29375 1.88085 -24.1235 1.08978 -0.32917 -0.816179 
2701 1 12.5575 7.48252 8.0069 -7.32917 -1.4423 -1.06492 -0.308782 
4702 1 9.68648 7.04616 8.38068 -8.22967 2.07177 -0.583977 1.01274 
1241 3 13.4089 10.9813 4.36194 -27.7083 4.99784 -2.2714 -1.86068 
2142 1 7.01102 9.48938 5.57555 -8.24641 0.08203 1.05434 0.598275 
1642 3 8.32137 13.4927 7.15289 -28.5868 0.914726 1.53005 -1.09569 
2141 1 7.68309 11.094 2.47242 -8.10222 -0.329447 2.15378 -0.39537 
3002 1 7.08191 9.56675 8.33302 -7.76244 -2.04692 -0.182422 -1.24941 
5641 1 7.42554 7.90499 3.31243 -7.59705 -0.333807 -0.78857 -2.53972 
3140 1 9.5218 9.18406 2.42944 -7.73366 0.596617 0.497718 -0.553156 
4622 1 9.59083 9.77059 7.97753 -7.59469 0.335054 -0.781385 0.152215 
5121 1 10.0195 9.57074 5.3878 -8.36278 -0.535166 0.487197 -0.612165 
242 2 11.1562 11.0759 6.72754 -25.0371 -1.36435 -1.67973 3.42652 
721 2 10.7544 8.0057 4.04384 -24.1863 -1.55351 0.0191644 0.992705 
722 2 10.9751 8.60536 9.40908 -25.9194 0.529221 -0.67722 1.92242 
1141 3 8.28678 10.7351 4.53388 -28.0462 1.92946 -0.254616 -1.3889 
1142 3 8.00974 11.0133 9.38959 -29.2299 2.25141 0.122626 1.22153 
1622 3 8.45723 8.11488 7.11623 -29.2039 -0.461008 1.64347 -2.74809 
3741 1 12.1969 10.1768 8.64034 -6.68621 1.20067 1.68847 -0.214998 
3742 1 12.0644 12.7167 7.9189 -8.14391 2.28359 0.763614 -1.67221 
4722 1 9.48367 12.191 5.86297 -8.0411 0.132545 1.48729 -0.446374 
5662 1 9.53533 12.4032 8.39952 -6.76601 -0.849693 0.521071 -0.273763 
4141 1 12.2486 12.1418 5.05573 -9.30197 -1.52044 3.10346 1.304 
4160 1 11.8788 9.64374 3.15394 -8.54247 3.02802 0.219716 1.76846 
4241 1 10.0657 12.1614 3.39353 -8.20495 -0.898123 -0.215904 -3.14626 
3121 1 13.102 9.90713 6.33783 -7.6901 -0.6428 0.461066 -2.33638 
741 3 10.9881 13.6588 4.33227 -28.082 -1.79422 1.91715 0.86004 
1641 2 8.53613 13.2397 1.71448 -23.8789 0.312767 0.0311488 -1.18797 
3643 1 6.6519 6.86562 19.1798 -6.45498 -0.189209 -1.39831 -3.12187 
3403 1 0.348502 1.01516 15.2949 -7.94404 1.14186 -2.37845 2.20023 
3004 1 2.27471 3.32837 19.3108 -7.98636 -0.276622 0.828648 -0.703763 
5504 1 4.40492 1.59964 18.5414 -7.24119 -0.735476 2.54721 2.53822 
3602 1 4.52167 1.72468 11.1272 -7.62068 -0.711937 0.992796 -3.86935 
2983 1 1.46631 4.5425 17.17 -7.61859 2.06974 -2.3986 -1.39256 
2902 1 1.84133 4.5898 11.0397 -8.82496 -2.39891 -1.07326 1.74367 
123 3 5.51229 5.73026 12.2601 -28.6526 1.43309 0.0346898 -1.86507 
124 3 5.53225 5.84077 17.0963 -27.5196 -2.07311 1.2949 3.32725 
603 3 5.37918 3.12435 14.7696 -27.9467 1.37037 -2.33478 -2.14602 
1023 2 2.5154 5.77381 14.9491 -24.1736 1.54158 -0.60727 1.26062 
1503 3 3.16234 3.113 11.9657 -28.8305 -1.17059 -2.32271 -1.1174 
1504 3 2.99783 3.20171 17.309 -28.3608 1.59981 -1.19636 0.45561 
2503 1 4.39532 4.38036 15.7741 -8.94884 -1.212 1.67407 0.948898 
4503 1 0.919874 4.78012 13.9945 -8.12614 -0.639653 0.410206 -2.59252 
2403 1 2.04783 2.91939 15.157 -7.76054 1.92734 0.74562 2.21381 
5903 1 1.42697 2.08779 12.5836 -7.22719 -1.12913 0.287327 -0.0494088 
3522 1 4.32486 1.65505 16.0492 -7.52328 -0.531946 3.05143 -0.15184 
5524 1 3.21486 6.50947 16.9276 -7.50158 3.84483 -2.29195 -0.200574 
4603 1 4.24615 4.26361 13.0362 -8.44224 0.281246 1.16897 2.35604 
4022 1 4.18726 6.94962 13.9278 -7.8153 0.314141 -5.68931 -0.27174 
4103 1 4.54455 4.39913 18.5761 -7.64076 -0.31145 0.906141 -1.32374 
3504 1 2.0687 1.11271 17.8201 -7.81707 -2.2876 1.64481 -0.938549 
4104 1 6.83966 1.54133 18.9271 -7.14558 1.80612 -1.87594 -1.27374 
4604 1 6.71975 1.9988 16.0148 -7.74442 0.727829 0.709992 -0.463595 
3623 1 6.97712 4.944 16.487 -8.15426 1.74216 -2.42043 -0.978471 
1003 2 2.63933 0.84151 15.0558 -24.164 -2.05343 -2.98524 0.0554882 
5503 1 6.63473 1.7204 13.1674 -7.85736 0.662871 1.34198 1.4421 
3003 1 6.94325 4.3627 13.796 -8.11054 -0.104191 -0.898601 1.43085 
103 3 5.46124 0.438384 12.0811 -29.2246 2.05329 -0.107597 1.33871 
5523 1 7.00067 6.89803 13.3098 -8.15812 -0.338368 0.729404 0.759964 
2023 1 0.97307 7.0005 16.0387 -8.26671 -1.53364 1.82133 -1.03508 
3603 1 3.81573 1.57308 13.4418 -7.29614 1.75625 0.110673 1.41858 
4524 1 1.27745 6.85283 18.9122 -7.77563 0.873668 -0.808162 2.93858 
1223 3 13.5563 5.97956 14.8003 -29.4048 0.0976515 0.441432 0.532914 
1704 3 13.4697 3.05671 17.2935 -28.696 -0.0845053 1.8827 0.803391 
5102 1 12.7335 4.31568 10.8736 -6.47763 -0.411704 1.0018 -0.0822551 
3123 1 9.32435 6.50424 16.5236 -6.91238 -2.46402 0.945315 -4.13628 
203 3 10.8397 0.531126 12.3315 -27.5575 1.23669 2.73418 -3.18464 
5103 1 7.21255 3.97946 19.0916 -7.32004 0.524722 1.64175 0.304645 
5203 1 12.9752 4.52603 18.9952 -6.16136 -0.572923 -2.25377 0.763251 
2123 1 7.05183 6.79026 10.6098 -7.18914 -0.662974 -0.312335 0.417416 
5683 1 9.62613 1.7521 10.6704 -7.90945 1.03831 0.871765 2.8995 
3702 1 7.09304 4.02909 11.2408 -7.41603 -0.0254079 1.12991 -1.00106 
4704 1 12.0015 6.74988 18.5361 -7.102 0.578248 3.12856 0.431918 
2782 1 11.9638 2.393 12.96 -7.07324 -1.20651 -1.34987 -1.10186 
4203 1 12.191 1.99804 15.6393 -7.54495 2.0801 0.408307 -0.475268 
2204 1 11.8652 2.19508 18.1107 -7.66071 0.90153 -0.936135 1.78976 
2603 1 12.3739 4.70916 13.5627 -7.79762 -0.62569 1.80029 1.11125 
5223 1 12.4411 4.77828 16.4944 -7.56848 -0.902644 -1.09871 -2.87875 
223 3 11.2377 5.69255 12.091 -29.7948 -0.210935 0.713995 -0.0518904 
224 3 10.697 5.68812 17.4416 -29.1307 2.64946 -0.584683 0.166858 
703 3 11.0463 3.2584 14.5492 -28.5811 -0.378988 -0.708398 1.01239 
1123 3 8.53214 5.46794 14.8189 -28.6701 -0.834377 1.01577 -0.639065 
1603 3 8.14847 2.90532 12.3784 -28.2496 0.353987 0.466074 -1.02481 
1604 3 8.02351 2.98548 17.4215 -29.3231 1.27085 -0.34268 0.100618 
3103 1 10.0164 4.60014 10.7972 -7.64152 -0.938919 -2.01381 -2.38327 
2683 1 9.41754 1.69818 13.6135 -8.55637 0.107286 1.55055 0.00150423 
2223 1 9.58372 3.97369 15.9236 -7.71288 0.421662 1.09542 -1.61121 
3723 1 9.16217 1.50261 16.3841 -6.92928 0.841102 -1.53451 1.31389 
5623 1 9.72769 4.45481 13.3163 -7.73785 -1.07779 -2.24475 0.378575 
5624 1 9.6999 4.12098 18.4682 -8.12061 0.336255 1.45444 0.831773 
4124 1 9.42805 6.92857 18.6842 -6.33746 -0.747022 -0.808577 3.10779 
5622 1 9.85436 6.78773 14.0225 -6.7385 0.270477 1.39818 -0.597742 
3104 1 9.74624 1.49586 19.3292 -7.89127 -1.29642 -1.84796 0.530513 
4643 1 6.4545 12.119 10.5325 -8.30033 0.467341 1.51547 -0.561175 
5643 1 6.81158 9.68144 13.4881 -7.82662 3.09334 -0.663944 -0.494706 
2523 1 3.75731 8.74892 15.7229 -7.26996 -1.48374 -1.81331 -0.23787 
5122 1 4.27975 7.08663 11.095 -6.67404 0.969295 -4.68667 1.19804 
4523 1 1.79229 7.17778 13.3235 -8.36446 -3.70635 -0.718669 1.3361 
2124 1 4.07421 7.98485 19.0574 -6.23185 -1.95822 -2.74604 -1.09249 
3024 1 3.90839 13.029 19.2654 -6.88249 0.554489 1.83071 -1.88815 
4422 1 1.6676 7.27719 10.7919 -7.34735 -1.66547 -1.25955 0.280512 
2024 1 4.04802 10.2995 18.209 -6.52842 -0.102425 2.09232 0.181585 
2164 1 6.69612 11.6932 19.2422 -7.91411 1.37169 1.59143 -1.34307 
5544 1 1.65621 12.0638 19.0089 -7.73205 -5.59761 2.09798 -3.8185 
3023 1 1.58017 9.90863 10.7535 -7.63024 -0.962125 0.32955 -0.025134 
3543 1 1.83541 12.5278 16.2892 -7.52142 -1.41028 -0.722343 1.8615 
3542 1 1.31624 12.6719 11.1599 -6.62643 1.73438 -0.441434 2.71101 
2044 1 5.62944 10.1098 15.6222 -6.19838 -0.184227 1.3036 -0.942384 
3523 1 1.49359 9.85113 16.1877 -8.33894 -2.29089 -0.0877178 -1.13997 
5123 1 4.40849 12.6579 16.521 -7.11036 -0.802948 -2.38465 0.0544299 
4023 1 4.36015 9.1746 12.9319 -7.02788 0.882439 3.00436 0.857599 
5944 1 1.94889 9.84533 13.4716 -8.20476 -2.76864 -0.604312 0.162829 
143 2 5.42918 10.9652 12.1087 -25.177 2.56829 -2.16047 1.25294 
144 3 5.87134 11.1282 17.3034 -30.0124 -1.05473 -1.15029 0.803844 
623 3 5.32933 8.2665 14.4525 -28.8547 3.71567 2.86071 1.63972 
1043 2 3.16378 10.7122 15.1546 -25.2087 2.05468 5.55194 -1.88052 
1523 3 2.79341 8.3335 12.1553 -29.5792 1.9932 0.889789 -3.39664 
1524 3 2.69236 8.32838 17.3041 -29.6291 -0.65812 1.0004 4.18782 
2043 1 2.03132 12.4656 13.7908 -6.62017 -1.15876 0.516404 -1.18875 
5543 1 3.8889 11.9393 11.0585 -8.16887 -0.574546 2.29778 -0.0282294 
2543 1 4.71785 12.096 13.8112 -7.09197 -0.991829 0.467523 -0.0103088 
5924 1 1.4972 9.41452 18.5832 -7.00263 -1.69709 0.465934 2.39725 
3124 1 6.46975 9.22125 18.0965 -6.71224 0.734612 -0.282813 0.745584 
4644 1 6.75877 12.5878 16.1433 -7.30616 2.81519 3.19563 0.971874 
4623 1 6.47747 7.45404 16.0894 -8.26402 0.217529 -0.894914 -0.529215 
4122 1 6.77538 9.47659 10.8263 -7.19106 -0.663646 0.49814 0.453173 
1644 2 8.37921 13.503 17.6094 -23.9782 -0.338013 0.303702 -0.631122 
1724 2 13.5979 8.41974 17.458 -25.3446 0.912014 -0.45549 0.345712 
5743 1 9.97322 12.1147 16.1418 -7.39868 0.303604 1.54471 2.5169 
5644 1 9.52866 9.37835 18.868 -8.09718 0.339455 2.86411 -0.297896 
1143 3 8.00031 10.9652 14.7571 -29.6949 0.810254 1.17341 -0.195388 
244 3 10.7288 10.7627 17.5159 -27.7904 -0.342697 -0.192719 -1.42025 
4143 1 10.0005 9.44995 13.2384 -6.92286 -0.81362 -1.19343 0.624205 
5724 1 12.7565 12.7554 15.9343 -7.6681 -1.33651 0.0777297 -0.367856 
2621 1 9.42096 9.71171 10.8512 -7.23664 0.178316 1.42279 -2.75645 
1623 2 8.32948 8.35659 12.2072 -25.5645 -1.33835 0.197071 0.0113845 
4123 1 12.2083 7.38031 15.8956 -7.64561 -0.317864 -0.226652 0.49515 
5202 1 12.5855 7.44232 13.3046 -7.75111 -0.853534 -0.22523 -0.251969 
2144 1 9.81705 12.1325 18.9781 -9.11895 -0.515947 -0.880366 -1.17978 
4723 1 9.7196 11.8606 13.7286 -6.14984 0.888804 1.4372 -1.1395 
2642 1 7.38406 12.4528 13.4782 -6.56427 -1.57532 -0.574254 -1.23885 
2244 1 12.19 9.64649 18.7726 -8.18272 -0.42873 0.67587 2.42372 
5222 1 12.1921 9.50287 11.1365 -7.16899 0.364844 0.186517 1.73713 
2722 1 11.953 13.0289 13.0312 -6.74378 -1.76677 -2.83834 1.93579 
2723 1 12.3949 10.3291 14.0486 -7.09015 -0.335833 0.496464 -2.3269 
4744 1 12.7139 12.6978 18.7645 -8.50928 -0.478263 -0.540632 0.916104 
3743 1 9.67229 9.17953 15.8886 -7.49065 0.216605 -0.669277 1.41652 
3622 1 9.63206 7.01845 11.172 -7.43223 0.538815 0.390955 -0.181552 
1624 3 8.09038 8.27843 17.2683 -29.4921 1.06407 0.0848255 1.30262 
723 3 11.145 8.73812 14.8336 -29.39 1.13587 -0.860258 -2.30127 
2623 1 12.3752 9.97973 16.4491 -7.4771 -0.178979 0.518274 -0.486342 
2242 1 11.8786 12.3246 10.6794 -6.8801 0.925652 0.301208 -1.67832 
243 3 10.9997 11.1301 12.1648 -30.1973 -0.797004 -0.0714129 -0.166942 
4142 1 9.21323 12.6431 10.88 -6.57271 -0.550273 -1.98055 0.578793 
4043 1 7.96728 10.5465 16.6399 -6.49523 0.362914 0.2679 2.30456 
125 2 5.38808 5.77911 22.6164 -26.0948 1.25201 1.56438 2.20931 
604 2 5.5815 2.93379 20.1448 -25.5535 0.212682 -0.305615 -0.641068 
605 3 5.46947 3.30758 25.3362 -29.1604 -0.945438 -0.844087 1.00923 
1024 3 2.73804 5.38896 20.2186 -28.2491 0.759586 0.809334 -2.07174 
1025 2 2.94015 5.74961 25.6223 -25.4759 0.619985 3.80553 -1.28031 
1505 3 2.66762 3.20726 22.8177 -29.0818 1.70262 -0.379127 -1.43876 
2005 1 1.8793 2.24809 24.1929 -7.26759 -1.51533 -0.310145 1.13993 
2504 1 1.71838 4.82308 21.7831 -7.7925 -1.02759 -1.04018 -0.450403 
2505 1 4.48433 4.36587 26.907 -8.19685 0.188012 1.47663 0.708864 
3005 1 3.78952 4.41044 24.19 -7.56947 -0.00454729 -0.521245 -1.78202 
4004 1 4.27647 4.3292 21.2276 -7.67431 -0.585415 -1.58687 1.15623 
4005 1 4.45227 1.74073 26.7445 -7.36968 -0.511685 -0.119684 0.0602355 
5004 1 1.68077 2.07305 21.2799 -7.36694 -0.377062 -1.98802 0.0694023 
5005 1 0.960086 4.78009 24.3182 -6.8272 -0.753287 -6.05312 1.74478 
5505 1 4.60546 2.00069 24.0765 -6.92849 -0.526942 -2.05728 -0.559793 
4024 1 3.75751 6.72032 21.4458 -7.36132 -0.257471 1.54438 0.892734 
5104 1 6.79063 4.27666 21.8977 -7.81866 0.879034 -1.35583 -0.817699 
3525 1 1.81755 4.43988 26.688 -8.18017 -0.881725 -3.64305 4.11422 
3505 1 1.86386 1.29354 26.7866 -7.74349 -2.14213 2.18524 1.08252 
5184 1 4.21004 1.58527 21.5713 -7.90699 1.03607 -0.717297 -2.2177 
1506 2 3.00767 3.11234 28.1394 -24.6958 -0.139959 -2.63457 -0.64843 
106 3 5.83185 0.501178 28.0423 -28.3483 -2.5995 2.87324 3.1473 
2025 1 1.54525 6.95289 24.269 -6.86762 1.59006 3.73714 0.671451 
4685 1 6.96276 2.14586 26.905 -8.35221 0.820838 -0.700474 -0.19141 
2105 1 6.34339 4.92658 24.5752 -6.98768 2.11609 -2.24026 -0.0206231 
105 3 5.61993 0.505757 22.803 -28.0256 -1.52941 -0.381949 0.682837 
5525 1 4.27898 7.00475 24.3093 -7.31971 -0.921791 1.73727 -0.962443 
505 3 0.454683 3.1256 25.7253 -28.0335 0.67503 -0.907217 -1.06144 
1004 3 2.95776 0.685065 19.7674 -28.6073 0.194319 -0.891595 0.513123 
504 3 0.362663 2.65973 19.4938 -27.3357 -0.0310738 0.477855 3.1497 
3105 1 7.05747 1.5298 21.5177 -8.34329 -0.378248 -0.0747014 1.53078 
3685 1 7.22126 4.80413 27.1267 -8.32988 -1.54783 0.174522 1.18673 
4605 1 7.02314 2.05089 24.4652 -8.37125 2.44988 -0.34699 -2.25749 
5105 1 9.71803 4.63354 26.8847 -8.61199 2.5915 -0.501994 0.285056 
4205 1 12.2719 1.40692 26.7691 -7.67366 -0.737013 2.10819 0.447763 
225 2 11.0231 6.07342 22.6858 -23.6454 -1.92798 0.651731 2.88156 
704 2 10.9687 3.25853 19.9696 -24.2766 1.73096 -0.961888 -0.0692428 
705 2 11.2065 3.21172 25.6128 -24.4748 -0.831813 -1.36446 -0.308628 
1124 3 8.44531 5.53209 20.1433 -28.7933 -5.17365 5.0941 -3.21791 
1125 3 8.36271 5.57422 25.698 -27.9905 -1.49411 4.02609 -1.73369 
1605 2 8.33834 3.1669 22.906 -23.3403 -2.47165 -2.93279 -2.31998 
2604 1 9.53249 4.63755 21.1734 -8.49482 2.14985 -4.21937 3.55833 
2605 1 9.28676 4.17958 24.3534 -8.91813 2.2683 2.35887 1.7087 
3704 1 9.73899 1.73333 22.1212 -7.65237 -1.06685 1.68822 -2.19868 
3705 1 12.4297 1.98036 24.1348 -7.7624 0.665681 -0.465713 -0.978391 
4105 1 9.7696 1.95925 27.018 -8.00522 -2.47401 0.647339 1.95489 
4705 1 12.3931 4.69747 24.1306 -7.99266 -1.68524 -0.396884 1.42057 
5204 1 12.1573 4.87201 21.5142 -8.24606 0.65167 -2.19002 -2.48851 
5205 1 12.7644 4.55179 27.2177 -8.17847 -2.33036 0.233491 -2.37746 
5605 1 9.98631 1.4071 24.6505 -6.70021 -1.50374 1.05335 -0.0253259 
4204 1 12.3169 1.92274 21.3367 -8.744 0.00182799 0.543198 -2.19897 
1606 3 8.16436 3.30913 28.029 -28.2283 1.56162 -0.987318 3.41221 
226 3 10.9525 6.04456 28.0248 -29.2696 0.573318 0.383639 0.651548 
1705 2 13.4303 3.29034 22.5134 -24.4673 2.10982 1.71194 4.12182 
206 3 10.8391 0.545946 28.1714 -28.8469 -0.0396764 1.66592 0.174516 
1205 3 13.2977 0.386621 25.4013 -28.46 0.66454 0.39548 -0.436256 
3624 1 7.1429 6.90871 21.5901 -6.21457 -0.0963489 -0.0892916 1.63049 
3206 1 11.9821 6.87833 26.1004 -7.13522 0.450188 -0.231939 0.73478 
1224 3 13.6228 6.23848 20.2873 -29.1175 0.18664 -2.79915 -1.14703 
1105 3 8.02693 0.728926 25.7789 -27.7765 2.93935 -1.34255 -1.6105 
1204 3 13.5562 0.527763 20.2932 -27.6802 1.17781 0.0538946 -1.87926 
5025 1 1.30041 7.30742 26.7904 -7.09067 -0.206775 -1.25467 1.71583 
4025 1 3.8043 7.22757 27.0667 -7.41098 1.90532 -0.826577 1.21012 
3625 1 6.67259 7.44979 26.9211 -7.41721 0.632322 -1.45066 2.09339 
2125 1 6.82461 7.31368 24.126 -6.2709 2.46624 1.45222 -0.641161 
5145 1 6.86635 12.6716 26.8049 -8.26964 0.882634 0.587727 0.313028 
4045 1 1.56128 12.4373 26.9028 -6.65495 -0.599625 2.0043 -3.37932 
3545 1 1.46803 12.2419 24.0469 -7.84509 -0.162279 3.2418 0.87585 
145 3 5.58197 10.8562 22.7408 -29.0313 1.75936 1.88695 0.416732 
625 2 5.66736 8.62023 25.4432 -25.6758 -0.232385 -1.27585 -0.625254 
1044 2 2.93351 11.0452 20.2038 -24.9188 5.58366 -4.52714 -3.84211 
1045 2 2.88012 11.0804 25.0785 -24.7432 0.383365 2.5824 3.33956 
1525 2 2.97507 8.44851 22.8719 -24.9373 -2.48547 -4.32525 -2.47002 
2045 1 1.94176 12.2047 21.5304 -7.985 -2.54601 5.64228 2.35798 
2524 1 4.53074 9.31641 21.472 -7.67992 0.398145 0.0296025 -1.06851 
2525 1 4.14883 9.96745 26.386 -7.68997 1.14892 -0.960976 1.39228 
3025 1 1.60412 9.63482 24.1795 -8.48454 -2.01871 -0.959358 -0.0539928 
45 3 0.424767 11.1807 22.6116 -28.7956 -0.726829 -1.01426 1.3313 
5024 1 1.60751 9.82932 21.4454 -8.06126 0.67136 -2.18308 -0.218471 
5545 1 4.24759 9.76415 23.8548 -8.18819 1.67464 1.19846 2.07537 
5124 1 4.67856 11.7908 21.2693 -7.09014 1.01777 0.743766 -0.905816 
624 3 5.61841 8.62569 19.8044 -29.6868 1.84622 -0.89959 0.805675 
4445 1 1.73705 9.94221 27.2176 -6.15432 0.730178 -0.0702068 -1.32412 
2145 1 4.04545 12.487 23.5112 -7.48859 0.183377 0.778356 2.68495 
4625 1 6.99176 9.90799 24.0181 -7.55994 0.456916 -1.63518 -1.13261 
146 2 5.32407 11.2553 27.7667 -24.737 0.369566 -0.578216 1.02483 
3524 1 0.983109 7.40148 21.9604 -7.4338 -0.338582 1.04564 -2.10771 
3645 1 4.13617 12.6861 26.4483 -8.22336 0.709526 0.0669768 -0.298379 
3145 1 6.71993 12.3601 24.139 -7.49572 0.224966 3.09402 2.6365 
5125 1 6.81863 10.0893 26.7936 -7.16823 2.55178 -0.451749 -3.23701 
644 3 5.69763 13.4209 20.2581 -29.2066 0.463033 -0.958763 0.296912 
544 2 0.378145 13.5806 20.037 -23.9906 1.53001 -1.4715 3.94022 
2224 1 12.4308 7.65239 20.8907 -7.73702 1.77205 0.18251 1.79571 
4624 1 7.38284 9.45281 20.7983 -7.58939 -1.11366 0.241751 1.72534 
3744 1 12.7921 12.7838 21.5795 -8.08643 -0.719477 -1.17203 -2.22831 
2225 1 9.85708 7.11189 21.245 -7.66759 -0.597331 1.17196 0.921822 
3725 1 12.2998 7.47559 23.5272 -7.26127 0.241373 1.51935 0.270509 
4125 1 9.45753 7.3444 26.6506 -7.52274 -0.919253 0.880911 1.42807 
4144 1 7.27851 12.0186 21.8312 -7.64063 1.59017 -0.837135 -1.79558 
5625 1 9.67655 7.1868 24.228 -8.32269 -0.647804 -0.264222 -3.0032 
5745 1 12.1614 12.8848 24.2812 -8.48584 0.874129 -0.25803 0.0930589 
724 3 11.0207 8.41756 19.9618 -28.4609 -3.30125 -0.399979 -0.293944 
5225 1 11.855 9.30864 27.4704 -6.60198 0.493764 -1.15184 -2.43359 
5224 1 12.3479 10.2065 21.8394 -7.37873 1.52539 -0.0485508 -2.02532 
245 3 11.1963 11.3147 23.0663 -28.6869 -0.402548 -0.198429 -0.539775 
725 3 10.8295 8.58909 25.3071 -28.7912 1.69735 -0.576832 1.73162 
1144 3 8.57547 10.9515 20.4653 -27.8958 -0.256974 0.311271 -0.589472 
1145 2 8.44426 11.5807 25.5747 -24.5501 -1.71861 -2.00392 -0.409916 
1625 3 8.40021 8.51908 22.8558 -28.4867 -1.22032 -1.06545 -0.781002 
2245 1 9.51916 12.9055 24.0809 -8.88465 0.257492 0.230237 2.02029 
2624 1 9.78862 9.70162 21.8221 -7.73928 -0.583577 0.603157 -1.36861 
2625 1 9.69046 10.3302 26.9068 -7.96295 -1.84957 -0.908789 0.0918742 
3125 1 9.63791 10.1451 24.2639 -8.22175 0.78465 -0.481311 0.821481 
3745 1 12.569 11.8445 27.0134 -8.00887 -1.33853 1.95817 1.81368 
4725 1 12.3922 10.012 24.3925 -7.77025 -1.53828 0.4262 1.99265 
5645 1 10.1563 12.4904 21.5969 -7.94516 -1.63622 -1.26732 -0.0415166 
4145 1 9.75176 13.0123 26.7941 -8.32019 -0.438709 1.00259 -1.25056 
1626 3 8.35291 8.70469 28.1469 -28.8805 -0.560263 -1.28388 -0.682912 
1245 3 13.645 11.4424 25.5708 -28.2345 1.10225 -0.259385 -3.38343 
1645 3 8.20041 13.643 22.8655 -28.9322 0.576534 1.12547 -1.90245 
126 3 5.61766 5.81124 28.376 -28.3581 -0.262157 0.0871428 -0.189938 
1006 2 2.64424 0.507094 31.1194 -24.4765 1.85741 -0.218318 -0.843862 
3506 1 1.82366 1.7749 32.7277 -8.21198 -0.00389196 -0.27667 -0.18158 
4587 1 1.02793 1.40457 35.3136 -8.04622 0.610016 0.585503 0.136831 
127 3 5.46432 5.8885 33.4592 -29.235 0.464472 -1.10152 0.797737 
606 3 5.56065 3.03712 30.874 -29.4592 -0.198823 -0.871965 0.420188 
607 2 5.91471 3.06042 36.3897 -24.5206 -3.78271 -1.95282 -0.266558 
1026 3 2.78979 6.13611 30.8509 -28.2883 0.998167 -4.3315 0.419723 
1027 2 3.19504 5.83731 36.1891 -24.6003 -1.00882 -2.00023 1.87244 
1507 3 3.16311 3.13012 33.57 -27.622 -0.472684 1.63542 -0.480306 
2006 1 1.46323 1.94044 29.5133 -8.50908 0.655864 -0.517052 0.5871 
2007 1 4.3479 1.8488 35.1696 -8.79587 -1.19311 0.730431 -0.442577 
2506 1 4.08855 4.59085 32.2143 -7.27111 -0.739687 0.0266043 0.165369 
3006 1 4.09339 4.08591 29.6168 -6.97125 -0.144513 -0.584378 -0.0268065 
3007 1 4.3136 4.68131 34.7484 -7.97964 -0.428518 -1.46934 0.259711 
4006 1 4.36008 1.68455 32.2195 -8.04302 -0.0415427 2.74451 0.291286 
4506 1 1.46851 4.54248 29.4804 -8.20203 -0.62856 1.96946 -0.799629 
4507 1 1.61629 4.43734 35.0804 -7.98122 1.81855 -0.01628 -0.0450595 
5006 1 1.33733 4.42792 32.2431 -7.57912 0.485434 -0.906301 -0.516175 
5506 1 4.41833 1.28854 29.4802 -7.3074 -1.13627 0.790058 0.0303125 
5106 1 6.61814 4.20318 32.604 -7.00703 1.15392 -0.278198 -1.59755 
4606 1 6.46928 4.50426 29.9588 -7.37731 1.77687 1.92516 -1.61845 
5526 1 4.28804 6.62279 29.8466 -7.92549 1.45726 3.11207 -1.31319 
4607 1 6.99686 4.38098 35.033 -6.63681 1.47361 -1.52306 -1.3409 
1007 3 2.68519 0.457536 36.216 -27.8305 2.93837 -3.36113 -1.72562 
107 2 5.56697 0.50681 33.8339 -25.3009 -0.821988 -2.14801 -1.94808 
2127 1 6.7746 6.8862 35.142 -7.29717 -0.104135 2.38891 0.392253 
5507 1 7.02117 1.63816 34.9934 -8.3842 -0.29212 0.438754 -0.347446 
3606 1 7.0141 1.55107 32.0566 -7.77283 -0.64793 2.44074 1.728 
5207 1 12.2828 4.97462 35.0823 -6.86588 -1.53725 -0.446075 2.80216 
3605 1 7.03582 1.97824 29.4251 -7.22081 0.590104 -0.23064 -0.406585 
2208 1 9.46713 1.68969 35.3659 -7.67898 2.32437 0.922604 -2.43679 
2107 1 9.65051 1.58621 32.4622 -7.51906 -0.29145 -0.451657 0.291753 
227 3 10.8661 5.96337 33.4543 -28.8806 1.53953 -0.60251 0.256279 
706 3 10.9472 3.46141 30.8014 -29.9352 -1.15578 -2.89472 -0.244668 
707 3 11.2509 3.23477 36.324 -28.6964 -2.15758 -0.971042 -0.657289 
1126 2 8.1068 5.79163 30.9744 -25.2786 0.389964 -0.831658 -0.0532836 
1127 2 8.40914 5.57076 36.202 -24.9121 -0.882834 1.9625 -1.35704 
1607 2 8.3718 2.85646 33.4773 -24.8611 -2.16618 3.73756 2.03496 
2206 1 12.1947 2.08262 29.2486 -6.81488 2.14952 0.505432 -1.73188 
2606 1 9.44776 4.33329 32.0741 -8.10534 0.687937 0.791699 1.76191 
3106 1 9.06825 4.43085 29.5647 -7.12971 0.457114 0.279832 -1.81577 
3107 1 9.83648 4.23741 34.8482 -7.55099 -1.06837 0.884116 -0.484397 
3706 1 12.3638 2.11637 31.7675 -7.34628 0.59371 2.77731 2.5261 
4106 1 9.88656 1.88697 29.8781 -6.11393 -2.40907 -1.18911 -1.28962 
4706 1 11.7476 4.83301 29.8269 -6.95395 0.67548 0.367438 0.00502873 
5206 1 12.3773 4.68057 32.645 -6.79727 -1.57558 0.0382726 -2.11011 
3207 1 12.0991 2.05217 34.7895 -8.13749 -0.148714 -1.19369 0.382805 
1206 2 13.3283 0.706262 30.6446 -24.3907 1.51604 -1.16672 -1.3142 
1227 3 13.618 5.66061 36.3896 -28.4483 -1.35815 0.183058 1.05355 
207 3 10.4972 0.370867 33.8606 -29.0162 2.38922 -0.347974 -0.577987 
1707 2 13.6489 2.91486 33.5103 -25.594 -0.968792 3.05487 -1.1901 
526 3 0.410768 8.73274 31.1055 -28.8345 -0.766324 -0.208422 -1.80347 
5945 1 2.02763 12.5295 29.1877 -6.97974 -0.650806 0.338813 3.06462 
1526 3 2.69024 8.57442 28.2319 -29.0977 -0.949116 0.00855198 -1.42521 
4627 1 6.87415 9.72547 34.6076 -7.57811 -1.42334 -0.607349 0.478194 
5527 1 4.19673 7.38241 35.1399 -8.26154 -0.461584 1.20366 -0.544453 
3626 1 6.73278 7.02875 32.3087 -7.90136 -0.0982598 -0.544923 1.57437 
4026 1 4.11112 7.51324 32.6027 -7.44675 3.01411 -0.759681 -2.14209 
46 3 0.420231 11.2843 28.3074 -29.8037 0.687685 -1.65645 -1.53568 
3527 1 1.41589 7.4396 34.6277 -8.20277 0.172075 -0.470679 1.23728 
3526 1 1.8189 7.01547 32.125 -7.1301 -2.43811 0.539778 0.641175 
5026 1 1.44761 9.48879 32.7047 -7.82564 0.65819 0.9466 -1.3286 
2046 1 1.68726 12.0959 32.165 -7.87929 -0.220573 1.35455 -0.788065 
2026 1 1.57913 7.40828 29.6167 -8.3407 0.0674665 -0.939857 -0.926476 
147 3 5.63166 11.0507 33.5437 -28.5405 0.539647 1.57248 -1.68776 
626 2 5.63855 8.73491 30.7228 -24.8311 -0.0853608 -1.16659 0.55757 
627 2 5.61275 8.65781 36.2926 -23.8295 1.67449 -1.10063 -0.141324 
1046 3 2.98131 11.254 30.8543 -28.8335 1.53108 1.14024 -1.59504 
1047 2 2.97599 11.5487 36.1743 -24.2701 1.34956 0.687653 1.80466 
1527 3 3.04966 8.55797 33.7281 -28.1599 -1.59301 1.00735 -0.663056 
2526 1 4.41924 10.1263 31.9864 -8.36445 -1.55531 -0.770034 0.363108 
3026 1 4.14005 9.55417 29.2756 -8.15398 0.213652 -0.145006 0.406025 
3027 1 4.39563 9.9537 34.7224 -8.30278 -1.40428 -0.831026 2.16007 
4526 1 1.57925 9.99057 29.7796 -7.66863 1.202 0.671373 2.75306 
4527 1 1.72344 10.3884 35.0552 -8.21753 -1.44188 -3.50426 -0.804421 