ITEM: TIMESTEP
0
ITEM: NUMBER OF ATOMS
18000
ITEM: BOX BOUNDS pp pp pp
-4.4430916664246034e-01 2.7785309166642577e+01
-4.3795996165808226e-01 2.7778959961658067e+01
-5.2750738181451311e+00 3.3336707381814165e+02
ITEM: ATOMS id type x y z c_peratom fx fy fz 
362 2 5.76907 4.75465 0.087073 -23.4353 1.60159 -1.0548 3.72512 
1801 2 5.63191 2.19187 -2.69949 -25.3727 0.199758 0.380395 -1.43287 
3061 2 2.62824 5.12967 -2.61251 -23.9338 2.81238 0.247982 -3.50657 
4502 2 2.76555 2.2593 0.453331 -24.3955 1.32689 -0.439271 -3.26334 
7501 1 4.37598 3.01117 -1.04588 -7.22638 0.453504 0.213652 0.469566 
9001 1 3.86839 3.82344 -4.00593 -7.17582 0.19317 -0.531608 0.672756 
10501 1 1.63318 1.08217 -1.2023 -7.07818 1.26155 -2.33431 0.976865 
12001 1 4.70399 0.291061 -1.70241 -7.46711 2.88104 1.74446 2.28589 
13501 1 1.35947 0.697524 -4.06835 -6.83628 1.18831 0.424837 0.85565 
15001 1 1.72589 3.69616 -1.4966 -7.38902 -3.00133 -1.21031 3.27699 
16501 1 4.35907 0.7877 -4.31185 -6.59696 -1.14623 1.77399 1.72289 
1501 2 -0.102685 2.304 -2.48824 -25.3977 1.56776 -0.00439501 -2.50043 
9002 1 4.26782 3.51478 1.6512 -8.30402 0.110198 0.758804 -0.674762 
62 2 0.155566 5.14342 0.122423 -24.0094 -0.913993 -1.71627 -1.25639 
16502 1 4.7161 0.584073 1.44388 -7.47969 -0.817782 2.89453 -0.469677 
15060 1 1.32818 3.81261 -4.22061 -7.30319 -1.54912 0.656331 3.29681 
13801 1 6.45695 4.01226 -4.05325 -6.65612 1.29674 -1.50918 0.580236 
10561 1 1.72182 6.53261 -1.32644 -8.22081 -2.15649 2.08141 0.513215 
12061 1 4.334 5.88754 -0.738107 -8.43828 -1.79754 2.66074 -2.93406 
4501 2 2.53806 2.32028 -5.25172 -25.5809 1.34384 -1.42491 -0.2979 
13502 1 1.2821 3.32103 1.63272 -7.63825 -1.2354 0.604069 -0.776431 
6062 1 1.82461 5.74337 1.24187 -7.04469 0.327021 1.47172 -0.15343 
6301 1 6.9222 0.747365 -4.26049 -7.31726 3.16094 3.45058 2.1575 
10861 1 7.21942 6.41973 -1.06199 -7.01294 -1.96516 -1.30226 0.0532179 
10801 1 7.49354 1.21464 -1.69263 -7.17022 -2.35983 -1.09706 0.910934 
15301 1 7.02487 3.68909 -1.15181 -7.61132 0.133925 -0.507516 -2.1319 
662 2 11.3358 4.8865 0.064208 -25.4766 -3.46062 -0.471145 0.976648 
2101 2 11.1924 2.14758 -2.70959 -25.1782 -3.87404 -2.00115 0.140606 
3361 2 8.44443 5.04947 -2.74813 -25.6436 -1.01256 -1.03285 1.66529 
4802 2 8.26984 2.35441 0.139755 -24.8778 3.63227 -1.89012 -1.32622 
6601 1 12.7007 0.85334 -3.79937 -8.03278 1.40584 -1.24752 0.09635 
7801 1 9.64102 3.69978 -1.21787 -6.48586 -0.263707 0.485249 -2.15953 
9301 1 9.49025 3.18084 -4.0549 -7.22482 0.790836 1.21522 2.85939 
12301 1 9.85023 0.59021 -0.997103 -7.05113 0.600169 0.335311 0.0742075 
14101 1 12.4545 3.57055 -3.59264 -7.06733 1.33435 2.04485 -1.09865 
15601 1 12.0998 3.0066 -0.967078 -7.32259 2.74604 -0.157364 0.759936 
16801 1 9.92569 0.28537 -3.77995 -6.77967 -0.173767 0.518501 0.615259 
6602 1 12.9126 0.255385 -0.5915 -6.58199 -0.691404 2.15129 -0.775674 
12361 1 9.96738 6.44669 -1.26247 -7.16365 0.506535 -1.17886 0.118128 
9302 1 9.94599 3.50196 1.26058 -7.20883 -1.41597 0.0330623 3.01163 
14102 1 12.5343 3.93748 1.60124 -6.92807 0.926921 -1.24589 0.752199 
10862 1 7.45679 6.24613 1.68773 -7.28893 -1.87594 -0.128777 0.160177 
6361 1 7.24834 6.60098 -3.77744 -6.91495 -1.3489 0.562721 -0.117222 
6661 1 12.7409 6.31256 -3.90594 -8.35619 -0.655195 1.13898 0.512073 
6302 1 7.446 0.0344066 1.07903 -7.16698 -1.17506 3.49428 -0.829798 
16861 1 9.86596 6.12131 -4.12397 -8.25635 0.0246325 1.48056 0.939927 
11161 1 12.7871 5.98007 -0.937532 -7.69245 2.43083 1.1002 -2.2011 
13802 1 7.12193 3.50459 1.66236 -8.62539 -0.419475 -1.20707 -0.129075 
3661 2 14.3667 4.82018 -2.49073 -23.6859 -2.20202 0.862274 -2.04931 
5102 2 13.7729 2.24259 0.367256 -25.5163 0.253267 0.0703579 0.640917 
962 2 16.8581 5.18166 0.0557689 -24.0093 -0.0787951 -0.978662 1.30476 
2401 2 17.0412 1.94608 -2.78335 -24.1291 -0.20643 -0.752888 0.604569 
3961 2 19.7454 5.04461 -2.5972 -24.3372 0.286535 -3.16529 -0.560963 
5402 2 19.3214 2.40648 -0.0698499 -24.8269 -1.1625 -2.22099 3.23039 
6901 1 18.702 0.710346 -3.77761 -7.71911 -0.43916 -1.39341 -0.279798 
8101 1 15.0683 3.88808 -0.543167 -7.95341 -0.56438 0.855636 -2.312 
9601 1 15.2813 3.51733 -4.46321 -7.1269 -0.71348 -0.591768 3.16557 
11401 1 18.3333 0.584033 -1.05319 -7.55208 -0.440871 1.96753 -0.976126 
12601 1 15.5164 0.956168 -1.24299 -7.53967 0.464287 -0.146113 -1.56803 
14401 1 18.1281 3.24667 -4.1271 -7.12069 0.0795336 1.4746 -0.799729 
15901 1 17.6972 3.68685 -1.40434 -8.44302 1.41999 0.102343 -0.194606 
17101 1 15.836 0.924752 -4.37142 -7.71543 -0.80656 -1.69273 1.29992 
8401 1 20.622 2.8682 -1.60271 -7.20817 0.940637 2.51894 -2.53259 
6961 1 18.4129 6.15329 -3.61625 -7.11939 -3.25705 0.682922 -4.10918 
9661 1 15.481 6.10825 -4.27278 -7.68266 0.677761 0.663425 1.97451 
6902 1 17.9025 0.610745 1.66941 -6.90023 -0.170352 -0.903863 1.23047 
9902 1 20.6085 4.10412 0.976135 -7.85367 0.0604423 -1.52615 0.345277 
17102 1 15.0541 1.00235 1.57439 -7.61049 1.23831 -3.53339 1.32017 
14402 1 17.7601 3.20729 1.41712 -6.85608 1.06616 1.85171 -0.524174 
12661 1 15.8592 6.41801 1.73546 -7.98625 -1.1909 -1.18346 -1.94367 
17162 1 18.6252 5.90187 1.41843 -8.09637 -2.60592 4.77823 -2.88399 
12901 1 21.6124 0.473459 -1.47172 -6.50054 1.18187 -0.399132 -1.07361 
9901 1 20.7925 3.93739 -4.24565 -7.42455 1.43359 -0.988626 0.634134 
17401 1 21.384 0.639463 -4.16124 -7.8907 -0.157954 1.52978 0.131559 
1262 2 22.4107 5.00184 0.128234 -24.1553 3.04227 -0.0783952 0.530135 
2701 2 22.6656 1.90474 -2.79699 -24.7087 0.519486 1.2253 1.99768 
4261 2 25.2574 4.96761 -2.63533 -24.7841 -1.51867 -0.682681 -0.934011 
5702 2 25.3736 2.29299 0.251869 -23.5019 -2.57686 -2.11764 -4.27535 
7201 1 26.9237 0.710575 -3.88816 -6.56501 -0.872042 -0.845426 1.76865 
8701 1 27.1169 4.27001 -1.63672 -7.98583 0.230316 0.136543 3.07194 
10201 1 26.7601 3.40539 -3.94749 -6.25924 -0.604047 0.610105 -0.235548 
11701 1 24.0451 0.441434 -4.12737 -8.39233 -0.685295 0.222811 -0.376787 
14701 1 23.8379 3.57614 -3.93367 -7.63377 -0.497311 -1.80229 -1.37272 
16201 1 23.8994 3.61942 -1.30206 -7.63286 0.0488766 0.986415 1.8393 
14702 1 23.7959 3.81596 1.58611 -8.44609 -0.791257 -0.877018 0.507342 
7202 1 24.4258 1.05416 -1.50948 -7.26456 0.80986 -0.39196 0.10883 
7261 1 23.4093 6.20351 -3.5312 -6.94309 2.41201 -1.45877 -1.77023 
8941 1 27.3084 1.11689 -0.901055 -7.73446 -2.21746 -0.673157 0.848377 
12961 1 21.3039 5.8216 -1.48253 -7.89439 0.638485 2.3466 1.092 
17761 1 26.4218 6.24725 -4.1234 -8.41114 0.00106398 1.00641 0.0640243 
1202 2 22.5203 -0.334943 0.472296 -24.926 -3.83278 -3.43127 -2.57064 
17402 1 20.9807 1.16584 0.994845 -6.88654 0.851095 1.92718 1.91853 
13201 1 26.9351 0.491079 1.76828 -8.31411 0.844227 -0.198852 0.361223 
10202 1 26.6414 3.27252 1.37328 -6.86891 2.68624 2.83208 1.84803 
17702 1 24.0824 0.802994 1.23766 -9.05832 0.811792 1.32779 2.78311 
16561 1 3.96898 6.63108 -3.95753 -8.22343 0.171958 -0.579879 1.19089 
6061 1 1.05153 6.8756 -4.07873 -8.26133 -2.44525 -2.66058 1.8637 
422 2 5.43846 10.3748 0.650301 -24.7387 0.843464 2.49259 -2.15354 
1861 2 5.47151 7.85439 -2.54723 -24.7501 2.60826 -0.579239 -2.4088 
3121 2 2.54935 10.9967 -2.45495 -24.9414 3.39514 -1.06172 -2.6498 
4562 2 3.15739 7.47626 0.218325 -24.3763 -2.57696 -0.321651 1.53646 
6121 1 1.38636 12.3948 -4.18485 -7.64099 -0.489622 -1.18493 0.776001 
7561 1 1.40515 9.83035 -1.10731 -7.70942 1.82344 -4.81231 -1.99831 
9061 1 3.84895 9.42266 -3.63508 -6.39482 -0.270872 -0.773493 -2.9185 
10621 1 4.16032 8.87864 -1.31179 -7.21294 -0.329432 -0.0743549 4.41186 
13561 1 1.10412 9.60736 -3.8028 -8.11126 -0.00901827 -0.500728 0.480288 
15061 1 1.49407 12.5591 -1.37997 -7.83192 1.6426 -0.834764 1.97417 
16621 1 4.1916 11.9809 -3.71728 -7.57468 0.892342 1.21821 0.214909 
15121 1 4.03466 11.9199 -0.424367 -7.02959 -0.0190215 1.03468 -2.47696 
1921 2 5.68982 13.2573 -2.40017 -23.2662 0.164657 -0.597988 -0.389071 
4622 2 2.57368 13.4984 0.638061 -24.4825 3.1793 1.17742 -2.74783 
122 2 0.25708 10.6373 0.258 -24.0343 -4.53946 4.03917 6.10337 
1561 2 -0.213808 8.09249 -2.50294 -22.751 3.67112 2.42151 -3.6425 
4561 2 2.42782 8.05911 -5.01641 -24.6866 3.93413 2.47551 -3.06419 
1621 2 0.0310635 13.5514 -2.52025 -25.2233 -2.9593 1.78514 -1.44741 
6122 1 1.66952 11.9132 1.57994 -8.02254 -2.5062 -2.26712 1.3616 
15361 1 4.0055 8.99954 1.47078 -7.60672 -0.390941 0.633219 1.17943 
4921 2 8.42667 13.4051 -5.26731 -25.0903 0.271579 -0.800881 0.454069 
13861 1 6.6536 9.11556 -4.0719 -7.49312 0.282163 0.806663 -0.522399 
15421 1 6.82419 11.7096 -0.822912 -7.73451 0.428354 1.38406 -0.310807 
10921 1 7.14321 9.02461 -1.33358 -7.35274 -1.98375 -0.0600657 1.94322 
6421 1 7.18617 11.9737 -3.66609 -7.64101 -0.861533 1.25932 1.08761 
722 2 11.1485 10.5395 0.392588 -25.2155 0.413578 1.25074 -3.38955 
2161 2 11.1814 7.63167 -2.79138 -24.8311 0.673356 0.862056 2.72873 
3421 2 8.37933 10.4596 -2.37022 -25.2691 0.834359 0.284909 -1.02945 
4862 2 8.41389 7.74462 0.220584 -25.1839 1.17094 -0.735384 -0.0710064 
6721 1 12.2993 12.0908 -4.07412 -7.11934 3.66836 -0.141299 -0.895669 
7861 1 9.76725 9.07003 -0.950563 -6.46343 -0.08564 1.96119 1.42135 
9361 1 9.73005 9.00122 -3.48261 -6.93922 -1.51331 0.0934259 -2.79205 
12421 1 9.73803 11.9557 -1.0569 -8.33813 -0.395317 0.151738 -0.548581 
14161 1 12.7564 9.32422 -4.13237 -7.54532 0.270228 -1.30604 -0.957372 
15661 1 12.4405 8.87733 -1.30589 -6.74639 1.37672 -1.55924 -0.585573 
16921 1 9.86466 11.8557 -4.15439 -6.9933 -1.58221 0.826887 0.812445 
16922 1 12.7526 11.5053 -1.14651 -6.56562 0.826138 0.98246 -2.44446 
2221 2 11.114 13.1547 -2.67407 -24.869 0.429785 1.60481 2.09094 
4922 2 8.45367 13.3839 0.28657 -24.6067 1.36664 -0.744393 2.57685 
11221 1 12.1577 12.7684 0.903411 -6.45111 -1.27132 -2.24949 3.45734 
9362 1 9.76021 9.28729 1.69604 -8.1902 -0.189297 -0.436266 -0.199325 
6722 1 12.7538 9.64305 1.42462 -7.01666 0.126586 -0.284905 1.65889 
17161 1 15.4801 6.70714 -1.58619 -8.37134 -0.31468 -3.58397 1.53221 
11461 1 18.4737 6.67218 -1.14989 -7.83153 -0.749728 -0.942005 1.18582 
3721 2 14.2545 10.5835 -2.80436 -24.2476 -3.50457 -3.18547 2.29295 
5162 2 14.066 7.88023 -0.113362 -25.2936 -0.817288 0.599999 1.48299 
1022 2 16.7894 10.5984 0.0974428 -24.8333 1.04569 -0.125241 1.07125 
2461 2 16.9995 7.65515 -2.82467 -24.9505 0.0681214 1.43591 0.821442 
4021 2 19.7802 10.7467 -2.14862 -23.3655 1.59351 2.02454 -3.61266 
5462 2 19.8162 7.73708 0.31155 -24.1373 0.635483 0.194037 0.461069 
7021 1 18.0904 11.9718 -3.74153 -7.80591 0.481745 -0.566862 -0.347 
8161 1 15.6579 9.17168 -1.27932 -6.9227 -0.230472 0.796947 -2.82251 
11521 1 18.239 12.2541 -1.12465 -7.59619 0.154699 -3.28729 0.785067 
12721 1 15.5436 11.8354 -1.37483 -8.86744 -1.23406 1.4234 0.00685991 
14461 1 18.2035 8.90699 -4.11655 -7.31876 1.47584 1.24948 -1.52726 
15961 1 18.5773 9.44522 -1.22188 -7.81167 -2.41424 -1.99815 2.88235 
17221 1 15.219 11.6968 -4.28944 -8.76356 0.984939 3.12009 -0.4164 
2521 2 16.6951 13.2708 -2.46945 -23.6758 2.90569 2.4933 -0.961494 
5522 2 19.4869 13.4025 0.433003 -25.3309 -0.475351 -0.218775 -3.22065 
8220 1 15.611 9.00729 -4.08851 -7.89392 -1.17332 0.0847866 -0.368357 
5222 2 14.0051 13.4004 -0.112989 -25.7586 -1.31712 1.436 1.16578 
9662 1 15.3509 9.31522 1.09649 -6.70714 -0.515805 -0.322336 3.5204 
17222 1 15.1949 12.2729 1.44167 -7.87288 -0.601593 -1.57095 -0.690977 
7022 1 18.2327 12.2002 1.68758 -7.24468 0.340513 -2.73908 0.00454933 
5161 2 14.0988 7.59188 -5.24597 -24.9412 1.0625 0.852973 -1.72176 
6962 1 21.7259 6.72242 1.33518 -6.67674 -0.651502 -0.713372 -2.24442 
13261 1 27.0612 7.20048 -1.01966 -8.35833 -1.92881 -2.36798 3.93362 
17461 1 20.977 7.18671 -4.00712 -6.31044 -1.32079 -0.10079 -0.3626 
11761 1 24.2366 6.6477 -0.948285 -7.34178 -0.28712 -1.85343 -0.188963 
13021 1 21.1413 12.2651 -1.26141 -8.03593 -1.50301 -2.59672 0.876324 
17521 1 21.5765 12.7182 -4.29656 -7.07489 -0.970607 -0.550979 -0.14315 
9961 1 21.1728 10.1248 -3.98784 -6.99434 -3.54466 -1.28247 3.72249 
8461 1 21.3065 9.09192 -0.853835 -8.50113 -0.313431 0.248418 -1.43 
1322 2 22.7098 10.524 0.303775 -25.0511 0.723401 1.42399 0.179008 
2761 2 22.5052 7.96075 -2.62215 -24.983 -1.56821 -1.03722 2.53193 
4321 2 25.5729 10.6347 -2.53672 -23.6845 -2.40618 1.89932 -0.240922 
5762 2 25.3586 7.79574 0.51066 -23.9142 0.224016 2.59881 -1.02438 
7321 1 24.1136 11.5395 -3.76222 -7.27096 0.286187 1.20324 -2.08778 
8761 1 26.8814 10.0484 -1.09424 -7.68234 1.45021 -4.40044 0.837183 
10261 1 26.6802 9.2506 -4.11774 -9.11319 -1.06785 -0.983563 1.15939 
11821 1 23.9587 12.4161 -1.03533 -7.49198 -1.04356 -2.99334 -1.74682 
13321 1 26.9744 12.5375 -0.922755 -6.26485 0.459405 -0.90446 0.195997 
14761 1 23.5583 8.7885 -4.18964 -7.10842 2.94578 1.59582 -1.22044 
16261 1 24.0724 9.35225 -1.14011 -7.63694 0.201833 0.382501 -1.28959 
17821 1 26.9792 11.9642 -3.81194 -8.19175 -1.13172 0.545499 -0.617725 
14762 1 24.1901 9.55893 1.60364 -7.06349 -1.29774 -4.06407 0.00587285 
2821 2 22.5095 13.5451 -2.25595 -25.3301 0.709755 1.95359 -2.53893 
5822 2 25.2473 13.5323 0.14916 -25.3701 0.264247 -1.27776 -0.279348 
7322 1 24.0949 11.9421 1.65873 -6.36648 0.401024 1.49103 1.44002 
10022 1 21.2166 11.5302 1.57044 -6.82912 -1.17116 1.44568 -1.85953 
5761 2 25.2375 7.85035 -5.2321 -23.8925 0.400036 -0.213926 -2.27789 
481 2 5.48109 16.1911 -5.03105 -24.2045 1.95877 -0.954373 -2.66742 
482 2 5.60893 15.9657 0.792811 -23.396 0.513041 0.71153 0.691081 
1981 2 5.62708 19.0708 -2.68683 -23.5789 -2.4852 0.519263 1.29335 
3181 2 2.39371 16.2875 -2.16855 -25.372 0.706928 0.802598 -1.01753 
4682 2 2.29264 19.0792 0.627894 -24.6646 1.1439 -0.799191 -1.09768 
6181 1 0.96284 17.9204 -4.15315 -7.12971 1.43511 -0.158294 -1.57478 
7621 1 0.957803 15.0581 -0.975833 -7.22146 0.518329 -0.652588 0.0614772 
9121 1 4.12383 14.6159 -3.46295 -7.25641 0.674121 -1.52759 -0.316634 
10681 1 0.298492 17.4604 -1.58786 -6.55294 0.81725 -0.741325 -0.835948 
12181 1 3.04754 18.2099 -1.26846 -6.87672 1.10285 0.363792 0.0825408 
13621 1 1.24517 15.1206 -4.02519 -7.54168 1.88413 -1.17216 3.53478 
16681 1 4.2633 17.1156 -3.66398 -7.37661 -0.830403 3.45435 1.42514 
9122 1 4.09691 15.5629 -0.63958 -7.57003 -0.675966 -1.50845 -0.797845 
1681 2 -0.230006 19.1719 -2.69006 -24.7125 -0.348447 1.12742 0.0627318 
13681 1 1.40235 20.5699 -4.09702 -7.7386 -1.22101 -2.32674 -1.01973 
9181 1 4.04017 20.1132 -4.00433 -8.51038 0.648578 0.871833 0.193468 
10981 1 6.45042 17.7193 -0.595178 -8.23447 0.559904 -0.813196 -1.97628 
15181 1 1.16098 20.2126 -0.879168 -8.12426 -0.360325 2.95664 -2.72921 
10382 1 0.687876 17.7152 0.982427 -6.63702 0.0852086 -0.721624 3.00371 
9182 1 4.10255 20.4541 1.46358 -8.0976 -2.46073 -3.43864 2.84555 
4981 2 8.31183 18.9887 -5.00389 -25.3037 2.3587 -0.74191 -5.16132 
781 2 10.9852 16.2559 -5.21415 -24.9855 -1.42726 2.85826 1.67524 
15481 1 6.9871 20.3553 -1.36658 -7.74269 -0.808447 -1.96384 -1.15466 
12121 1 7.43549 14.7562 -1.00588 -8.52374 -3.03103 0.236082 0.576209 
6481 1 7.13441 17.7717 -3.71013 -8.41367 -3.55068 -0.655104 2.07093 
13921 1 7.17743 14.9775 -3.61826 -8.09028 -2.12567 -1.16003 -1.74008 
782 2 10.9846 16.602 0.589347 -24.6174 0.0546573 -2.90105 1.12787 
2281 2 10.8031 18.9884 -2.05906 -23.8868 3.60838 1.31551 -3.81139 
3481 2 7.91595 16.5393 -2.2317 -22.8649 3.13726 -2.09482 1.35437 
4982 2 8.12988 19.3653 0.241673 -23.9112 -1.16772 0.696336 3.03522 
6781 1 12.3007 17.9036 -3.51786 -7.43685 0.280547 -1.48594 0.0784362 
7921 1 10.1193 14.9296 -0.557533 -6.45119 -2.30737 0.377973 -0.736008 
9421 1 10.0894 14.8388 -3.90948 -7.03255 -0.532423 -3.17184 2.53009 
11281 1 12.3981 17.7789 -0.639393 -7.99189 -1.51814 -1.89943 -2.69774 
12481 1 9.36047 18.0139 -0.894007 -9.47323 -0.58149 -3.79167 0.843009 
14221 1 13.0055 14.8171 -3.77092 -7.10945 -0.773338 -0.0386328 -1.42697 
15721 1 12.6608 14.7039 -1.19653 -5.74061 -0.982464 0.0197329 -2.13774 
16981 1 9.71432 17.5072 -3.90312 -7.23912 -0.585465 0.979933 1.75976 
13981 1 6.80745 20.2502 -4.35123 -7.59326 -2.96546 4.21728 3.92036 
14222 1 12.5924 15.2761 1.43944 -6.37088 -1.81869 0.726978 2.67421 
3781 2 13.6405 16.4714 -2.46582 -25.3481 0.39334 -0.526699 0.610698 
9481 1 9.43816 20.2512 -3.56103 -7.7631 2.0848 -0.722017 0.043157 
15781 1 12.451 20.3003 -0.995548 -7.58488 -1.98458 2.02465 0.552491 
7981 1 9.68091 20.6346 -1.00309 -7.93027 1.30192 -0.128721 2.21634 
14281 1 12.7418 20.3487 -4.32684 -6.99454 -1.4806 3.25128 1.09747 
5221 2 14.2945 13.6709 -5.15991 -23.7195 -1.82595 -0.511587 -1.20637 
5282 2 13.8517 19.058 0.374749 -25.094 0.0111636 1.94691 -0.768488 
1082 2 16.4811 16.3079 -0.113484 -25.4402 0.270354 -0.948634 2.52825 
2581 2 16.5581 19.3717 -2.46248 -23.5442 1.93736 -0.645231 -1.72278 
4081 2 19.2962 16.1102 -2.57559 -24.9069 4.51533 -2.00725 -0.393775 
5582 2 19.0366 19.027 0.218084 -23.9875 -1.11965 3.81054 -3.27265 
7081 1 18.1616 17.373 -4.00354 -6.53726 -0.802667 2.52055 -2.08483 
8221 1 15.1055 15.0872 -1.58047 -7.39773 3.32742 -1.73943 1.94645 
9721 1 15.8454 14.7142 -3.9727 -7.36099 0.0212366 -2.42588 -0.748193 
11581 1 18.4218 17.533 -1.50488 -7.29804 -5.19261 4.18936 5.29758 
12781 1 15.1873 17.884 -1.46399 -8.1534 1.30487 -1.2053 0.860745 
14521 1 18.4794 14.8998 -4.05738 -7.11657 0.687716 -3.3106 -0.909214 
16021 1 18.3203 14.672 -0.995189 -6.88472 -1.33174 2.81467 -3.0769 
17281 1 15.0369 17.2828 -4.26712 -7.47937 -0.989926 1.87805 1.13516 
14522 1 17.3785 14.633 1.32479 -5.64942 3.44214 1.21302 -0.122393 
13081 1 20.0719 17.5814 0.998049 -6.94134 6.32757 -4.732 3.86853 
16081 1 18.0188 20.7152 -0.992517 -8.13155 -1.528 -1.02523 1.12885 
9781 1 15.4143 20.5028 -4.2449 -8.07977 0.653313 -0.101187 1.3629 
9722 1 15.084 15.1359 1.2042 -5.56815 -1.74824 -0.873312 -0.351533 
8281 1 14.9575 20.3872 -1.27998 -7.99725 2.56952 1.76318 -0.0492519 
14581 1 18.3838 20.2693 -3.45342 -6.92932 -0.496978 -0.573465 -1.6835 
7082 1 17.6156 17.7075 1.3286 -6.78534 -0.314462 0.70091 0.0404475 
14582 1 18.1104 20.4435 1.67759 -8.38434 -0.00633254 0.35583 1.67568 
17282 1 15.1196 17.782 1.50971 -6.58379 -1.25864 0.651411 -1.57768 
17582 1 20.4814 14.5832 1.74538 -7.22831 1.58738 2.40035 3.15499 
9782 1 15.3062 20.5435 1.41019 -7.22129 -0.656329 -2.93387 0.862548 
1381 2 22.5916 15.9124 -5.18365 -23.7726 2.57452 3.62436 -3.93553 
5881 2 25.3933 19.4229 -5.0738 -24.1411 -0.260939 -2.16077 -4.40345 
17581 1 20.9236 17.6933 -2.55295 -6.38063 -1.61658 -1.86301 -0.0228849 
8521 1 21.1346 14.9229 -0.877697 -7.15571 -0.884966 -0.108942 -1.46961 
182 2 27.4291 16.4592 -0.000714389 -25.3778 -0.665074 -0.293184 -0.230932 
10021 1 21.4763 15.1155 -3.76273 -6.97505 -5.18864 -0.519086 2.96327 
1382 2 22.4496 16.1894 0.191146 -24.1522 -1.78826 -3.28972 0.734197 
2881 2 22.369 19.1318 -2.39681 -24.8506 1.93745 1.58098 0.733732 
4381 2 25.1457 16.0911 -2.90533 -25.1368 1.70486 1.51003 0.969485 
5882 2 24.7973 19.2672 0.199853 -24.1977 5.93974 -0.839584 0.346179 
7381 1 23.4042 17.4172 -3.56665 -7.30646 0.837932 -0.542718 0.162753 
8821 1 26.376 14.8396 -1.46886 -6.96866 1.65372 1.91945 0.111427 
10321 1 26.7516 14.9572 -4.23754 -7.44288 -0.336442 -0.143499 0.115981 
11881 1 23.0531 18.1204 -0.161699 -7.88101 -1.29766 2.66228 -2.54895 
13381 1 25.7406 17.7074 -1.1511 -6.86828 -0.366822 -0.406171 -0.0958486 
14821 1 23.9682 14.5216 -3.96973 -8.10511 1.55791 -0.786226 -1.19983 
16321 1 23.931 15.1924 -1.20953 -7.54547 -1.76632 0.470616 0.0369013 
17881 1 26.4347 17.9855 -3.72535 -7.46172 -0.791015 -0.992409 -1.59162 
14822 1 23.4758 14.3937 1.37634 -7.4539 -0.0829396 2.09669 1.14263 
10381 1 26.8802 20.7019 -4.14365 -7.74771 0.413212 -2.71451 2.84292 
14881 1 24.0634 20.1693 -3.74196 -7.40022 -2.02354 1.26454 2.28092 
8581 1 20.8048 20.2138 -0.79655 -7.821 0.296474 1.48224 -0.130924 
10081 1 21.0379 20.3552 -3.64543 -7.52695 0.499533 0.513761 -1.75378 
16381 1 23.632 20.6913 -0.920136 -8.49032 -0.885499 1.73836 -1.01563 
17882 1 25.9729 17.675 1.49299 -7.33197 -0.455095 -0.947751 0.717823 
10322 1 26.187 14.7604 1.53934 -8.05213 2.56966 1.97357 0.257946 
13442 1 27.1641 20.1812 1.18102 -6.18625 -4.10396 -1.29772 3.4036 
3001 2 3.09469 27.5766 -2.63659 -24.6457 -3.61055 1.82018 -1.59651 
541 2 5.45843 22.0932 -4.90652 -23.4633 -1.30644 -0.949465 -2.89701 
6001 1 1.64904 25.9568 -3.52252 -7.53494 -0.0376878 1.45751 0.0722726 
302 2 5.67097 27.4062 0.175676 -24.4851 -1.24045 -2.94332 -0.106806 
2 2 -0.105081 27.4813 0.179912 -23.6823 -0.891044 -0.318067 -0.206028 
7681 1 4.38086 20.9161 -1.33042 -7.75317 -0.572645 -0.797289 -1.60807 
542 2 5.26873 21.7587 0.431887 -23.9953 2.62703 3.10756 0.0368823 
2041 2 5.31323 24.6507 -2.32903 -23.7406 -1.23543 1.25362 -0.956982 
3241 2 2.61343 21.3243 -2.5837 -23.939 0.445822 3.20708 1.43262 
4742 2 2.66837 24.8578 0.252921 -26.2157 1.10359 -1.82865 1.03778 
7741 1 3.98126 26.1579 -1.14525 -7.69413 -0.441383 -0.180977 0.823071 
10741 1 2.18108 23.3344 -1.56189 -6.36875 -1.777 -1.28952 1.18056 
12241 1 4.62348 23.7051 -0.473398 -7.3086 2.1379 -0.591015 0.32797 
15241 1 0.928909 25.6649 -0.819383 -7.57847 -0.455332 2.92165 -0.0135652 
9241 1 3.94403 23.548 -3.66598 -7.82044 2.18741 -1.87864 -1.53612 
14041 1 4.21312 26.3457 -3.86984 -6.8579 2.72704 -2.51743 -1.78207 
13742 1 1.24256 26.4206 1.59025 -7.42977 -0.229831 1.84218 2.32366 
1741 2 0.17362 24.7598 -2.56703 -24.7506 -1.28679 -2.90485 -1.23349 
242 2 -0.348897 21.799 0.165309 -24.2704 1.91225 1.33708 0.044921 
6241 1 1.02706 23.0626 -4.06271 -6.55846 -0.449823 2.08216 0.584964 
16742 1 1.24587 23.8057 1.55294 -6.29963 -3.29328 -1.20069 0.605803 
9242 1 4.12 26.1367 1.66703 -7.51844 -1.58367 -0.552236 1.08023 
602 2 10.8844 27.4941 0.304752 -25.6096 1.95235 -1.07875 2.45 
3301 2 8.079 27.3777 -2.30419 -24.3788 3.36209 1.37685 -1.76225 
601 2 11.057 27.088 -4.96196 -24.3846 -2.81519 0.409669 0.302937 
5041 2 8.13186 24.8703 -5.09891 -23.0125 3.43193 -2.5483 -1.66889 
16741 1 7.08063 26.2485 -4.04936 -8.14749 -3.14855 1.61281 1.20446 
15541 1 6.86403 25.8291 -1.20716 -9.07089 0.550927 0.359522 0.282134 
11101 1 12.7925 26.0689 -1.13321 -6.54456 -2.5942 -2.52323 0.302706 
6541 1 7.66528 22.6384 -0.808791 -7.54945 -2.05538 4.06787 3.03755 
17041 1 7.00432 23.3382 -3.75982 -9.12053 -1.02486 -0.470408 1.02582 
842 2 11.3066 21.7813 0.53404 -23.8724 -1.17355 0.279448 -1.29227 
2341 2 11.1347 24.597 -2.34721 -25.2852 3.18488 1.43091 -0.675045 
3541 2 8.45651 21.8055 -2.54063 -23.9641 -0.155309 0.717815 0.0984811 
5042 2 8.28569 24.479 0.364154 -24.7032 1.33177 1.67461 1.32423 
6841 1 12.5793 23.3182 -4.024 -7.092 -0.578441 -1.08564 0.0728885 
8041 1 9.8896 25.8204 -0.821528 -7.11415 -1.26468 1.57436 -0.890606 
9541 1 9.60744 25.783 -3.49169 -7.61115 0.573963 0.728885 -0.726305 
11341 1 13.19 23.4405 -1.22793 -7.40367 0.607418 -2.37787 -0.429845 
12541 1 10.4493 23.3584 -0.846716 -6.99485 -1.62803 -3.01079 2.48572 
14341 1 12.6842 26.0928 -3.783 -8.54599 -1.04082 0.642858 -0.0598786 
12600 1 9.93175 23.2024 -3.6286 -8.11125 -1.49412 -1.66544 -1.71021 
9542 1 9.23173 26.0719 1.65596 -6.00332 2.16267 -0.183244 0.50159 
14042 1 6.65814 25.8617 1.63882 -6.68483 -0.408097 -1.69043 -0.463155 
15841 1 12.5331 26.4247 1.68927 -6.93773 -1.14525 -2.79452 -0.0428084 
902 2 16.6453 27.6812 0.197712 -24.9802 1.45195 1.06532 -0.320545 
5641 2 19.4408 24.5832 -5.14332 -24.8797 3.84803 -0.847053 -2.45439 
3601 2 13.9159 27.3576 -2.39143 -24.2889 1.10205 1.91479 0.61164 
5342 2 14.2275 24.7162 0.166701 -24.291 -1.78891 -0.0241569 1.19075 
3901 2 19.8573 27.5483 -2.38331 -25.4701 -0.249457 0.676761 0.422682 
7141 1 17.9371 23.119 -4.20323 -7.21729 -0.130434 0.269439 -1.21916 
3841 2 14.1114 21.7693 -2.71581 -24.0235 -2.28175 1.74556 -1.74021 
1142 2 16.6058 21.8415 0.47078 -23.8316 1.3747 0.812607 -0.315968 
2641 2 16.9247 24.8782 -2.60831 -24.7516 -2.43812 -3.87377 -1.47649 
4141 2 19.6296 21.8544 -2.30668 -25.0463 0.452286 -1.92499 -1.98058 
5642 2 19.2783 24.6942 0.219501 -23.9471 1.85277 -0.00601395 -1.312 
8341 1 15.3446 26.2631 -0.910398 -8.20003 1.47777 -0.0471481 -1.16676 
9841 1 15.554 26.1856 -3.87163 -7.51272 -2.42864 1.39168 0.587294 
11641 1 18.5037 23.4345 -1.43438 -7.3441 1.45616 1.37305 0.912091 
12841 1 15.2265 23.3943 -4.25592 -7.47275 -0.748931 0.797831 2.88401 
14641 1 18.0124 25.8338 -4.29691 -7.40571 0.58456 1.7835 1.61941 
16141 1 18.0966 26.178 -1.5821 -7.01012 1.3477 1.46583 1.10006 
7142 1 16.1285 23.3014 -1.02116 -7.67406 -3.88489 1.16653 0.0174872 
14642 1 18.0663 26.1319 1.12255 -7.3632 -0.239356 0.72333 2.26893 
8641 1 20.5455 26.5553 -0.585693 -6.64597 1.32706 -2.97049 1.76322 
8881 1 26.4223 20.7919 -1.18592 -7.47747 -0.859276 -0.388007 -2.26638 
7442 1 23.673 23.0976 1.5585 -7.99996 -0.150582 -0.0432764 -2.17925 
10141 1 21.0786 25.9619 -3.53263 -7.94512 -0.299237 0.325418 0.286596 
4201 2 25.3274 27.4554 -2.62055 -24.7596 -0.56886 -0.163401 -1.05276 
17641 1 20.7309 23.0757 -3.95888 -7.59059 -0.180033 0.643147 0.156971 
13141 1 20.9364 23.5133 1.77934 -7.9991 -1.22488 0.110164 -1.75916 
13741 1 27.0732 26.0129 -4.01988 -7.1451 -0.83174 -0.236214 2.41987 
11941 1 21.2475 23.5237 -1.07478 -8.00119 0.359446 -1.1495 0.593791 
12000 1 23.4811 22.8099 -3.81196 -7.40451 -0.212984 0.965098 0.590736 
1442 2 22.2915 21.5755 0.626956 -22.7301 -0.2935 1.85595 -1.34821 
2941 2 22.5466 24.6781 -2.42286 -24.2475 0.106695 0.813248 -1.87989 
4441 2 25.2679 22.2374 -2.64392 -24.3727 1.43316 -1.80335 -1.33982 
5942 2 25.2992 24.5899 0.149751 -24.1387 2.50262 3.4431 4.9571 
7441 1 24.5341 24.1068 -1.6114 -8.03226 -2.52147 -3.61673 -3.22217 
10441 1 26.3653 26.2378 -1.16453 -7.60221 2.40286 0.981194 0.80747 
13441 1 27.1501 23.3589 -1.27018 -7.92068 0.0977463 0.0315237 -1.2393 
14941 1 24.0237 25.6919 -4.11447 -7.18634 -0.651609 0.876613 1.09484 
16441 1 23.6978 26.5066 -0.967744 -6.89857 -1.34641 0.0125474 -0.858723 
17941 1 26.3626 22.9738 -4.68638 -6.91462 -2.04552 2.90012 0.164953 
6242 1 26.4686 23.1574 1.38362 -7.72411 0.0113922 -1.23284 0.345072 
10442 1 26.5259 26.0272 1.73361 -8.10713 0.775552 0.0072121 -0.78644 
14942 1 23.8322 26.0807 1.72966 -8.16573 0.797741 1.45547 -1.15111 
16562 1 3.88772 6.57474 2.30326 -6.58596 2.25464 -1.50198 -1.08214 
1503 2 -0.393497 2.4022 8.37701 -24.6013 0.882165 -0.0687605 1.62663 
6002 1 2.04502 1.02703 2.11405 -7.90233 -0.219143 -2.3838 0.880773 
363 2 5.65075 4.9429 6.13192 -25.4119 0.835709 -0.150154 -0.45801 
1802 2 5.66721 2.09946 2.89904 -24.6367 1.24107 0.338552 1.48176 
3062 2 2.66045 4.55887 2.94256 -24.7348 1.43432 1.72317 1.70367 
4503 2 2.47856 1.93069 5.75631 -24.0197 0.724602 1.20604 0.710785 
6003 1 1.23145 0.329206 7.24693 -7.25972 -0.605162 0.875539 0.55767 
7502 1 4.12772 2.72861 4.1747 -7.21543 -4.06209 -0.0533542 1.84916 
9003 1 4.19446 3.50608 7.12727 -7.66316 -0.290196 -1.5476 -1.08415 
10502 1 1.63715 0.149791 4.74141 -8.43225 -0.600874 0.843546 -1.59174 
12002 1 4.07153 0.544264 6.89815 -8.96243 -0.364444 1.42547 -2.07253 
13503 1 1.38068 2.98793 7.28588 -6.8595 -0.245685 -0.160636 0.442179 
15002 1 1.26781 3.26886 4.35808 -7.88297 1.88501 0.824211 0.445585 
7742 1 5.0964 -0.0208506 3.93948 -7.38342 0.587051 1.11503 0.700789 
1502 2 0.175921 1.80303 3.09742 -24.3457 -0.0201677 3.09611 -2.68501 
63 2 -0.0840876 5.56651 5.70341 -23.8082 -0.600575 -2.68674 3.41112 
16563 1 4.42053 5.93426 7.88884 -7.64813 1.98237 1.99381 -0.909427 
12062 1 3.95158 6.00564 4.91646 -6.71984 1.3754 -1.62103 0.587407 
6063 1 1.85457 5.56693 7.01593 -6.71974 -1.62226 1.77208 -2.22839 
1803 2 5.05762 1.88537 8.19966 -23.0121 4.26676 2.18612 3.65251 
15302 1 6.76097 6.40992 4.83074 -7.06073 0.711667 0.261025 -0.686501 
14342 1 12.3462 0.667657 2.11725 -7.19773 0.533904 1.58109 -1.31077 
6303 1 7.20136 0.532669 7.26882 -8.22662 -0.741764 0.562228 0.433203 
10802 1 7.24741 1.163 4.52073 -7.1255 -0.607844 -1.20434 -0.114018 
9303 1 7.12202 3.63725 7.67658 -7.10532 -1.00923 -1.50949 -2.01567 
13803 1 6.6369 3.54482 4.50312 -6.06532 0.302412 2.37478 0.895908 
16802 1 9.60073 0.816279 2.15179 -7.095 -0.165361 0.0860315 -0.0156891 
663 2 11.3721 5.25057 6.11715 -24.6771 2.84744 -2.36797 -1.65908 
2102 2 11.0844 1.98157 3.17477 -25.0063 -0.0722117 2.83428 2.33564 
3362 2 8.74816 4.85384 2.87936 -24.6368 -0.523911 -1.30869 1.2931 
4803 2 8.53281 2.19486 6.19502 -25.5913 -0.108425 -0.718104 -0.566384 
6603 1 9.60234 3.15726 4.42577 -7.16014 -0.67858 -0.237603 -0.882748 
7802 1 12.2048 4.09602 4.33295 -6.88099 0.751186 0.542334 -1.00649 
11102 1 9.61157 0.360298 5.27522 -6.41144 -1.08528 0.824062 -2.50506 
14103 1 9.81667 3.17819 7.73903 -7.37879 0.34966 1.16453 0.446847 
15602 1 12.9575 3.8319 6.82006 -6.80015 -0.0435842 -0.636555 -0.828593 
16803 1 10.1118 0.591711 7.68463 -7.43158 -0.40157 -2.79602 1.61311 
11103 1 13.0008 1.07699 7.90058 -7.44476 -0.496549 -1.0996 0.873068 
12602 1 12.4517 1.18179 4.82607 -6.86761 0.869878 -0.171765 0.289567 
16863 1 10.3351 6.00575 7.69987 -7.23803 -2.95805 -0.486335 3.9085 
6663 1 12.8541 6.60089 7.11656 -7.12161 2.55771 -0.917362 1.83855 
3302 2 7.96289 -0.404847 3.24956 -25.0161 2.74876 -3.15975 -1.78829 
6363 1 7.38186 6.2796 7.56822 -7.20484 -0.131216 1.7773 0.264377 
16862 1 10.033 6.37389 1.92873 -7.62147 1.06793 0.545397 -0.258882 
12362 1 9.84964 5.80466 4.816 -7.84251 -2.43872 3.65284 -1.8138 
6662 1 15.0632 3.51081 2.20488 -6.54218 -0.0143703 0.922549 2.53414 
5103 2 14.3461 1.86225 6.07526 -24.788 -3.56102 -1.75259 1.66389 
9602 1 15.7948 3.08921 5.17478 -7.48761 -0.972882 -0.172971 -5.33286 
3662 2 13.7989 5.10318 3.2444 -24.2338 0.141967 0.66901 -2.38917 
963 2 16.8191 4.72122 6.024 -24.2574 2.20862 2.00062 -1.36877 
2402 2 16.6127 2.1313 3.26621 -25.8985 0.360402 -0.333433 -2.91134 
3962 2 19.4418 4.79192 2.84671 -24.6217 2.37243 -1.92637 3.74558 
5403 2 19.6901 2.14246 5.49688 -25.3065 -2.56539 0.456201 2.15962 
6903 1 18.2808 0.44401 7.17341 -6.22817 -0.832927 1.51096 0.394347 
8102 1 18.2371 3.44586 4.16152 -7.07961 0.403093 0.289335 -0.727795 
9603 1 15.5171 3.44401 7.39764 -7.90669 0.464356 -0.947417 4.69485 
11402 1 15.5325 0.348334 4.49412 -7.63428 -3.83509 0.219001 -1.13327 
14403 1 18.6821 3.86963 6.68844 -7.31163 0.814479 -0.576902 2.64949 