LAMMPS (22 Dec 2022)
  using 1 OpenMP thread(s) per MPI task
Loaded 1 plugins from C:\Program Files\LAMMPS 64-bit 23Jun2022\plugins
Loaded 0 plugins from C:\Program Files\LAMMPS 64-bit 23Jun2022-MPI\plugins
Loaded 1 plugins from C:\Program Files\LAMMPS 64-bit 22Dec2022-MSMPI\plugins
Loaded 1 plugins from C:\Program Files\LAMMPS 64-bit 28Mar2023-MPI\plugins
# Compute elastic constant tensor for a crystal
#
# Written by Aidan Thompson (Sandia, athomps@sandia.gov)
#
#  This script uses the following three include files.
#
#   init.mod      (must be modified for different crystal structures)
# 	       	  Define units, deformation parameters and initial
#		  configuration of the atoms and simulation cell.
#
#
#   potential.mod    (must be modified for different pair styles)
# 		     Define pair style and other attributes
#		     not stored in restart file
#
#
#   displace.mod    (displace.mod should not need to be modified)
# 		    Perform positive and negative box displacements
# 		    in direction ${dir} and size ${up}.
# 		    It uses the resultant changes
#		    in stress to compute one
# 		    row of the elastic stiffness tensor
#
#		    Inputs variables:
#		    	   dir = the Voigt deformation component
#		    		    (1,2,3,4,5,6)
#		    Global constants:
#       	    	   up = the deformation magnitude (strain units)
#       		   cfac = conversion from LAMMPS pressure units to
#               	   output units for elastic constants
#
#
#  To run this on a different system, it should only be necessary to
#  modify the files init.mod and potential.mod. In order to calculate
#  the elastic constants correctly, care must be taken to specify
#  the correct units in init.mod (units, cfac and cunits). It is also
#  important to verify that the minimization of energy w.r.t atom
#  positions in the deformed cell is fully converged.
#  One indication of this is that the elastic constants are insensitive
#  to the choice of the variable ${up} in init.mod. Another is to check
#  the final max and two-norm forces reported in the log file. If you know
#  that minimization is not required, you can set maxiter = 0.0 in
#  init.mod.
#

include init.mod
# NOTE: This script can be modified for different atomic structures,
# units, etc. See in.elastic for more info.
#

# Define the finite deformation size. Try several values of this
# variable to verify that results do not depend on it.
variable up equal 1.0e-6

# Define the amount of random jiggle for atoms
# This prevents atoms from staying on saddle points
variable atomjiggle equal 1.0e-5

# Uncomment one of these blocks, depending on what units
# you are using in LAMMPS and for output

# metal units, elastic constants in eV/A^3
#units		metal
#variable cfac equal 6.2414e-7
#variable cunits string eV/A^3

# metal units, elastic constants in GPa
units		metal
variable cfac equal 1.0e-4
variable cunits string GPa

# real units, elastic constants in GPa
#units		real
#variable cfac equal 1.01325e-4
#variable cunits string GPa

# Define minimization parameters
variable etol equal 0.0
variable ftol equal 1.0e-10
variable maxiter equal 100
variable maxeval equal 1000
variable dmax equal 1.0e-2

# generate the box and atom positions using a diamond lattice

dimension    3
boundary     p p p
read_data    data.in
Reading data file ...
  orthogonal box = (0 0 0) to (4.08 4.08 4.08)
  1 by 2 by 2 MPI processor grid
  reading atoms ...
  8 atoms
  read_data CPU = 0.001 seconds
#replicate    2 3 4
replicate    2 3 4
Replication is creating a 2x3x4 = 24 times larger system...
  orthogonal box = (0 0 0) to (8.16 12.24 16.32)
  1 by 2 by 2 MPI processor grid
  192 atoms
  replicate CPU = 0.000 seconds
change_box   all triclinic
Changing box ...
  triclinic box = (0 0 0) to (8.16 12.24 16.32) with tilt (0 0 0)

# Need to set mass to something, just to satisfy LAMMPS
mass 1 1.0e-20

include potential.mod
# NOTE: This script can be modified for different pair styles
# See in.elastic for more info.

# Choose potential
#-----------------------
#pair_style	sw
#pair_coeff * * Si.sw Si
#-----------------------
#pair_style morse	2.83994742	# D0[eV] a[1/A] r0[A] rc[A], 1NN for BCC
#pair_coeff 1 1	2.1173	1.0202	2.4595	2.6497	#	Fe-Fe
#-----------------------
#pair_style smatb # R0(A)   p       q     A(eV)   xi(eV)  Rcs(A)   Rc(A), 4NN: Rcs=4NN, Rc=(4NN+5NN)/2
#pair_coeff 1 1	2.4802	7.0149	2.3779	0.3144	3.0551	4.033	4.176	#	Co	Co
#-----------------------
#pair_style eam/alloy
#pair_coeff * * AlCrFeCoNi_Zhou04.eam.alloy Fe
#-----------------------
pair_style meam
#pair_coeff * * ./../../library.meam Ni Ti C ./../../NiTiC.meam Ni Ti
#pair_coeff * * ./../../library.meam Ni Ti C ./../../NiTiC.meam Ti C
pair_coeff * * ./../../library.meam Ni Ti C ./../../NiTiC.meam Ni C
#-----------------------

# Setup neighbor style
neighbor 1.0 nsq
neigh_modify once no every 1 delay 0 check yes

# Setup minimization style
min_style	     cg
min_modify	     dmax ${dmax} line quadratic
min_modify	     dmax 0.01 line quadratic

# Setup output
thermo		1
thermo_style custom step temp pe press pxx pyy pzz pxy pxz pyz lx ly lz vol
thermo_modify norm no

# Compute initial state
fix 3 all box/relax  aniso 0.0
minimize ${etol} ${ftol} ${maxiter} ${maxeval}
minimize 0 ${ftol} ${maxiter} ${maxeval}
minimize 0 1e-10 ${maxiter} ${maxeval}
minimize 0 1e-10 100 ${maxeval}
minimize 0 1e-10 100 1000
Neighbor list info ...
  update: every = 1 steps, delay = 0 steps, check = yes
  max neighbors/atom: 2000, page size: 100000
  master list distance cutoff = 5.8
  ghost atom cutoff = 5.8
  2 neighbor lists, perpetual/occasional/extra = 2 0 0
  (1) pair meam, perpetual
      attributes: full, newton on
      pair build: full/nsq
      stencil: none
      bin: none
  (2) pair meam, perpetual, half/full from (1)
      attributes: half, newton on
      pair build: halffull/newton
      stencil: none
      bin: none
Per MPI rank memory allocation (min/avg/max) = 9.908 | 9.908 | 9.908 Mbytes
   Step          Temp          PotEng         Press           Pxx            Pyy            Pzz            Pxy            Pxz            Pyz             Lx             Ly             Lz           Volume    
         0   0             -948.48         0.0096097981   0.0096097982   0.009609798    0.009609798   -1.2783931e-18  7.8053109e-20  5.7238947e-19  8.16           12.24          16.32          1630.0155    
         1   0             -948.48        -4.6191499e-07 -4.620608e-07  -4.6178387e-07 -4.6190029e-07  4.1386575e-24 -2.620191e-23   7.3841747e-23  8.16           12.24          16.32          1630.0155    
         2   0             -948.48        -4.1473614e-10 -2.141579e-10  -7.9830584e-10 -2.3174467e-10  9.0257583e-25 -8.6843453e-25  7.6918487e-25  8.16           12.24          16.32          1630.0155    
Loop time of 0.001421 on 4 procs for 2 steps with 192 atoms

0.0% CPU use with 4 MPI tasks x 1 OpenMP threads

Minimization stats:
  Stopping criterion = force tolerance
  Energy initial, next-to-last, final = 
     -948.480000030771  -948.480000030767  -948.480000030764
  Force two-norm initial, final = 1.6933872e-05 1.156941e-12
  Force max component initial, final = 9.7767754e-06 8.1217699e-13
  Final line search alpha, max atom move = 1 8.1217699e-13
  Iterations, force evaluations = 2 4

MPI task timing breakdown:
Section |  min time  |  avg time  |  max time  |%varavg| %total
---------------------------------------------------------------
Pair    | 0.001136   | 0.0011375  | 0.00114    |   0.0 | 80.05
Neigh   | 0          | 0          | 0          |   0.0 |  0.00
Comm    | 9.3e-05    | 9.65e-05   | 0.000101   |   0.0 |  6.79
Output  | 1.5e-05    | 1.7e-05    | 2e-05      |   0.0 |  1.20
Modify  | 0          | 0          | 0          |   0.0 |  0.00
Other   |            | 0.00017    |            |       | 11.96

Nlocal:             48 ave          48 max          48 min
Histogram: 4 0 0 0 0 0 0 0 0 0
Nghost:            600 ave         600 max         600 min
Histogram: 4 0 0 0 0 0 0 0 0 0
Neighs:           2208 ave        2208 max        2208 min
Histogram: 4 0 0 0 0 0 0 0 0 0
FullNghs:         4416 ave        4416 max        4416 min
Histogram: 4 0 0 0 0 0 0 0 0 0

Total # of neighbors = 17664
Ave neighs/atom = 92
Neighbor list builds = 0
Dangerous builds = 0

variable tmp equal pxx
variable pxx0 equal ${tmp}
variable pxx0 equal -2.14157897544466e-10
variable tmp equal pyy
variable pyy0 equal ${tmp}
variable pyy0 equal -7.98305842613791e-10
variable tmp equal pzz
variable pzz0 equal ${tmp}
variable pzz0 equal -2.3174466875654e-10
variable tmp equal pyz
variable pyz0 equal ${tmp}
variable pyz0 equal 7.69184865607754e-25
variable tmp equal pxz
variable pxz0 equal ${tmp}
variable pxz0 equal -8.68434525686174e-25
variable tmp equal pxy
variable pxy0 equal ${tmp}
variable pxy0 equal 9.02575827212173e-25

variable tmp equal lx
variable lx0 equal ${tmp}
variable lx0 equal 8.16000001042431
variable tmp equal ly
variable ly0 equal ${tmp}
variable ly0 equal 12.2400000156365
variable tmp equal lz
variable lz0 equal ${tmp}
variable lz0 equal 16.3200000208486

# These formulas define the derivatives w.r.t. strain components
# Constants uses $, variables use v_
variable d1 equal -(v_pxx1-${pxx0})/(v_delta/v_len0)*${cfac}
variable d1 equal -(v_pxx1--2.14157897544466e-10)/(v_delta/v_len0)*${cfac}
variable d1 equal -(v_pxx1--2.14157897544466e-10)/(v_delta/v_len0)*0.0001
variable d2 equal -(v_pyy1-${pyy0})/(v_delta/v_len0)*${cfac}
variable d2 equal -(v_pyy1--7.98305842613791e-10)/(v_delta/v_len0)*${cfac}
variable d2 equal -(v_pyy1--7.98305842613791e-10)/(v_delta/v_len0)*0.0001
variable d3 equal -(v_pzz1-${pzz0})/(v_delta/v_len0)*${cfac}
variable d3 equal -(v_pzz1--2.3174466875654e-10)/(v_delta/v_len0)*${cfac}
variable d3 equal -(v_pzz1--2.3174466875654e-10)/(v_delta/v_len0)*0.0001
variable d4 equal -(v_pyz1-${pyz0})/(v_delta/v_len0)*${cfac}
variable d4 equal -(v_pyz1-7.69184865607754e-25)/(v_delta/v_len0)*${cfac}
variable d4 equal -(v_pyz1-7.69184865607754e-25)/(v_delta/v_len0)*0.0001
variable d5 equal -(v_pxz1-${pxz0})/(v_delta/v_len0)*${cfac}
variable d5 equal -(v_pxz1--8.68434525686174e-25)/(v_delta/v_len0)*${cfac}
variable d5 equal -(v_pxz1--8.68434525686174e-25)/(v_delta/v_len0)*0.0001
variable d6 equal -(v_pxy1-${pxy0})/(v_delta/v_len0)*${cfac}
variable d6 equal -(v_pxy1-9.02575827212173e-25)/(v_delta/v_len0)*${cfac}
variable d6 equal -(v_pxy1-9.02575827212173e-25)/(v_delta/v_len0)*0.0001

displace_atoms all random ${atomjiggle} ${atomjiggle} ${atomjiggle} 87287 units box
displace_atoms all random 1e-05 ${atomjiggle} ${atomjiggle} 87287 units box
displace_atoms all random 1e-05 1e-05 ${atomjiggle} 87287 units box
displace_atoms all random 1e-05 1e-05 1e-05 87287 units box
Displacing atoms ...

# Write restart
unfix 3
write_restart restart.equil
System init for write_restart ...

# uxx Perturbation

variable dir equal 1
include displace.mod
# NOTE: This script should not need to be
# modified. See in.elastic for more info.
#
# Find which reference length to use

if "${dir} == 1" then    "variable len0 equal ${lx0}"
variable len0 equal ${lx0}
variable len0 equal 8.16000001042431
if "${dir} == 2" then    "variable len0 equal ${ly0}"
if "${dir} == 3" then    "variable len0 equal ${lz0}"
if "${dir} == 4" then    "variable len0 equal ${lz0}"
if "${dir} == 5" then    "variable len0 equal ${lz0}"
if "${dir} == 6" then    "variable len0 equal ${ly0}"

# Reset box and simulation parameters

clear
  using 1 OpenMP thread(s) per MPI task
Loaded 1 plugins from C:\Program Files\LAMMPS 64-bit 23Jun2022\plugins
Loaded 0 plugins from C:\Program Files\LAMMPS 64-bit 23Jun2022-MPI\plugins
Loaded 1 plugins from C:\Program Files\LAMMPS 64-bit 22Dec2022-MSMPI\plugins
Loaded 1 plugins from C:\Program Files\LAMMPS 64-bit 28Mar2023-MPI\plugins
box tilt large

The 'box' command has been removed and will be ignored

read_restart restart.equil
Reading restart file ...
  restart file = 22 Dec 2022, LAMMPS = 22 Dec 2022
  restoring atom style atomic from restart
  triclinic box = (-5.2121562e-09 -7.8182345e-09 -1.0424312e-08) to (8.16 12.24 16.32) with tilt (0 0 0)
  1 by 2 by 2 MPI processor grid
  pair style meam stores no restart info
  192 atoms
  read_restart CPU = 0.000 seconds
include potential.mod
# NOTE: This script can be modified for different pair styles
# See in.elastic for more info.

# Choose potential
#-----------------------
#pair_style	sw
#pair_coeff * * Si.sw Si
#-----------------------
#pair_style morse	2.83994742	# D0[eV] a[1/A] r0[A] rc[A], 1NN for BCC
#pair_coeff 1 1	2.1173	1.0202	2.4595	2.6497	#	Fe-Fe
#-----------------------
#pair_style smatb # R0(A)   p       q     A(eV)   xi(eV)  Rcs(A)   Rc(A), 4NN: Rcs=4NN, Rc=(4NN+5NN)/2
#pair_coeff 1 1	2.4802	7.0149	2.3779	0.3144	3.0551	4.033	4.176	#	Co	Co
#-----------------------
#pair_style eam/alloy
#pair_coeff * * AlCrFeCoNi_Zhou04.eam.alloy Fe
#-----------------------
pair_style meam
#pair_coeff * * ./../../library.meam Ni Ti C ./../../NiTiC.meam Ni Ti
#pair_coeff * * ./../../library.meam Ni Ti C ./../../NiTiC.meam Ti C
pair_coeff * * ./../../library.meam Ni Ti C ./../../NiTiC.meam Ni C
#-----------------------

# Setup neighbor style
neighbor 1.0 nsq
neigh_modify once no every 1 delay 0 check yes

# Setup minimization style
min_style	     cg
min_modify	     dmax ${dmax} line quadratic
min_modify	     dmax 0.01 line quadratic

# Setup output
thermo		1
thermo_style custom step temp pe press pxx pyy pzz pxy pxz pyz lx ly lz vol
thermo_modify norm no

# Negative deformation

variable delta equal -${up}*${len0}
variable delta equal -1e-06*${len0}
variable delta equal -1e-06*8.16000001042431
variable deltaxy equal -${up}*xy
variable deltaxy equal -1e-06*xy
variable deltaxz equal -${up}*xz
variable deltaxz equal -1e-06*xz
variable deltayz equal -${up}*yz
variable deltayz equal -1e-06*yz
if "${dir} == 1" then    "change_box all x delta 0 ${delta} xy delta ${deltaxy} xz delta ${deltaxz} remap units box"
change_box all x delta 0 ${delta} xy delta ${deltaxy} xz delta ${deltaxz} remap units box
change_box all x delta 0 -8.16000001042431e-06 xy delta ${deltaxy} xz delta ${deltaxz} remap units box
change_box all x delta 0 -8.16000001042431e-06 xy delta -0 xz delta ${deltaxz} remap units box
change_box all x delta 0 -8.16000001042431e-06 xy delta -0 xz delta -0 remap units box
Changing box ...
  triclinic box = (-5.2121562e-09 -7.8182345e-09 -1.0424312e-08) to (8.1599918 12.24 16.32) with tilt (0 0 0)
  triclinic box = (-5.2121562e-09 -7.8182345e-09 -1.0424312e-08) to (8.1599918 12.24 16.32) with tilt (0 0 0)
  triclinic box = (-5.2121562e-09 -7.8182345e-09 -1.0424312e-08) to (8.1599918 12.24 16.32) with tilt (0 0 0)
if "${dir} == 2" then    "change_box all y delta 0 ${delta} yz delta ${deltayz} remap units box"
if "${dir} == 3" then    "change_box all z delta 0 ${delta} remap units box"
if "${dir} == 4" then    "change_box all yz delta ${delta} remap units box"
if "${dir} == 5" then    "change_box all xz delta ${delta} remap units box"
if "${dir} == 6" then    "change_box all xy delta ${delta} remap units box"

# Relax atoms positions

minimize ${etol} ${ftol} ${maxiter} ${maxeval}
minimize 0 ${ftol} ${maxiter} ${maxeval}
minimize 0 1e-10 ${maxiter} ${maxeval}
minimize 0 1e-10 100 ${maxeval}
minimize 0 1e-10 100 1000
Neighbor list info ...
  update: every = 1 steps, delay = 0 steps, check = yes
  max neighbors/atom: 2000, page size: 100000
  master list distance cutoff = 5.8
  ghost atom cutoff = 5.8
  2 neighbor lists, perpetual/occasional/extra = 2 0 0
  (1) pair meam, perpetual
      attributes: full, newton on
      pair build: full/nsq
      stencil: none
      bin: none
  (2) pair meam, perpetual, half/full from (1)
      attributes: half, newton on
      pair build: halffull/newton
      stencil: none
      bin: none
Per MPI rank memory allocation (min/avg/max) = 9.879 | 9.879 | 9.88 Mbytes
   Step          Temp          PotEng         Press           Pxx            Pyy            Pzz            Pxy            Pxz            Pyz             Lx             Ly             Lz           Volume    
         2   0             -948.48         2.5082176      6.7589157      0.38290064     0.38283637    -2.5460343e-05 -2.1338585e-05 -3.056836e-05   8.1599919      12.24          16.32          1630.0139    
         3   0             -948.48         2.5075528      6.7582146      0.38221836     0.38222538     2.366515e-06  -2.3404608e-06  1.4113014e-06  8.1599919      12.24          16.32          1630.0139    
         4   0             -948.48         2.5075086      6.7581659      0.38217873     0.38218105    -2.9059176e-07 -1.7332219e-06 -9.0337335e-07  8.1599919      12.24          16.32          1630.0139    
         5   0             -948.48         2.5074897      6.7581601      0.3821532      0.38215587     7.6539042e-08 -5.5225829e-07  4.8955258e-07  8.1599919      12.24          16.32          1630.0139    
         6   0             -948.48         2.5074853      6.7581555      0.38214922     0.38215123     2.0505757e-07 -1.1678589e-07 -1.5307765e-07  8.1599919      12.24          16.32          1630.0139    
         7   0             -948.48         2.5074848      6.7581539      0.38214995     0.38215054     2.0795004e-08 -4.2454403e-08  2.3597804e-07  8.1599919      12.24          16.32          1630.0139    
         8   0             -948.48         2.5074847      6.7581536      0.38215031     0.38215005    -5.9329072e-08  6.0686429e-08 -6.4035594e-08  8.1599919      12.24          16.32          1630.0139    
         9   0             -948.48         2.5074848      6.7581537      0.38215051     0.38215029     6.8997716e-08 -4.2330632e-08  6.8998066e-08  8.1599919      12.24          16.32          1630.0139    
        10   0             -948.48         2.5074852      6.7581539      0.38215084     0.38215078    -7.735857e-08   3.4864553e-08 -3.4448287e-08  8.1599919      12.24          16.32          1630.0139    
        11   0             -948.48         2.5074852      6.7581539      0.38215094     0.38215086     3.3510646e-08 -1.7093667e-08  3.2997516e-08  8.1599919      12.24          16.32          1630.0139    
        12   0             -948.48         2.5074853      6.758154       0.38215104     0.38215091    -1.7566734e-08  3.3919575e-09 -1.5081379e-08  8.1599919      12.24          16.32          1630.0139    
        13   0             -948.48         2.5074854      6.7581541      0.38215109     0.38215095     6.2695271e-09 -7.1904144e-10  9.5303929e-09  8.1599919      12.24          16.32          1630.0139    
        14   0             -948.48         2.5074854      6.7581541      0.3821511      0.38215098    -7.3780739e-09  6.7406924e-09 -3.5910861e-09  8.1599919      12.24          16.32          1630.0139    
        15   0             -948.48         2.5074854      6.7581542      0.38215112     0.38215104    -7.6959185e-09 -8.5106928e-10  1.0274317e-09  8.1599919      12.24          16.32          1630.0139    
        16   0             -948.48         2.5074855      6.7581542      0.38215113     0.38215107    -7.2862158e-09  8.3779426e-10  7.9748345e-10  8.1599919      12.24          16.32          1630.0139    
        17   0             -948.48         2.5074855      6.7581542      0.38215115     0.38215109    -7.7707868e-09  3.9084389e-10  1.1799729e-09  8.1599919      12.24          16.32          1630.0139    
        18   0             -948.48         2.5074855      6.7581542      0.38215115     0.38215111    -5.9542296e-09  1.1008178e-09  2.5884212e-10  8.1599919      12.24          16.32          1630.0139    
        19   0             -948.48         2.5074855      6.7581542      0.38215115     0.38215111    -5.7324895e-09  1.2905867e-09  5.2921042e-10  8.1599919      12.24          16.32          1630.0139    
        20   0             -948.48         2.5074855      6.7581542      0.38215116     0.38215112    -4.7646379e-09  5.340804e-10   1.1405384e-10  8.1599919      12.24          16.32          1630.0139    
        21   0             -948.48         2.5074855      6.7581542      0.38215116     0.38215113    -4.3042555e-09  6.6940468e-10 -2.1302965e-11  8.1599919      12.24          16.32          1630.0139    
        22   0             -948.48         2.5074855      6.7581542      0.38215116     0.38215113    -3.4582632e-09  2.2856113e-11 -1.474409e-10   8.1599919      12.24          16.32          1630.0139    
        23   0             -948.48         2.5074855      6.7581542      0.38215116     0.38215114    -2.9349327e-09  7.7815715e-11 -1.1498309e-10  8.1599919      12.24          16.32          1630.0139    
        24   0             -948.48         2.5074855      6.7581542      0.38215116     0.38215114    -2.5629252e-09  1.7610782e-10  2.2953238e-11  8.1599919      12.24          16.32          1630.0139    
        25   0             -948.48         2.5074855      6.7581542      0.38215116     0.38215115    -2.1875701e-09  1.3179236e-10  1.0376494e-10  8.1599919      12.24          16.32          1630.0139    
        26   0             -948.48         2.5074855      6.7581542      0.38215116     0.38215115    -1.8757278e-09  4.4925893e-11  4.3333825e-11  8.1599919      12.24          16.32          1630.0139    
        27   0             -948.48         2.5074855      6.7581542      0.38215116     0.38215115    -1.1902586e-09 -8.3191002e-11  2.6088746e-11  8.1599919      12.24          16.32          1630.0139    
        28   0             -948.48         2.5074855      6.7581542      0.38215117     0.38215116    -8.8798102e-10 -4.7647899e-11 -4.7900906e-12  8.1599919      12.24          16.32          1630.0139    
        29   0             -948.48         2.5074855      6.7581542      0.38215117     0.38215116    -5.1457946e-10 -3.1226632e-12  5.9098572e-12  8.1599919      12.24          16.32          1630.0139    
        30   0             -948.48         2.5074855      6.7581542      0.38215117     0.38215116    -4.6143465e-10  7.7216606e-12  5.0569876e-11  8.1599919      12.24          16.32          1630.0139    
        31   0             -948.48         2.5074855      6.7581542      0.38215116     0.38215116    -2.4318475e-10  1.7924861e-11 -1.1510262e-11  8.1599919      12.24          16.32          1630.0139    
        32   0             -948.48         2.5074855      6.7581542      0.38215116     0.38215116    -2.6037948e-10 -3.9995099e-11  4.0535829e-11  8.1599919      12.24          16.32          1630.0139    
        33   0             -948.48         2.5074855      6.7581542      0.38215116     0.38215116    -1.1109009e-10 -2.0309796e-11 -1.1603894e-11  8.1599919      12.24          16.32          1630.0139    
        34   0             -948.48         2.5074855      6.7581542      0.38215116     0.38215116    -1.1587815e-10  1.5375082e-13  1.802751e-11   8.1599919      12.24          16.32          1630.0139    
        35   0             -948.48         2.5074855      6.7581542      0.38215116     0.38215116    -5.9963289e-11  2.1673516e-11  4.5365726e-12  8.1599919      12.24          16.32          1630.0139    
        36   0             -948.48         2.5074855      6.7581542      0.38215116     0.38215117    -3.987298e-11   1.1024714e-11  4.5719666e-12  8.1599919      12.24          16.32          1630.0139    
        37   0             -948.48         2.5074855      6.7581542      0.38215116     0.38215117    -2.261784e-11   1.4098438e-11  9.8747965e-12  8.1599919      12.24          16.32          1630.0139    
        38   0             -948.48         2.5074855      6.7581542      0.38215116     0.38215117    -1.5057412e-11  7.9799173e-12  2.5457702e-12  8.1599919      12.24          16.32          1630.0139    
        39   0             -948.48         2.5074855      6.7581542      0.38215116     0.38215117    -5.4439016e-12  9.6449232e-12 -4.7924205e-12  8.1599919      12.24          16.32          1630.0139    
        40   0             -948.48         2.5074855      6.7581542      0.38215116     0.38215117    -1.0140673e-11  1.3879368e-11  5.0785774e-13  8.1599919      12.24          16.32          1630.0139    
        41   0             -948.48         2.5074855      6.7581542      0.38215116     0.38215117    -7.2822296e-12  7.9024092e-12  2.9931686e-12  8.1599919      12.24          16.32          1630.0139    
        42   0             -948.48         2.5074855      6.7581542      0.38215116     0.38215117    -7.6384919e-12  5.1000737e-12  1.4638579e-12  8.1599919      12.24          16.32          1630.0139    
        43   0             -948.48         2.5074855      6.7581542      0.38215116     0.38215117    -3.387303e-12   1.8338126e-12 -3.9310833e-12  8.1599919      12.24          16.32          1630.0139    
        44   0             -948.48         2.5074855      6.7581542      0.38215116     0.38215117    -2.8932404e-12  2.8806126e-12  1.163109e-12   8.1599919      12.24          16.32          1630.0139    
        45   0             -948.48         2.5074855      6.7581542      0.38215116     0.38215117    -3.0626576e-12  3.7039024e-12 -1.7060381e-12  8.1599919      12.24          16.32          1630.0139    
        46   0             -948.48         2.5074855      6.7581542      0.38215116     0.38215117     2.1292717e-12  1.6532144e-12  9.8736095e-13  8.1599919      12.24          16.32          1630.0139    
        47   0             -948.48         2.5074855      6.7581542      0.38215116     0.38215117    -2.5927305e-13  1.7266798e-12  1.9441685e-13  8.1599919      12.24          16.32          1630.0139    
        48   0             -948.48         2.5074855      6.7581542      0.38215116     0.38215117    -1.0947068e-12  4.0010025e-12  1.1162722e-13  8.1599919      12.24          16.32          1630.0139    
        49   0             -948.48         2.5074855      6.7581542      0.38215116     0.38215117    -5.0746777e-13  2.4004137e-12 -1.9480996e-13  8.1599919      12.24          16.32          1630.0139    
        50   0             -948.48         2.5074855      6.7581542      0.38215116     0.38215117    -1.6462148e-12 -1.7962119e-12  3.4273265e-12  8.1599919      12.24          16.32          1630.0139    
        51   0             -948.48         2.5074855      6.7581542      0.38215116     0.38215117     2.6216266e-12  3.3428332e-12 -5.2308083e-12  8.1599919      12.24          16.32          1630.0139    
        52   0             -948.48         2.5074855      6.7581542      0.38215116     0.38215117    -7.0330473e-13  8.8979585e-13 -1.6306621e-12  8.1599919      12.24          16.32          1630.0139    
        53   0             -948.48         2.5074855      6.7581542      0.38215116     0.38215117     7.0742325e-13  3.7732197e-12 -2.210752e-12   8.1599919      12.24          16.32          1630.0139    
        54   0             -948.48         2.5074855      6.7581542      0.38215116     0.38215117    -2.7185185e-13 -3.4224e-13     2.8347724e-12  8.1599919      12.24          16.32          1630.0139    
        55   0             -948.48         2.5074855      6.7581542      0.38215116     0.38215117     6.2774311e-14 -4.8324249e-12  9.6439292e-13  8.1599919      12.24          16.32          1630.0139    
        56   0             -948.48         2.5074855      6.7581542      0.38215116     0.38215117     1.4191988e-12  1.0525662e-12 -2.7978641e-12  8.1599919      12.24          16.32          1630.0139    
        57   0             -948.48         2.5074855      6.7581542      0.38215116     0.38215117     1.3273628e-12 -4.50806e-12    4.7106545e-12  8.1599919      12.24          16.32          1630.0139    
        58   0             -948.48         2.5074855      6.7581542      0.38215116     0.38215117     2.1012951e-12  7.5707414e-13  4.2547638e-13  8.1599919      12.24          16.32          1630.0139    
        59   0             -948.48         2.5074855      6.7581542      0.38215116     0.38215117     2.7000037e-12 -3.2336375e-12  5.5937816e-12  8.1599919      12.24          16.32          1630.0139    
        60   0             -948.48         2.5074855      6.7581542      0.38215116     0.38215117    -2.1626227e-12 -4.9785327e-13 -4.1547054e-12  8.1599919      12.24          16.32          1630.0139    
        61   0             -948.48         2.5074855      6.7581542      0.38215116     0.38215117    -2.1690326e-12  2.337823e-12  -2.6138843e-12  8.1599919      12.24          16.32          1630.0139    
        62   0             -948.48         2.5074855      6.7581542      0.38215116     0.38215117    -3.8560568e-13  9.0836404e-13  7.1719124e-13  8.1599919      12.24          16.32          1630.0139    
        63   0             -948.48         2.5074855      6.7581542      0.38215116     0.38215117    -7.6150609e-13 -1.5956031e-12 -6.011966e-13   8.1599919      12.24          16.32          1630.0139    
        64   0             -948.48         2.5074855      6.7581542      0.38215116     0.38215117     1.516261e-12   2.2331121e-12  1.8346008e-12  8.1599919      12.24          16.32          1630.0139    
        65   0             -948.48         2.5074855      6.7581542      0.38215116     0.38215117    -8.2901172e-13 -4.3448423e-14  7.1122564e-13  8.1599919      12.24          16.32          1630.0139    
        66   0             -948.48         2.5074855      6.7581542      0.38215116     0.38215117    -4.1434546e-13  1.0113772e-12 -2.8872532e-12  8.1599919      12.24          16.32          1630.0139    
        67   0             -948.48         2.5074855      6.7581542      0.38215116     0.38215117     2.0596595e-12  2.4888139e-12 -7.3641958e-13  8.1599919      12.24          16.32          1630.0139    
        68   0             -948.48         2.5074855      6.7581542      0.38215116     0.38215117     3.9725222e-14  1.1729335e-12 -4.8052028e-14  8.1599919      12.24          16.32          1630.0139    
        69   0             -948.48         2.5074855      6.7581542      0.38215116     0.38215117    -1.7586343e-12  3.2972531e-12  8.8272503e-14  8.1599919      12.24          16.32          1630.0139    
        70   0             -948.48         2.5074855      6.7581542      0.38215116     0.38215117    -1.4456644e-12 -3.7500131e-12  3.6986854e-12  8.1599919      12.24          16.32          1630.0139    
        71   0             -948.48         2.5074855      6.7581542      0.38215116     0.38215117     1.0855603e-12 -2.3005179e-12 -5.2949892e-13  8.1599919      12.24          16.32          1630.0139    
        72   0             -948.48         2.5074855      6.7581542      0.38215116     0.38215117    -6.6162824e-13 -5.4893783e-12  2.0641042e-12  8.1599919      12.24          16.32          1630.0139    
        73   0             -948.48         2.5074855      6.7581542      0.38215116     0.38215117     1.8983613e-12  1.9708857e-12 -2.0224632e-12  8.1599919      12.24          16.32          1630.0139    
        74   0             -948.48         2.5074855      6.7581542      0.38215116     0.38215117    -4.9485507e-13  3.9433976e-13  2.0659593e-12  8.1599919      12.24          16.32          1630.0139    
        75   0             -948.48         2.5074855      6.7581542      0.38215116     0.38215117     3.1767578e-13  3.2426981e-12  5.2189778e-12  8.1599919      12.24          16.32          1630.0139    
        76   0             -948.48         2.5074855      6.7581542      0.38215116     0.38215117    -2.9360795e-12  1.5562046e-12 -1.9259856e-12  8.1599919      12.24          16.32          1630.0139    
        77   0             -948.48         2.5074855      6.7581542      0.38215116     0.38215117    -1.3964892e-12  4.032207e-12   1.4803154e-12  8.1599919      12.24          16.32          1630.0139    
Loop time of 0.039197 on 4 procs for 75 steps with 192 atoms

39.9% CPU use with 4 MPI tasks x 1 OpenMP threads

Minimization stats:
  Stopping criterion = force tolerance
  Energy initial, next-to-last, final = 
     -948.479999838363   -948.48000002733   -948.48000002733
  Force two-norm initial, final = 0.0033443324 4.4847377e-11
  Force max component initial, final = 0.00034910866 7.0056836e-12
  Final line search alpha, max atom move = 1 7.0056836e-12
  Iterations, force evaluations = 75 150

MPI task timing breakdown:
Section |  min time  |  avg time  |  max time  |%varavg| %total
---------------------------------------------------------------
Pair    | 0.034374   | 0.034595   | 0.034749   |   0.1 | 88.26
Neigh   | 0          | 0          | 0          |   0.0 |  0.00
Comm    | 0.002682   | 0.0028383  | 0.003062   |   0.3 |  7.24
Output  | 0.000767   | 0.00081725 | 0.0009     |   0.0 |  2.08
Modify  | 0          | 0          | 0          |   0.0 |  0.00
Other   |            | 0.0009465  |            |       |  2.41

Nlocal:             48 ave          50 max          46 min
Histogram: 1 0 1 0 0 0 0 1 0 1
Nghost:            600 ave         602 max         598 min
Histogram: 1 0 1 0 0 0 0 1 0 1
Neighs:           2208 ave        2297 max        2119 min
Histogram: 1 0 1 0 0 0 0 1 0 1
FullNghs:         4416 ave        4600 max        4232 min
Histogram: 1 0 1 0 0 0 0 1 0 1

Total # of neighbors = 17664
Ave neighs/atom = 92
Neighbor list builds = 0
Dangerous builds = 0

# Obtain new stress tensor

variable tmp equal pxx
variable pxx1 equal ${tmp}
variable pxx1 equal 6.75815416853875
variable tmp equal pyy
variable pyy1 equal ${tmp}
variable pyy1 equal 0.382151164623784
variable tmp equal pzz
variable pzz1 equal ${tmp}
variable pzz1 equal 0.382151165511138
variable tmp equal pxy
variable pxy1 equal ${tmp}
variable pxy1 equal -1.39648917630309e-12
variable tmp equal pxz
variable pxz1 equal ${tmp}
variable pxz1 equal 4.03220703016808e-12
variable tmp equal pyz
variable pyz1 equal ${tmp}
variable pyz1 equal 1.48031541984448e-12

# Compute elastic constant from pressure tensor

variable C1neg equal ${d1}
variable C1neg equal 675.815416875291
variable C2neg equal ${d2}
variable C2neg equal 38.215116542209
variable C3neg equal ${d3}
variable C3neg equal 38.2151165742883
variable C4neg equal ${d4}
variable C4neg equal 1.48031541984371e-10
variable C5neg equal ${d5}
variable C5neg equal 4.03220703016895e-10
variable C6neg equal ${d6}
variable C6neg equal -1.39648917630399e-10

# Reset box and simulation parameters

clear
  using 1 OpenMP thread(s) per MPI task
Loaded 1 plugins from C:\Program Files\LAMMPS 64-bit 23Jun2022\plugins
Loaded 0 plugins from C:\Program Files\LAMMPS 64-bit 23Jun2022-MPI\plugins
Loaded 1 plugins from C:\Program Files\LAMMPS 64-bit 22Dec2022-MSMPI\plugins
Loaded 1 plugins from C:\Program Files\LAMMPS 64-bit 28Mar2023-MPI\plugins
box tilt large

The 'box' command has been removed and will be ignored

read_restart restart.equil
Reading restart file ...
  restart file = 22 Dec 2022, LAMMPS = 22 Dec 2022
  restoring atom style atomic from restart
  triclinic box = (-5.2121562e-09 -7.8182345e-09 -1.0424312e-08) to (8.16 12.24 16.32) with tilt (0 0 0)
  1 by 2 by 2 MPI processor grid
  pair style meam stores no restart info
  192 atoms
  read_restart CPU = 0.000 seconds
include potential.mod
# NOTE: This script can be modified for different pair styles
# See in.elastic for more info.

# Choose potential
#-----------------------
#pair_style	sw
#pair_coeff * * Si.sw Si
#-----------------------
#pair_style morse	2.83994742	# D0[eV] a[1/A] r0[A] rc[A], 1NN for BCC
#pair_coeff 1 1	2.1173	1.0202	2.4595	2.6497	#	Fe-Fe
#-----------------------
#pair_style smatb # R0(A)   p       q     A(eV)   xi(eV)  Rcs(A)   Rc(A), 4NN: Rcs=4NN, Rc=(4NN+5NN)/2
#pair_coeff 1 1	2.4802	7.0149	2.3779	0.3144	3.0551	4.033	4.176	#	Co	Co
#-----------------------
#pair_style eam/alloy
#pair_coeff * * AlCrFeCoNi_Zhou04.eam.alloy Fe
#-----------------------
pair_style meam
#pair_coeff * * ./../../library.meam Ni Ti C ./../../NiTiC.meam Ni Ti
#pair_coeff * * ./../../library.meam Ni Ti C ./../../NiTiC.meam Ti C
pair_coeff * * ./../../library.meam Ni Ti C ./../../NiTiC.meam Ni C
#-----------------------

# Setup neighbor style
neighbor 1.0 nsq
neigh_modify once no every 1 delay 0 check yes

# Setup minimization style
min_style	     cg
min_modify	     dmax ${dmax} line quadratic
min_modify	     dmax 0.01 line quadratic

# Setup output
thermo		1
thermo_style custom step temp pe press pxx pyy pzz pxy pxz pyz lx ly lz vol
thermo_modify norm no

# Positive deformation

variable delta equal ${up}*${len0}
variable delta equal 1e-06*${len0}
variable delta equal 1e-06*8.16000001042431
variable deltaxy equal ${up}*xy
variable deltaxy equal 1e-06*xy
variable deltaxz equal ${up}*xz
variable deltaxz equal 1e-06*xz
variable deltayz equal ${up}*yz
variable deltayz equal 1e-06*yz
if "${dir} == 1" then    "change_box all x delta 0 ${delta} xy delta ${deltaxy} xz delta ${deltaxz} remap units box"
change_box all x delta 0 ${delta} xy delta ${deltaxy} xz delta ${deltaxz} remap units box
change_box all x delta 0 8.16000001042431e-06 xy delta ${deltaxy} xz delta ${deltaxz} remap units box
change_box all x delta 0 8.16000001042431e-06 xy delta 0 xz delta ${deltaxz} remap units box
change_box all x delta 0 8.16000001042431e-06 xy delta 0 xz delta 0 remap units box
Changing box ...
  triclinic box = (-5.2121562e-09 -7.8182345e-09 -1.0424312e-08) to (8.1600082 12.24 16.32) with tilt (0 0 0)
  triclinic box = (-5.2121562e-09 -7.8182345e-09 -1.0424312e-08) to (8.1600082 12.24 16.32) with tilt (0 0 0)
  triclinic box = (-5.2121562e-09 -7.8182345e-09 -1.0424312e-08) to (8.1600082 12.24 16.32) with tilt (0 0 0)
if "${dir} == 2" then    "change_box all y delta 0 ${delta} yz delta ${deltayz} remap units box"
if "${dir} == 3" then    "change_box all z delta 0 ${delta} remap units box"
if "${dir} == 4" then    "change_box all yz delta ${delta} remap units box"
if "${dir} == 5" then    "change_box all xz delta ${delta} remap units box"
if "${dir} == 6" then    "change_box all xy delta ${delta} remap units box"

# Relax atoms positions

minimize ${etol} ${ftol} ${maxiter} ${maxeval}
minimize 0 ${ftol} ${maxiter} ${maxeval}
minimize 0 1e-10 ${maxiter} ${maxeval}
minimize 0 1e-10 100 ${maxeval}
minimize 0 1e-10 100 1000
Neighbor list info ...
  update: every = 1 steps, delay = 0 steps, check = yes
  max neighbors/atom: 2000, page size: 100000
  master list distance cutoff = 5.8
  ghost atom cutoff = 5.8
  2 neighbor lists, perpetual/occasional/extra = 2 0 0
  (1) pair meam, perpetual
      attributes: full, newton on
      pair build: full/nsq
      stencil: none
      bin: none
  (2) pair meam, perpetual, half/full from (1)
      attributes: half, newton on
      pair build: halffull/newton
      stencil: none
      bin: none
Per MPI rank memory allocation (min/avg/max) = 9.879 | 9.879 | 9.88 Mbytes
   Step          Temp          PotEng         Press           Pxx            Pyy            Pzz            Pxy            Pxz            Pyz             Lx             Ly             Lz           Volume    
         2   0             -948.48        -2.5067224     -6.7572971     -0.3814029     -0.38146717    -2.5459823e-05 -2.1338242e-05 -3.0568327e-05  8.1600082      12.24          16.32          1630.0171    
         3   0             -948.48        -2.5073872     -6.7579983     -0.38208519    -0.38207816     2.3662587e-06 -2.3405079e-06  1.4114394e-06  8.1600082      12.24          16.32          1630.0171    
         4   0             -948.48        -2.5074314     -6.7580469     -0.38212482    -0.38212249    -2.9041905e-07 -1.7331553e-06 -9.0349821e-07  8.1600082      12.24          16.32          1630.0171    
         5   0             -948.48        -2.5074502     -6.7580527     -0.38215034    -0.38214768     7.6371947e-08 -5.5224535e-07  4.896436e-07   8.1600082      12.24          16.32          1630.0171    
         6   0             -948.48        -2.5074547     -6.7580573     -0.38215432    -0.38215231     2.0513728e-07 -1.1677436e-07 -1.5311209e-07  8.1600082      12.24          16.32          1630.0171    
         7   0             -948.48        -2.5074552     -6.7580589     -0.3821536     -0.382153       2.0701081e-08 -4.2489094e-08  2.3600328e-07  8.1600082      12.24          16.32          1630.0171    
         8   0             -948.48        -2.5074553     -6.7580592     -0.38215324    -0.38215349    -5.9261538e-08  6.0698985e-08 -6.4047314e-08  8.1600082      12.24          16.32          1630.0171    
         9   0             -948.48        -2.5074551     -6.7580591     -0.38215303    -0.38215325     6.891871e-08  -4.2332871e-08  6.900339e-08   8.1600082      12.24          16.32          1630.0171    
        10   0             -948.48        -2.5074548     -6.7580589     -0.3821527     -0.38215276    -7.7294012e-08  3.4882532e-08 -3.4462288e-08  8.1600082      12.24          16.32          1630.0171    
        11   0             -948.48        -2.5074547     -6.7580589     -0.3821526     -0.38215269     3.3483837e-08 -1.709799e-08   3.3011279e-08  8.1600082      12.24          16.32          1630.0171    
        12   0             -948.48        -2.5074546     -6.7580588     -0.3821525     -0.38215263    -1.7543956e-08  3.4005057e-09 -1.5096413e-08  8.1600082      12.24          16.32          1630.0171    
        13   0             -948.48        -2.5074546     -6.7580587     -0.38215245    -0.38215259     6.2544003e-09 -7.2532738e-10  9.5398643e-09  8.1600082      12.24          16.32          1630.0171    
        14   0             -948.48        -2.5074546     -6.7580587     -0.38215244    -0.38215256    -7.3675825e-09  6.7412848e-09 -3.5954898e-09  8.1600082      12.24          16.32          1630.0171    
        15   0             -948.48        -2.5074545     -6.7580587     -0.38215243    -0.3821525     -7.7064296e-09 -8.5169964e-10  1.0273141e-09  8.1600082      12.24          16.32          1630.0171    
        16   0             -948.48        -2.5074545     -6.7580586     -0.38215242    -0.38215247    -7.2807294e-09  8.4110568e-10  7.9804497e-10  8.1600082      12.24          16.32          1630.0171    
        17   0             -948.48        -2.5074545     -6.7580586     -0.3821524     -0.38215245    -7.7708823e-09  3.8732451e-10  1.1798717e-09  8.1600082      12.24          16.32          1630.0171    
        18   0             -948.48        -2.5074545     -6.7580586     -0.38215239    -0.38215244    -5.9540547e-09  1.1010196e-09  2.5706082e-10  8.1600082      12.24          16.32          1630.0171    
        19   0             -948.48        -2.5074545     -6.7580586     -0.38215239    -0.38215243    -5.7343255e-09  1.2917005e-09  5.2845475e-10  8.1600082      12.24          16.32          1630.0171    
        20   0             -948.48        -2.5074545     -6.7580586     -0.38215238    -0.38215242    -4.7680615e-09  5.2891644e-10  1.1714783e-10  8.1600082      12.24          16.32          1630.0171    
        21   0             -948.48        -2.5074545     -6.7580586     -0.38215238    -0.38215242    -4.3016563e-09  6.6597403e-10 -2.3346162e-11  8.1600082      12.24          16.32          1630.0171    
        22   0             -948.48        -2.5074545     -6.7580586     -0.38215238    -0.38215241    -3.463287e-09   1.7666745e-11 -1.4423251e-10  8.1600082      12.24          16.32          1630.0171    
        23   0             -948.48        -2.5074545     -6.7580586     -0.38215238    -0.3821524     -2.9308798e-09  7.7307755e-11 -1.1567181e-10  8.1600082      12.24          16.32          1630.0171    
        24   0             -948.48        -2.5074545     -6.7580586     -0.38215238    -0.3821524     -2.5733317e-09  1.7369539e-10  3.033582e-11   8.1600082      12.24          16.32          1630.0171    
        25   0             -948.48        -2.5074545     -6.7580586     -0.38215238    -0.3821524     -2.1777949e-09  1.3711936e-10  9.8316699e-11  8.1600082      12.24          16.32          1630.0171    
        26   0             -948.48        -2.5074545     -6.7580586     -0.38215238    -0.38215239    -1.8901983e-09  3.9335502e-11  4.945669e-11   8.1600082      12.24          16.32          1630.0171    
        27   0             -948.48        -2.5074545     -6.7580586     -0.38215238    -0.38215239    -1.1724936e-09 -8.3774831e-11  1.7150378e-11  8.1600082      12.24          16.32          1630.0171    
        28   0             -948.48        -2.5074545     -6.7580586     -0.38215238    -0.38215239    -8.9470504e-10 -5.2901846e-11 -7.2644934e-13  8.1600082      12.24          16.32          1630.0171    
        29   0             -948.48        -2.5074545     -6.7580586     -0.38215238    -0.38215238    -5.5111598e-10 -9.8374049e-12  2.3350893e-11  8.1600082      12.24          16.32          1630.0171    
        30   0             -948.48        -2.5074545     -6.7580586     -0.38215238    -0.38215238    -4.0125744e-10  2.6805093e-11  2.489551e-11   8.1600082      12.24          16.32          1630.0171    
        31   0             -948.48        -2.5074545     -6.7580586     -0.38215238    -0.38215238    -3.9251062e-10 -2.5508667e-11  4.7013939e-11  8.1600082      12.24          16.32          1630.0171    
        32   0             -948.48        -2.5074545     -6.7580586     -0.38215238    -0.38215238    -1.5007117e-10 -1.2332715e-11 -6.4349002e-12  8.1600082      12.24          16.32          1630.0171    
        33   0             -948.48        -2.5074545     -6.7580586     -0.38215238    -0.38215238    -2.0189442e-10 -4.5487129e-11  3.0115824e-11  8.1600082      12.24          16.32          1630.0171    
        34   0             -948.48        -2.5074545     -6.7580586     -0.38215238    -0.38215238    -7.6416222e-11  8.5457522e-12 -1.1718472e-12  8.1600082      12.24          16.32          1630.0171    
        35   0             -948.48        -2.5074545     -6.7580586     -0.38215238    -0.38215238    -7.7008387e-11  1.9601723e-11  7.3602916e-12  8.1600082      12.24          16.32          1630.0171    
        36   0             -948.48        -2.5074545     -6.7580586     -0.38215238    -0.38215238    -3.1661694e-11  1.2423203e-11  2.1546737e-12  8.1600082      12.24          16.32          1630.0171    
        37   0             -948.48        -2.5074545     -6.7580586     -0.38215238    -0.38215238    -2.4325357e-11  9.2481589e-12  7.7028339e-12  8.1600082      12.24          16.32          1630.0171    
        38   0             -948.48        -2.5074545     -6.7580586     -0.38215238    -0.38215238    -1.3245668e-11  6.7091749e-12  1.6255923e-12  8.1600082      12.24          16.32          1630.0171    
        39   0             -948.48        -2.5074545     -6.7580586     -0.38215238    -0.38215238    -5.0761001e-12  1.2346771e-11 -5.6464926e-13  8.1600082      12.24          16.32          1630.0171    
        40   0             -948.48        -2.5074545     -6.7580586     -0.38215238    -0.38215238    -8.8157632e-12  7.2988966e-12 -4.9450128e-12  8.1600082      12.24          16.32          1630.0171    
        41   0             -948.48        -2.5074545     -6.7580586     -0.38215238    -0.38215238    -7.3680315e-12  1.1884034e-11 -2.0882859e-13  8.1600082      12.24          16.32          1630.0171    
        42   0             -948.48        -2.5074545     -6.7580586     -0.38215238    -0.38215238    -3.9694033e-12  9.8207123e-12  2.2712256e-12  8.1600082      12.24          16.32          1630.0171    
        43   0             -948.48        -2.5074545     -6.7580586     -0.38215238    -0.38215238     1.1783818e-12  3.8484993e-12  3.6527335e-12  8.1600082      12.24          16.32          1630.0171    
        44   0             -948.48        -2.5074545     -6.7580586     -0.38215238    -0.38215238    -3.7230843e-12  1.2987727e-12  4.7431991e-12  8.1600082      12.24          16.32          1630.0171    
        45   0             -948.48        -2.5074545     -6.7580586     -0.38215238    -0.38215238    -1.5186878e-12  3.9418894e-13  2.3042431e-12  8.1600082      12.24          16.32          1630.0171    
        46   0             -948.48        -2.5074545     -6.7580586     -0.38215238    -0.38215238    -1.4090157e-12  1.7341371e-12 -1.8288231e-13  8.1600082      12.24          16.32          1630.0171    
        47   0             -948.48        -2.5074545     -6.7580586     -0.38215238    -0.38215238    -2.3176111e-12 -6.6830909e-12 -1.2199007e-12  8.1600082      12.24          16.32          1630.0171    
        48   0             -948.48        -2.5074545     -6.7580586     -0.38215238    -0.38215238    -2.5295443e-12  1.821909e-12   7.0227194e-13  8.1600082      12.24          16.32          1630.0171    
        49   0             -948.48        -2.5074545     -6.7580586     -0.38215238    -0.38215238    -5.919525e-13  -3.5828404e-12  1.4516882e-12  8.1600082      12.24          16.32          1630.0171    
        50   0             -948.48        -2.5074545     -6.7580586     -0.38215238    -0.38215238     1.2263074e-12  5.3789044e-13  3.156623e-12   8.1600082      12.24          16.32          1630.0171    
        51   0             -948.48        -2.5074545     -6.7580586     -0.38215238    -0.38215238     2.3307139e-13 -5.6990343e-12 -1.0054185e-13  8.1600082      12.24          16.32          1630.0171    
        52   0             -948.48        -2.5074545     -6.7580586     -0.38215238    -0.38215238     9.7311878e-13  1.3730136e-12 -2.7302949e-13  8.1600082      12.24          16.32          1630.0171    
        53   0             -948.48        -2.5074545     -6.7580586     -0.38215238    -0.38215238    -3.4708428e-13  8.2738017e-13  8.3096124e-13  8.1600082      12.24          16.32          1630.0171    
        54   0             -948.48        -2.5074545     -6.7580586     -0.38215238    -0.38215238     3.1183643e-12 -2.6572264e-12  1.6813043e-12  8.1600082      12.24          16.32          1630.0171    
        55   0             -948.48        -2.5074545     -6.7580586     -0.38215238    -0.38215238    -7.9154414e-13 -2.9831335e-12 -2.0369115e-12  8.1600082      12.24          16.32          1630.0171    
        56   0             -948.48        -2.5074545     -6.7580586     -0.38215238    -0.38215238     6.2398775e-13 -2.0344848e-12  1.3608818e-12  8.1600082      12.24          16.32          1630.0171    
        57   0             -948.48        -2.5074545     -6.7580586     -0.38215238    -0.38215238    -1.8189717e-13  3.05065e-12    3.1075493e-12  8.1600082      12.24          16.32          1630.0171    
        58   0             -948.48        -2.5074545     -6.7580586     -0.38215238    -0.38215238    -7.6951694e-13  4.4214614e-12 -3.0761381e-12  8.1600082      12.24          16.32          1630.0171    
        59   0             -948.48        -2.5074545     -6.7580586     -0.38215238    -0.38215238    -7.9068129e-13  2.3226593e-12 -3.9494302e-12  8.1600082      12.24          16.32          1630.0171    
        60   0             -948.48        -2.5074545     -6.7580586     -0.38215238    -0.38215238     2.4314846e-13  1.1021136e-12  3.7061248e-12  8.1600082      12.24          16.32          1630.0171    
        61   0             -948.48        -2.5074545     -6.7580586     -0.38215238    -0.38215238    -4.4620725e-13  2.4219879e-12 -3.1949877e-12  8.1600082      12.24          16.32          1630.0171    
        62   0             -948.48        -2.5074545     -6.7580586     -0.38215238    -0.38215238    -1.384737e-12  -3.5081061e-12  4.0199927e-12  8.1600082      12.24          16.32          1630.0171    
        63   0             -948.48        -2.5074545     -6.7580586     -0.38215238    -0.38215238    -2.3398771e-13 -3.3959976e-12  6.1134779e-13  8.1600082      12.24          16.32          1630.0171    
        64   0             -948.48        -2.5074545     -6.7580586     -0.38215238    -0.38215238     1.1087967e-12 -1.4362061e-12 -3.3044905e-12  8.1600082      12.24          16.32          1630.0171    
        65   0             -948.48        -2.5074545     -6.7580586     -0.38215238    -0.38215238     8.0099303e-13 -1.3763089e-13  3.0321558e-12  8.1600082      12.24          16.32          1630.0171    
        66   0             -948.48        -2.5074545     -6.7580586     -0.38215238    -0.38215238    -9.719132e-13  -1.6469364e-12 -2.671731e-12   8.1600082      12.24          16.32          1630.0171    
        67   0             -948.48        -2.5074545     -6.7580586     -0.38215238    -0.38215238     1.6723983e-12  2.0659473e-13 -3.8307737e-12  8.1600082      12.24          16.32          1630.0171    
        68   0             -948.48        -2.5074545     -6.7580586     -0.38215238    -0.38215238     7.1718683e-13 -2.8105744e-12  2.4843018e-12  8.1600082      12.24          16.32          1630.0171    
        69   0             -948.48        -2.5074545     -6.7580586     -0.38215238    -0.38215238    -7.8767705e-13 -1.7273151e-12  1.4877178e-12  8.1600082      12.24          16.32          1630.0171    
        70   0             -948.48        -2.5074545     -6.7580586     -0.38215238    -0.38215238    -3.5866153e-13  7.3632144e-13 -7.7749665e-14  8.1600082      12.24          16.32          1630.0171    
        71   0             -948.48        -2.5074545     -6.7580586     -0.38215238    -0.38215238     3.8886675e-13 -3.9823029e-12 -7.5997715e-13  8.1600082      12.24          16.32          1630.0171    
        72   0             -948.48        -2.5074545     -6.7580586     -0.38215238    -0.38215238    -5.5283006e-13 -1.4345704e-12 -4.6381361e-12  8.1600082      12.24          16.32          1630.0171    
        73   0             -948.48        -2.5074545     -6.7580586     -0.38215238    -0.38215238    -1.4259939e-12 -6.8532585e-13 -6.0312031e-13  8.1600082      12.24          16.32          1630.0171    
        74   0             -948.48        -2.5074545     -6.7580586     -0.38215238    -0.38215238     3.3920006e-14  3.5069269e-12  1.3477847e-12  8.1600082      12.24          16.32          1630.0171    
        75   0             -948.48        -2.5074545     -6.7580586     -0.38215238    -0.38215238     3.9608371e-13 -4.3568157e-13  1.4046494e-12  8.1600082      12.24          16.32          1630.0171    
        76   0             -948.48        -2.5074545     -6.7580586     -0.38215238    -0.38215238     6.3883118e-13 -5.5296245e-13 -1.6253146e-12  8.1600082      12.24          16.32          1630.0171    
        77   0             -948.48        -2.5074545     -6.7580586     -0.38215238    -0.38215238     8.590881e-14   1.2970792e-12 -4.2183957e-12  8.1600082      12.24          16.32          1630.0171    
Loop time of 0.04764 on 4 procs for 75 steps with 192 atoms

57.4% CPU use with 4 MPI tasks x 1 OpenMP threads

Minimization stats:
  Stopping criterion = force tolerance
  Energy initial, next-to-last, final = 
     -948.479999838365   -948.48000002733   -948.48000002733
  Force two-norm initial, final = 0.0033442993 4.5314844e-11
  Force max component initial, final = 0.00034910902 6.7417985e-12
  Final line search alpha, max atom move = 1 6.7417985e-12
  Iterations, force evaluations = 75 150

MPI task timing breakdown:
Section |  min time  |  avg time  |  max time  |%varavg| %total
---------------------------------------------------------------
Pair    | 0.040027   | 0.040541   | 0.041112   |   0.2 | 85.10
Neigh   | 0          | 0          | 0          |   0.0 |  0.00
Comm    | 0.004021   | 0.0045828  | 0.005079   |   0.6 |  9.62
Output  | 0.001112   | 0.0011665  | 0.001228   |   0.1 |  2.45
Modify  | 0          | 0          | 0          |   0.0 |  0.00
Other   |            | 0.00135    |            |       |  2.83

Nlocal:             48 ave          50 max          46 min
Histogram: 1 0 1 0 0 0 0 1 0 1
Nghost:            600 ave         602 max         598 min
Histogram: 1 0 1 0 0 0 0 1 0 1
Neighs:           2208 ave        2297 max        2119 min
Histogram: 1 0 1 0 0 0 0 1 0 1
FullNghs:         4416 ave        4600 max        4232 min
Histogram: 1 0 1 0 0 0 0 1 0 1

Total # of neighbors = 17664
Ave neighs/atom = 92
Neighbor list builds = 0
Dangerous builds = 0

# Obtain new stress tensor

variable tmp equal pe
variable e1 equal ${tmp}
variable e1 equal -948.48000002733
variable tmp equal press
variable p1 equal ${tmp}
variable p1 equal -2.50745446543938
variable tmp equal pxx
variable pxx1 equal ${tmp}
variable pxx1 equal -6.75805864252299
variable tmp equal pyy
variable pyy1 equal ${tmp}
variable pyy1 equal -0.382152377337574
variable tmp equal pzz
variable pzz1 equal ${tmp}
variable pzz1 equal -0.382152376457568
variable tmp equal pxy
variable pxy1 equal ${tmp}
variable pxy1 equal 8.59088100160558e-14
variable tmp equal pxz
variable pxz1 equal ${tmp}
variable pxz1 equal 1.29707922804119e-12
variable tmp equal pyz
variable pyz1 equal ${tmp}
variable pyz1 equal -4.21839565755379e-12

# Compute elastic constant from pressure tensor

variable C1pos equal ${d1}
variable C1pos equal 675.805864230883
variable C2pos equal ${d2}
variable C2pos equal 38.2152376539268
variable C3pos equal ${d3}
variable C3pos equal 38.2152376225823
variable C4pos equal ${d4}
variable C4pos equal 4.21839565755456e-10
variable C5pos equal ${d5}
variable C5pos equal -1.29707922804206e-10
variable C6pos equal ${d6}
variable C6pos equal -8.59088100151532e-12

# Combine positive and negative

variable C1${dir} equal 0.5*(${C1neg}+${C1pos})
variable C11 equal 0.5*(${C1neg}+${C1pos})
variable C11 equal 0.5*(675.815416875291+${C1pos})
variable C11 equal 0.5*(675.815416875291+675.805864230883)
variable C2${dir} equal 0.5*(${C2neg}+${C2pos})
variable C21 equal 0.5*(${C2neg}+${C2pos})
variable C21 equal 0.5*(38.215116542209+${C2pos})
variable C21 equal 0.5*(38.215116542209+38.2152376539268)
variable C3${dir} equal 0.5*(${C3neg}+${C3pos})
variable C31 equal 0.5*(${C3neg}+${C3pos})
variable C31 equal 0.5*(38.2151165742883+${C3pos})
variable C31 equal 0.5*(38.2151165742883+38.2152376225823)
variable C4${dir} equal 0.5*(${C4neg}+${C4pos})
variable C41 equal 0.5*(${C4neg}+${C4pos})
variable C41 equal 0.5*(1.48031541984371e-10+${C4pos})
variable C41 equal 0.5*(1.48031541984371e-10+4.21839565755456e-10)
variable C5${dir} equal 0.5*(${C5neg}+${C5pos})
variable C51 equal 0.5*(${C5neg}+${C5pos})
variable C51 equal 0.5*(4.03220703016895e-10+${C5pos})
variable C51 equal 0.5*(4.03220703016895e-10+-1.29707922804206e-10)
variable C6${dir} equal 0.5*(${C6neg}+${C6pos})
variable C61 equal 0.5*(${C6neg}+${C6pos})
variable C61 equal 0.5*(-1.39648917630399e-10+${C6pos})
variable C61 equal 0.5*(-1.39648917630399e-10+-8.59088100151532e-12)

# Delete dir to make sure it is not reused

variable dir delete

# uyy Perturbation

variable dir equal 2
include displace.mod
# NOTE: This script should not need to be
# modified. See in.elastic for more info.
#
# Find which reference length to use

if "${dir} == 1" then    "variable len0 equal ${lx0}"
if "${dir} == 2" then    "variable len0 equal ${ly0}"
variable len0 equal ${ly0}
variable len0 equal 12.2400000156365
if "${dir} == 3" then    "variable len0 equal ${lz0}"
if "${dir} == 4" then    "variable len0 equal ${lz0}"
if "${dir} == 5" then    "variable len0 equal ${lz0}"
if "${dir} == 6" then    "variable len0 equal ${ly0}"

# Reset box and simulation parameters

clear
  using 1 OpenMP thread(s) per MPI task
Loaded 1 plugins from C:\Program Files\LAMMPS 64-bit 23Jun2022\plugins
Loaded 0 plugins from C:\Program Files\LAMMPS 64-bit 23Jun2022-MPI\plugins
Loaded 1 plugins from C:\Program Files\LAMMPS 64-bit 22Dec2022-MSMPI\plugins
Loaded 1 plugins from C:\Program Files\LAMMPS 64-bit 28Mar2023-MPI\plugins
box tilt large

The 'box' command has been removed and will be ignored

read_restart restart.equil
Reading restart file ...
  restart file = 22 Dec 2022, LAMMPS = 22 Dec 2022
  restoring atom style atomic from restart
  triclinic box = (-5.2121562e-09 -7.8182345e-09 -1.0424312e-08) to (8.16 12.24 16.32) with tilt (0 0 0)
  1 by 2 by 2 MPI processor grid
  pair style meam stores no restart info
  192 atoms
  read_restart CPU = 0.000 seconds
include potential.mod
# NOTE: This script can be modified for different pair styles
# See in.elastic for more info.

# Choose potential
#-----------------------
#pair_style	sw
#pair_coeff * * Si.sw Si
#-----------------------
#pair_style morse	2.83994742	# D0[eV] a[1/A] r0[A] rc[A], 1NN for BCC
#pair_coeff 1 1	2.1173	1.0202	2.4595	2.6497	#	Fe-Fe
#-----------------------
#pair_style smatb # R0(A)   p       q     A(eV)   xi(eV)  Rcs(A)   Rc(A), 4NN: Rcs=4NN, Rc=(4NN+5NN)/2
#pair_coeff 1 1	2.4802	7.0149	2.3779	0.3144	3.0551	4.033	4.176	#	Co	Co
#-----------------------
#pair_style eam/alloy
#pair_coeff * * AlCrFeCoNi_Zhou04.eam.alloy Fe
#-----------------------
pair_style meam
#pair_coeff * * ./../../library.meam Ni Ti C ./../../NiTiC.meam Ni Ti
#pair_coeff * * ./../../library.meam Ni Ti C ./../../NiTiC.meam Ti C
pair_coeff * * ./../../library.meam Ni Ti C ./../../NiTiC.meam Ni C
#-----------------------

# Setup neighbor style
neighbor 1.0 nsq
neigh_modify once no every 1 delay 0 check yes

# Setup minimization style
min_style	     cg
min_modify	     dmax ${dmax} line quadratic
min_modify	     dmax 0.01 line quadratic

# Setup output
thermo		1
thermo_style custom step temp pe press pxx pyy pzz pxy pxz pyz lx ly lz vol
thermo_modify norm no

# Negative deformation

variable delta equal -${up}*${len0}
variable delta equal -1e-06*${len0}
variable delta equal -1e-06*12.2400000156365
variable deltaxy equal -${up}*xy
variable deltaxy equal -1e-06*xy
variable deltaxz equal -${up}*xz
variable deltaxz equal -1e-06*xz
variable deltayz equal -${up}*yz
variable deltayz equal -1e-06*yz
if "${dir} == 1" then    "change_box all x delta 0 ${delta} xy delta ${deltaxy} xz delta ${deltaxz} remap units box"
if "${dir} == 2" then    "change_box all y delta 0 ${delta} yz delta ${deltayz} remap units box"
change_box all y delta 0 ${delta} yz delta ${deltayz} remap units box
change_box all y delta 0 -1.22400000156365e-05 yz delta ${deltayz} remap units box
change_box all y delta 0 -1.22400000156365e-05 yz delta -0 remap units box
Changing box ...
  triclinic box = (-5.2121562e-09 -7.8182345e-09 -1.0424312e-08) to (8.16 12.239988 16.32) with tilt (0 0 0)
  triclinic box = (-5.2121562e-09 -7.8182345e-09 -1.0424312e-08) to (8.16 12.239988 16.32) with tilt (0 0 0)
if "${dir} == 3" then    "change_box all z delta 0 ${delta} remap units box"
if "${dir} == 4" then    "change_box all yz delta ${delta} remap units box"
if "${dir} == 5" then    "change_box all xz delta ${delta} remap units box"
if "${dir} == 6" then    "change_box all xy delta ${delta} remap units box"

# Relax atoms positions

minimize ${etol} ${ftol} ${maxiter} ${maxeval}
minimize 0 ${ftol} ${maxiter} ${maxeval}
minimize 0 1e-10 ${maxiter} ${maxeval}
minimize 0 1e-10 100 ${maxeval}
minimize 0 1e-10 100 1000
Neighbor list info ...
  update: every = 1 steps, delay = 0 steps, check = yes
  max neighbors/atom: 2000, page size: 100000
  master list distance cutoff = 5.8
  ghost atom cutoff = 5.8
  2 neighbor lists, perpetual/occasional/extra = 2 0 0
  (1) pair meam, perpetual
      attributes: full, newton on
      pair build: full/nsq
      stencil: none
      bin: none
  (2) pair meam, perpetual, half/full from (1)
      attributes: half, newton on
      pair build: halffull/newton
      stencil: none
      bin: none
Per MPI rank memory allocation (min/avg/max) = 9.879 | 9.879 | 9.88 Mbytes
   Step          Temp          PotEng         Press           Pxx            Pyy            Pzz            Pxy            Pxz            Pyz             Lx             Ly             Lz           Volume    
         2   0             -948.48         2.5082176      0.38291272     6.7589037      0.38283637    -2.5460245e-05 -2.1338441e-05 -3.0568637e-05  8.16           12.239988      16.32          1630.0139    
         3   0             -948.48         2.5075528      0.38221156     6.7582214      0.38222538     2.3663267e-06 -2.3404813e-06  1.4114471e-06  8.16           12.239988      16.32          1630.0139    
         4   0             -948.48         2.5075086      0.38216295     6.7581817      0.38218105    -2.9042925e-07 -1.7331873e-06 -9.0357085e-07  8.16           12.239988      16.32          1630.0139    
         5   0             -948.48         2.5074897      0.38215714     6.7581562      0.38215587     7.6381436e-08 -5.5228264e-07  4.8970594e-07  8.16           12.239988      16.32          1630.0139    
         6   0             -948.48         2.5074853      0.38215247     6.7581522      0.38215123     2.0514984e-07 -1.1677608e-07 -1.5311665e-07  8.16           12.239988      16.32          1630.0139    
         7   0             -948.48         2.5074848      0.38215087     6.7581529      0.38215054     2.0698758e-08 -4.2480554e-08  2.3600435e-07  8.16           12.239988      16.32          1630.0139    
         8   0             -948.48         2.5074847      0.38215063     6.7581533      0.38215005    -5.9263775e-08  6.0693738e-08 -6.4041927e-08  8.16           12.239988      16.32          1630.0139    
         9   0             -948.48         2.5074848      0.38215074     6.7581535      0.38215029     6.8921747e-08 -4.2322808e-08  6.89952e-08    8.16           12.239988      16.32          1630.0139    
        10   0             -948.48         2.5074852      0.38215089     6.7581538      0.38215078    -7.7309987e-08  3.485746e-08  -3.4451598e-08  8.16           12.239988      16.32          1630.0139    
        11   0             -948.48         2.5074852      0.38215094     6.7581539      0.38215086     3.3493334e-08 -1.7093091e-08  3.300689e-08   8.16           12.239988      16.32          1630.0139    
        12   0             -948.48         2.5074853      0.38215105     6.758154       0.38215091    -1.7557989e-08  3.390917e-09  -1.5096867e-08  8.16           12.239988      16.32          1630.0139    
        13   0             -948.48         2.5074854      0.38215111     6.7581541      0.38215095     6.2632109e-09 -7.2802143e-10  9.5401962e-09  8.16           12.239988      16.32          1630.0139    
        14   0             -948.48         2.5074854      0.38215112     6.7581541      0.38215098    -7.3742633e-09  6.7366728e-09 -3.601633e-09   8.16           12.239988      16.32          1630.0139    
        15   0             -948.48         2.5074854      0.38215115     6.7581541      0.38215104    -7.702658e-09  -8.5212559e-10  1.0253383e-09  8.16           12.239988      16.32          1630.0139    
        16   0             -948.48         2.5074855      0.38215116     6.7581541      0.38215107    -7.283733e-09   8.4492278e-10  8.010035e-10   8.16           12.239988      16.32          1630.0139    
        17   0             -948.48         2.5074855      0.38215117     6.7581541      0.38215109    -7.7700067e-09  3.8572143e-10  1.183219e-09   8.16           12.239988      16.32          1630.0139    
        18   0             -948.48         2.5074855      0.38215117     6.7581542      0.38215111    -5.9540713e-09  1.1006531e-09  2.602133e-10   8.16           12.239988      16.32          1630.0139    
        19   0             -948.48         2.5074855      0.38215117     6.7581542      0.38215111    -5.7312166e-09  1.2911029e-09  5.3032291e-10  8.16           12.239988      16.32          1630.0139    
        20   0             -948.48         2.5074855      0.38215117     6.7581542      0.38215112    -4.7668587e-09  5.3693532e-10  1.1424491e-10  8.16           12.239988      16.32          1630.0139    
        21   0             -948.48         2.5074855      0.38215117     6.7581542      0.38215113    -4.304331e-09   6.6953982e-10 -2.2421643e-11  8.16           12.239988      16.32          1630.0139    
        22   0             -948.48         2.5074855      0.38215117     6.7581542      0.38215113    -3.459938e-09   2.6383788e-11 -1.465709e-10   8.16           12.239988      16.32          1630.0139    
        23   0             -948.48         2.5074855      0.38215117     6.7581542      0.38215114    -2.9324976e-09  7.3443906e-11 -1.1358708e-10  8.16           12.239988      16.32          1630.0139    
        24   0             -948.48         2.5074855      0.38215117     6.7581542      0.38215114    -2.5683885e-09  1.7503417e-10  2.549753e-11   8.16           12.239988      16.32          1630.0139    
        25   0             -948.48         2.5074855      0.38215117     6.7581542      0.38215115    -2.1784613e-09  1.3386438e-10  9.8099078e-11  8.16           12.239988      16.32          1630.0139    
        26   0             -948.48         2.5074855      0.38215117     6.7581542      0.38215115    -1.8836921e-09  4.5969873e-11  5.3706443e-11  8.16           12.239988      16.32          1630.0139    
        27   0             -948.48         2.5074855      0.38215117     6.7581542      0.38215115    -1.1778074e-09 -8.5693366e-11  1.5962377e-11  8.16           12.239988      16.32          1630.0139    
        28   0             -948.48         2.5074855      0.38215117     6.7581542      0.38215116    -8.8812037e-10 -5.3951277e-11 -8.3476281e-13  8.16           12.239988      16.32          1630.0139    
        29   0             -948.48         2.5074855      0.38215117     6.7581542      0.38215116    -5.3093502e-10 -3.5136649e-13  1.7400654e-11  8.16           12.239988      16.32          1630.0139    
        30   0             -948.48         2.5074855      0.38215117     6.7581542      0.38215116    -4.2758553e-10  1.1680149e-11  2.9960885e-11  8.16           12.239988      16.32          1630.0139    
        31   0             -948.48         2.5074855      0.38215117     6.7581542      0.38215116    -3.287894e-10   1.5844525e-11  3.8092602e-11  8.16           12.239988      16.32          1630.0139    
        32   0             -948.48         2.5074855      0.38215117     6.7581542      0.38215116    -2.0027791e-10 -3.610634e-11  -5.4418806e-12  8.16           12.239988      16.32          1630.0139    
        33   0             -948.48         2.5074855      0.38215117     6.7581542      0.38215116    -1.6175347e-10 -1.6389126e-11  1.9004107e-11  8.16           12.239988      16.32          1630.0139    
        34   0             -948.48         2.5074855      0.38215117     6.7581542      0.38215116    -9.5311098e-11  2.1081574e-13  5.7297819e-12  8.16           12.239988      16.32          1630.0139    
        35   0             -948.48         2.5074855      0.38215117     6.7581542      0.38215116    -6.9164651e-11  2.2713904e-11  9.5770352e-12  8.16           12.239988      16.32          1630.0139    
        36   0             -948.48         2.5074855      0.38215117     6.7581542      0.38215117    -3.4992105e-11  1.5888402e-11  4.5655966e-12  8.16           12.239988      16.32          1630.0139    
        37   0             -948.48         2.5074855      0.38215117     6.7581542      0.38215117    -2.5799549e-11  1.3599952e-11  3.7627983e-12  8.16           12.239988      16.32          1630.0139    
        38   0             -948.48         2.5074855      0.38215117     6.7581542      0.38215117    -1.2879143e-11  8.7896255e-12 -2.0408253e-12  8.16           12.239988      16.32          1630.0139    
        39   0             -948.48         2.5074855      0.38215117     6.7581542      0.38215117    -4.4978943e-12  1.2088561e-11 -4.333951e-12   8.16           12.239988      16.32          1630.0139    
        40   0             -948.48         2.5074855      0.38215117     6.7581542      0.38215117    -8.7425882e-12  1.1436491e-11 -2.2599431e-12  8.16           12.239988      16.32          1630.0139    
        41   0             -948.48         2.5074855      0.38215117     6.7581542      0.38215117    -5.7068162e-12  4.8013613e-12  2.5755084e-12  8.16           12.239988      16.32          1630.0139    
        42   0             -948.48         2.5074855      0.38215117     6.7581542      0.38215117    -4.0656779e-12  6.4128138e-12  3.4356647e-12  8.16           12.239988      16.32          1630.0139    
        43   0             -948.48         2.5074855      0.38215117     6.7581542      0.38215117    -4.0214354e-12  1.0857465e-12  2.1800435e-12  8.16           12.239988      16.32          1630.0139    
        44   0             -948.48         2.5074855      0.38215117     6.7581542      0.38215117    -2.4547526e-12  7.3446173e-12  8.0103124e-14  8.16           12.239988      16.32          1630.0139    
        45   0             -948.48         2.5074855      0.38215117     6.7581542      0.38215117    -3.2388142e-13  3.8944028e-13 -6.2134328e-13  8.16           12.239988      16.32          1630.0139    
        46   0             -948.48         2.5074855      0.38215117     6.7581542      0.38215117    -2.2929171e-14 -4.4652026e-13 -9.4174833e-13  8.16           12.239988      16.32          1630.0139    
        47   0             -948.48         2.5074855      0.38215117     6.7581542      0.38215117    -6.7063876e-13 -2.1171013e-12 -3.216228e-12   8.16           12.239988      16.32          1630.0139    
        48   0             -948.48         2.5074855      0.38215117     6.7581542      0.38215117    -1.5654824e-12  4.4668477e-12  1.9326303e-12  8.16           12.239988      16.32          1630.0139    
        49   0             -948.48         2.5074855      0.38215117     6.7581542      0.38215117     9.7160096e-13  7.3763265e-13 -6.0211118e-13  8.16           12.239988      16.32          1630.0139    
        50   0             -948.48         2.5074855      0.38215117     6.7581542      0.38215117     1.9719044e-12  3.3901981e-12  8.9940171e-13  8.16           12.239988      16.32          1630.0139    
        51   0             -948.48         2.5074855      0.38215117     6.7581542      0.38215117     1.5656166e-12 -2.5615566e-12 -2.0102629e-12  8.16           12.239988      16.32          1630.0139    
        52   0             -948.48         2.5074855      0.38215117     6.7581542      0.38215117    -5.5482294e-13 -8.8121909e-13  2.888325e-13   8.16           12.239988      16.32          1630.0139    
        53   0             -948.48         2.5074855      0.38215117     6.7581542      0.38215117     9.5307025e-13 -1.7580035e-12 -2.2703716e-12  8.16           12.239988      16.32          1630.0139    
        54   0             -948.48         2.5074855      0.38215117     6.7581542      0.38215117    -1.5051641e-12  3.6904834e-12 -2.2503414e-12  8.16           12.239988      16.32          1630.0139    
        55   0             -948.48         2.5074855      0.38215117     6.7581542      0.38215117    -1.5184506e-12 -2.540258e-12   5.1360727e-12  8.16           12.239988      16.32          1630.0139    
        56   0             -948.48         2.5074855      0.38215117     6.7581542      0.38215117     2.1207944e-12 -2.5341021e-12 -2.6013324e-12  8.16           12.239988      16.32          1630.0139    
        57   0             -948.48         2.5074855      0.38215117     6.7581542      0.38215117    -1.1911289e-13  1.4039641e-12 -1.9816687e-12  8.16           12.239988      16.32          1630.0139    
        58   0             -948.48         2.5074855      0.38215117     6.7581542      0.38215117    -1.5755774e-12  1.8418998e-13 -3.9019419e-12  8.16           12.239988      16.32          1630.0139    
        59   0             -948.48         2.5074855      0.38215117     6.7581542      0.38215117     1.2097608e-13 -7.635443e-13   1.8686283e-13  8.16           12.239988      16.32          1630.0139    
        60   0             -948.48         2.5074855      0.38215117     6.7581542      0.38215117    -1.6564545e-12  1.5291139e-12 -4.065545e-12   8.16           12.239988      16.32          1630.0139    
        61   0             -948.48         2.5074855      0.38215117     6.7581542      0.38215117     1.7389418e-12  9.6567787e-13 -7.0933126e-13  8.16           12.239988      16.32          1630.0139    
        62   0             -948.48         2.5074855      0.38215117     6.7581542      0.38215117     1.4259634e-12 -4.0898729e-12  1.27567e-12    8.16           12.239988      16.32          1630.0139    
        63   0             -948.48         2.5074855      0.38215117     6.7581542      0.38215117     8.4794859e-13  4.5711617e-13 -3.3375349e-12  8.16           12.239988      16.32          1630.0139    
        64   0             -948.48         2.5074855      0.38215117     6.7581542      0.38215117     2.1099475e-12 -6.4658061e-12  3.0658058e-12  8.16           12.239988      16.32          1630.0139    
        65   0             -948.48         2.5074855      0.38215117     6.7581542      0.38215117     2.9392321e-12  3.1973497e-13 -5.1203454e-13  8.16           12.239988      16.32          1630.0139    
        66   0             -948.48         2.5074855      0.38215117     6.7581542      0.38215117     9.8503782e-13  2.7774064e-12  1.6169814e-12  8.16           12.239988      16.32          1630.0139    
        67   0             -948.48         2.5074855      0.38215117     6.7581542      0.38215117     4.6538956e-13 -1.4174636e-12  8.4989032e-13  8.16           12.239988      16.32          1630.0139    
        68   0             -948.48         2.5074855      0.38215117     6.7581542      0.38215117    -2.2610468e-13  2.4637455e-12 -3.6064247e-12  8.16           12.239988      16.32          1630.0139    
        69   0             -948.48         2.5074855      0.38215117     6.7581542      0.38215117     4.7367142e-13  2.2064417e-13  2.2244384e-12  8.16           12.239988      16.32          1630.0139    
        70   0             -948.48         2.5074855      0.38215117     6.7581542      0.38215117    -1.0033618e-12  1.7543896e-12  2.3234243e-12  8.16           12.239988      16.32          1630.0139    
        71   0             -948.48         2.5074855      0.38215117     6.7581542      0.38215117    -7.1633765e-13 -2.2573266e-12 -6.5113152e-13  8.16           12.239988      16.32          1630.0139    
        72   0             -948.48         2.5074855      0.38215117     6.7581542      0.38215117     2.6909002e-13  1.0592079e-12  3.7219404e-12  8.16           12.239988      16.32          1630.0139    
        73   0             -948.48         2.5074855      0.38215117     6.7581542      0.38215117    -2.2339608e-12 -4.3632677e-12 -4.1315619e-12  8.16           12.239988      16.32          1630.0139    
        74   0             -948.48         2.5074855      0.38215117     6.7581542      0.38215117    -9.1889594e-13 -1.7876596e-12  1.4150203e-12  8.16           12.239988      16.32          1630.0139    
[...]
        40   0             -948.48        -6.7164044e-07  3.5421668e-07 -2.2574868e-06 -1.1165118e-07 -0.28863839     6.8136578e-12  1.1032932e-13  8.16           12.24          16.32          1630.0155    
        41   0             -948.48        -6.7157616e-07  3.5427189e-07 -2.2573076e-06 -1.116928e-07  -0.28863839     6.9477653e-12  1.0541364e-12  8.16           12.24          16.32          1630.0155    
        42   0             -948.48        -6.7156037e-07  3.542506e-07  -2.2572573e-06 -1.1167442e-07 -0.28863839     8.8829956e-12  4.1255106e-12  8.16           12.24          16.32          1630.0155    
        43   0             -948.48        -6.7166328e-07  3.542589e-07  -2.2573841e-06 -1.1186466e-07 -0.28863839     1.0556864e-11 -2.4008544e-12  8.16           12.24          16.32          1630.0155    
        44   0             -948.48        -6.7153632e-07  3.5435076e-07 -2.2572462e-06 -1.1171352e-07 -0.28863839     1.1485575e-11  2.3322177e-12  8.16           12.24          16.32          1630.0155    
        45   0             -948.48        -6.7158978e-07  3.542263e-07  -2.257344e-06  -1.1165159e-07 -0.28863839     3.6640386e-12  7.1474491e-13  8.16           12.24          16.32          1630.0155    
        46   0             -948.48        -6.7159825e-07  3.5425024e-07 -2.2573029e-06 -1.1174212e-07 -0.28863839     5.7002473e-12 -1.3906242e-12  8.16           12.24          16.32          1630.0155    
        47   0             -948.48        -6.71578e-07    3.5421355e-07 -2.2572954e-06 -1.1165217e-07 -0.28863839    -1.1590832e-13  2.2860377e-12  8.16           12.24          16.32          1630.0155    
        48   0             -948.48        -6.7160674e-07  3.5424131e-07 -2.2573722e-06 -1.1168934e-07 -0.28863839    -2.0198315e-12 -3.0729896e-12  8.16           12.24          16.32          1630.0155    
        49   0             -948.48        -6.7165836e-07  3.5423587e-07 -2.2574101e-06 -1.118009e-07  -0.28863839    -1.7333192e-12 -9.5833425e-14  8.16           12.24          16.32          1630.0155    
        50   0             -948.48        -6.7156532e-07  3.5426616e-07 -2.2572191e-06 -1.1174305e-07 -0.28863839     1.0999215e-12  1.4662294e-12  8.16           12.24          16.32          1630.0155    
        51   0             -948.48        -6.7157631e-07  3.5432101e-07 -2.2573918e-06 -1.116581e-07  -0.28863839    -1.4881305e-12  4.3829482e-12  8.16           12.24          16.32          1630.0155    
        52   0             -948.48        -6.7157467e-07  3.5432062e-07 -2.2573198e-06 -1.1172483e-07 -0.28863839     4.4950296e-13 -2.4479868e-12  8.16           12.24          16.32          1630.0155    
        53   0             -948.48        -6.7152749e-07  3.5432269e-07 -2.2573295e-06 -1.1157566e-07 -0.28863839    -1.223701e-12   7.2495469e-13  8.16           12.24          16.32          1630.0155    
        54   0             -948.48        -6.7154636e-07  3.542958e-07  -2.2571952e-06 -1.1173971e-07 -0.28863839    -2.2893185e-12  9.3679985e-13  8.16           12.24          16.32          1630.0155    
        55   0             -948.48        -6.7159521e-07  3.5427605e-07 -2.2573632e-06 -1.116985e-07  -0.28863839     2.6748182e-12  1.3721593e-12  8.16           12.24          16.32          1630.0155    
        56   0             -948.48        -6.7167045e-07  3.5420482e-07 -2.2573763e-06 -1.1183986e-07 -0.28863839     6.3814418e-13  4.2677405e-13  8.16           12.24          16.32          1630.0155    
        57   0             -948.48        -6.7165218e-07  3.5424468e-07 -2.2573574e-06 -1.1184385e-07 -0.28863839     2.0760859e-12  4.2986539e-12  8.16           12.24          16.32          1630.0155    
        58   0             -948.48        -6.7160676e-07  3.542438e-07  -2.2573451e-06 -1.1171896e-07 -0.28863839    -2.4652326e-13  3.5354833e-13  8.16           12.24          16.32          1630.0155    
        59   0             -948.48        -6.7169692e-07  3.5417256e-07 -2.2574644e-06 -1.1179888e-07 -0.28863839    -2.7124826e-12 -1.2636063e-12  8.16           12.24          16.32          1630.0155    
        60   0             -948.48        -6.7158606e-07  3.5418548e-07 -2.2573019e-06 -1.1164172e-07 -0.28863839    -3.6328969e-12  6.2732953e-13  8.16           12.24          16.32          1630.0155    
        61   0             -948.48        -6.7158813e-07  3.5426139e-07 -2.2572899e-06 -1.1173588e-07 -0.28863839    -2.8993765e-12 -3.4795195e-12  8.16           12.24          16.32          1630.0155    
        62   0             -948.48        -6.7166731e-07  3.5425583e-07 -2.2573327e-06 -1.1192511e-07 -0.28863839    -1.5738153e-12 -3.0357471e-12  8.16           12.24          16.32          1630.0155    
        63   0             -948.48        -6.7159288e-07  3.5429924e-07 -2.2573042e-06 -1.1177373e-07 -0.28863839     1.3981042e-12 -1.0648355e-12  8.16           12.24          16.32          1630.0155    
        64   0             -948.48        -6.7164238e-07  3.5432796e-07 -2.2573934e-06 -1.1186166e-07 -0.28863839    -1.0731938e-12 -2.669081e-12   8.16           12.24          16.32          1630.0155    
        65   0             -948.48        -6.7157567e-07  3.5429657e-07 -2.2573433e-06 -1.1168023e-07 -0.28863839    -5.8891658e-13 -1.8404066e-12  8.16           12.24          16.32          1630.0155    
        66   0             -948.48        -6.7159719e-07  3.5427364e-07 -2.2573242e-06 -1.11741e-07   -0.28863839     1.2108126e-12  7.8086466e-13  8.16           12.24          16.32          1630.0155    
        67   0             -948.48        -6.7162895e-07  3.5426318e-07 -2.2574609e-06 -1.1168913e-07 -0.28863839    -4.0938055e-13  1.0550068e-12  8.16           12.24          16.32          1630.0155    
        68   0             -948.48        -6.7168586e-07  3.5420151e-07 -2.2575359e-06 -1.1172319e-07 -0.28863839    -5.7481355e-12  1.9133845e-12  8.16           12.24          16.32          1630.0155    
        69   0             -948.48        -6.7167429e-07  3.542654e-07  -2.2574388e-06 -1.1184942e-07 -0.28863839     1.6835852e-12  3.3901863e-12  8.16           12.24          16.32          1630.0155    
        70   0             -948.48        -6.7157121e-07  3.5434287e-07 -2.2574008e-06 -1.1165574e-07 -0.28863839     2.6917088e-12  3.9794857e-12  8.16           12.24          16.32          1630.0155    
        71   0             -948.48        -6.7174278e-07  3.5425806e-07 -2.2576336e-06 -1.1185276e-07 -0.28863839     1.4096114e-12  1.1907629e-12  8.16           12.24          16.32          1630.0155    
        72   0             -948.48        -6.7172467e-07  3.5414207e-07 -2.2575522e-06 -1.1176393e-07 -0.28863839    -2.2859362e-12  1.8517611e-13  8.16           12.24          16.32          1630.0155    
        73   0             -948.48        -6.717683e-07   3.5419105e-07 -2.2576777e-06 -1.1181825e-07 -0.28863839     2.9286541e-12  2.1299385e-12  8.16           12.24          16.32          1630.0155    
        74   0             -948.48        -6.7182522e-07  3.5419951e-07 -2.2578834e-06 -1.1179176e-07 -0.28863839     5.3280873e-13  3.5042027e-12  8.16           12.24          16.32          1630.0155    
        75   0             -948.48        -6.7173165e-07  3.5424848e-07 -2.2578369e-06 -1.1160654e-07 -0.28863839     5.4576089e-13 -2.7633166e-12  8.16           12.24          16.32          1630.0155    
        76   0             -948.48        -6.7173298e-07  3.5435556e-07 -2.2577369e-06 -1.1181758e-07 -0.28863839     1.170193e-12  -5.071154e-13   8.16           12.24          16.32          1630.0155    
Loop time of 0.039048 on 4 procs for 74 steps with 192 atoms

30.0% CPU use with 4 MPI tasks x 1 OpenMP threads

Minimization stats:
  Stopping criterion = force tolerance
  Energy initial, next-to-last, final = 
     -948.479999841655  -948.480000030621  -948.480000030621
  Force two-norm initial, final = 0.0033443163 8.4673627e-11
  Force max component initial, final = 0.00034910884 1.0238994e-11
  Final line search alpha, max atom move = 1 1.0238994e-11
  Iterations, force evaluations = 74 148

MPI task timing breakdown:
Section |  min time  |  avg time  |  max time  |%varavg| %total
---------------------------------------------------------------
Pair    | 0.034184   | 0.034345   | 0.034526   |   0.1 | 87.96
Neigh   | 0          | 0          | 0          |   0.0 |  0.00
Comm    | 0.002803   | 0.0029737  | 0.003129   |   0.3 |  7.62
Output  | 0.000786   | 0.00083675 | 0.000949   |   0.0 |  2.14
Modify  | 0          | 0          | 0          |   0.0 |  0.00
Other   |            | 0.0008922  |            |       |  2.29

Nlocal:             48 ave          50 max          46 min
Histogram: 1 0 1 0 0 0 0 1 0 1
Nghost:            600 ave         602 max         598 min
Histogram: 1 0 1 0 0 0 0 1 0 1
Neighs:           2208 ave        2297 max        2119 min
Histogram: 1 0 1 0 0 0 0 1 0 1
FullNghs:         4416 ave        4600 max        4232 min
Histogram: 1 0 1 0 0 0 0 1 0 1

Total # of neighbors = 17664
Ave neighs/atom = 92
Neighbor list builds = 0
Dangerous builds = 0

# Obtain new stress tensor

variable tmp equal pe
variable e1 equal ${tmp}
variable e1 equal -948.480000030621
variable tmp equal press
variable p1 equal ${tmp}
variable p1 equal -6.71732982569027e-07
variable tmp equal pxx
variable pxx1 equal ${tmp}
variable pxx1 equal 3.54355562020076e-07
variable tmp equal pyy
variable pyy1 equal ${tmp}
variable pyy1 equal -2.2577369278912e-06
variable tmp equal pzz
variable pzz1 equal ${tmp}
variable pzz1 equal -1.11817581835956e-07
variable tmp equal pxy
variable pxy1 equal ${tmp}
variable pxy1 equal -0.288638387384648
variable tmp equal pxz
variable pxz1 equal ${tmp}
variable pxz1 equal 1.17019304466907e-12
variable tmp equal pyz
variable pyz1 equal ${tmp}
variable pyz1 equal -5.07115398783745e-13

# Compute elastic constant from pressure tensor

variable C1pos equal ${d1}
variable C1pos equal -3.5456971991762e-05
variable C2pos equal ${d2}
variable C2pos equal 0.000225693862204859
variable C3pos equal ${d3}
variable C3pos equal 1.11585837167199e-05
variable C4pos equal ${d4}
variable C4pos equal 5.07115398784514e-11
variable C5pos equal ${d5}
variable C5pos equal -1.17019304466994e-10
variable C6pos equal ${d6}
variable C6pos equal 28.8638387384648

# Combine positive and negative

variable C1${dir} equal 0.5*(${C1neg}+${C1pos})
variable C16 equal 0.5*(${C1neg}+${C1pos})
variable C16 equal 0.5*(3.5454990696581e-05+${C1pos})
variable C16 equal 0.5*(3.5454990696581e-05+-3.5456971991762e-05)
variable C2${dir} equal 0.5*(${C2neg}+${C2pos})
variable C26 equal 0.5*(${C2neg}+${C2pos})
variable C26 equal 0.5*(-0.000225696043857842+${C2pos})
variable C26 equal 0.5*(-0.000225696043857842+0.000225693862204859)
variable C3${dir} equal 0.5*(${C3neg}+${C3pos})
variable C36 equal 0.5*(${C3neg}+${C3pos})
variable C36 equal 0.5*(-1.11518606725351e-05+${C3pos})
variable C36 equal 0.5*(-1.11518606725351e-05+1.11585837167199e-05)
variable C4${dir} equal 0.5*(${C4neg}+${C4pos})
variable C46 equal 0.5*(${C4neg}+${C4pos})
variable C46 equal 0.5*(3.07694419855299e-10+${C4pos})
variable C46 equal 0.5*(3.07694419855299e-10+5.07115398784514e-11)
variable C5${dir} equal 0.5*(${C5neg}+${C5pos})
variable C56 equal 0.5*(${C5neg}+${C5pos})
variable C56 equal 0.5*(1.62849706716692e-10+${C5pos})
variable C56 equal 0.5*(1.62849706716692e-10+-1.17019304466994e-10)
variable C6${dir} equal 0.5*(${C6neg}+${C6pos})
variable C66 equal 0.5*(${C6neg}+${C6pos})
variable C66 equal 0.5*(28.8638387384828+${C6pos})
variable C66 equal 0.5*(28.8638387384828+28.8638387384648)

# Delete dir to make sure it is not reused

variable dir delete

# Output final values

variable C11all equal ${C11}
variable C11all equal 675.810640553087
variable C22all equal ${C22}
variable C22all equal 675.810640562771
variable C33all equal ${C33}
variable C33all equal 675.810640561135

variable C12all equal 0.5*(${C12}+${C21})
variable C12all equal 0.5*(38.2151770958306+${C21})
variable C12all equal 0.5*(38.2151770958306+38.2151770980679)
variable C13all equal 0.5*(${C13}+${C31})
variable C13all equal 0.5*(38.2151771009175+${C31})
variable C13all equal 0.5*(38.2151771009175+38.2151770984353)
variable C23all equal 0.5*(${C23}+${C32})
variable C23all equal 0.5*(38.2151770998154+${C32})
variable C23all equal 0.5*(38.2151770998154+38.2151770988471)

variable C44all equal ${C44}
variable C44all equal 28.8638387393743
variable C55all equal ${C55}
variable C55all equal 28.8638387387099
variable C66all equal ${C66}
variable C66all equal 28.8638387384738

variable C14all equal 0.5*(${C14}+${C41})
variable C14all equal 0.5*(5.76578954935031e-09+${C41})
variable C14all equal 0.5*(5.76578954935031e-09+2.84935553869913e-10)
variable C15all equal 0.5*(${C15}+${C51})
variable C15all equal 0.5*(6.96792987474969e-09+${C51})
variable C15all equal 0.5*(6.96792987474969e-09+1.36756390106345e-10)
variable C16all equal 0.5*(${C16}+${C61})
variable C16all equal 0.5*(-9.90647590499836e-10+${C61})
variable C16all equal 0.5*(-9.90647590499836e-10+-7.41198993159572e-11)

variable C24all equal 0.5*(${C24}+${C42})
variable C24all equal 0.5*(1.21994244467498e-08+${C42})
variable C24all equal 0.5*(1.21994244467498e-08+-2.76509194869091e-10)
variable C25all equal 0.5*(${C25}+${C52})
variable C25all equal 0.5*(-1.73641538544995e-09+${C52})
variable C25all equal 0.5*(-1.73641538544995e-09+-4.71599493850102e-10)
variable C26all equal 0.5*(${C26}+${C62})
variable C26all equal 0.5*(-1.09082649149875e-09+${C62})
variable C26all equal 0.5*(-1.09082649149875e-09+-6.20450925852959e-11)

variable C34all equal 0.5*(${C34}+${C43})
variable C34all equal 0.5*(-2.25956590450046e-09+${C43})
variable C34all equal 0.5*(-2.25956590450046e-09+-1.1181143461897e-10)
variable C35all equal 0.5*(${C35}+${C53})
variable C35all equal 0.5*(2.78273360490534e-10+${C53})
variable C35all equal 0.5*(2.78273360490534e-10+-1.92600503128791e-10)
variable C36all equal 0.5*(${C36}+${C63})
variable C36all equal 0.5*(3.36152209240009e-09+${C63})
variable C36all equal 0.5*(3.36152209240009e-09+-8.56945860752932e-11)

variable C45all equal 0.5*(${C45}+${C54})
variable C45all equal 0.5*(-2.44338842400119e-10+${C54})
variable C45all equal 0.5*(-2.44338842400119e-10+2.22847796983335e-10)
variable C46all equal 0.5*(${C46}+${C64})
variable C46all equal 0.5*(1.79202979866875e-10+${C64})
variable C46all equal 0.5*(1.79202979866875e-10+-6.6947038708726e-11)
variable C56all equal 0.5*(${C56}+${C65})
variable C56all equal 0.5*(2.2915201124849e-11+${C65})
variable C56all equal 0.5*(2.2915201124849e-11+4.29495015067008e-11)

# Average moduli for cubic crystals

variable C11cubic equal (${C11all}+${C22all}+${C33all})/3.0
variable C11cubic equal (675.810640553087+${C22all}+${C33all})/3.0
variable C11cubic equal (675.810640553087+675.810640562771+${C33all})/3.0
variable C11cubic equal (675.810640553087+675.810640562771+675.810640561135)/3.0
variable C12cubic equal (${C12all}+${C13all}+${C23all})/3.0
variable C12cubic equal (38.2151770969492+${C13all}+${C23all})/3.0
variable C12cubic equal (38.2151770969492+38.2151770996764+${C23all})/3.0
variable C12cubic equal (38.2151770969492+38.2151770996764+38.2151770993312)/3.0
variable C44cubic equal (${C44all}+${C55all}+${C66all})/3.0
variable C44cubic equal (28.8638387393743+${C55all}+${C66all})/3.0
variable C44cubic equal (28.8638387393743+28.8638387387099+${C66all})/3.0
variable C44cubic equal (28.8638387393743+28.8638387387099+28.8638387384738)/3.0

variable bulkmodulus equal (${C11cubic}+2*${C12cubic})/3.0
variable bulkmodulus equal (675.810640558998+2*${C12cubic})/3.0
variable bulkmodulus equal (675.810640558998+2*38.2151770986523)/3.0
variable shearmodulus1 equal ${C44cubic}
variable shearmodulus1 equal 28.8638387388527
variable shearmodulus2 equal (${C11cubic}-${C12cubic})/2.0
variable shearmodulus2 equal (675.810640558998-${C12cubic})/2.0
variable shearmodulus2 equal (675.810640558998-38.2151770986523)/2.0
variable poissonratio equal 1.0/(1.0+${C11cubic}/${C12cubic})
variable poissonratio equal 1.0/(1.0+675.810640558998/${C12cubic})
variable poissonratio equal 1.0/(1.0+675.810640558998/38.2151770986523)

# For Stillinger-Weber silicon, the analytical results
# are known to be (E. R. Cowley, 1988):
#               C11 = 151.4 GPa
#               C12 = 76.4 GPa
#               C44 = 56.4 GPa

print "========================================="
=========================================
print "Components of the Elastic Constant Tensor"
Components of the Elastic Constant Tensor
print "========================================="
=========================================

print "Elastic Constant C11all = ${C11all} ${cunits}"
Elastic Constant C11all = 675.810640553087 GPa
print "Elastic Constant C22all = ${C22all} ${cunits}"
Elastic Constant C22all = 675.810640562771 GPa
print "Elastic Constant C33all = ${C33all} ${cunits}"
Elastic Constant C33all = 675.810640561135 GPa

print "Elastic Constant C12all = ${C12all} ${cunits}"
Elastic Constant C12all = 38.2151770969492 GPa
print "Elastic Constant C13all = ${C13all} ${cunits}"
Elastic Constant C13all = 38.2151770996764 GPa
print "Elastic Constant C23all = ${C23all} ${cunits}"
Elastic Constant C23all = 38.2151770993312 GPa

print "Elastic Constant C44all = ${C44all} ${cunits}"
Elastic Constant C44all = 28.8638387393743 GPa
print "Elastic Constant C55all = ${C55all} ${cunits}"
Elastic Constant C55all = 28.8638387387099 GPa
print "Elastic Constant C66all = ${C66all} ${cunits}"
Elastic Constant C66all = 28.8638387384738 GPa

print "Elastic Constant C14all = ${C14all} ${cunits}"
Elastic Constant C14all = 3.02536255161011e-09 GPa
print "Elastic Constant C15all = ${C15all} ${cunits}"
Elastic Constant C15all = 3.55234313242802e-09 GPa
print "Elastic Constant C16all = ${C16all} ${cunits}"
Elastic Constant C16all = -5.32383744907897e-10 GPa

print "Elastic Constant C24all = ${C24all} ${cunits}"
Elastic Constant C24all = 5.96145762594035e-09 GPa
print "Elastic Constant C25all = ${C25all} ${cunits}"
Elastic Constant C25all = -1.10400743965003e-09 GPa
print "Elastic Constant C26all = ${C26all} ${cunits}"
Elastic Constant C26all = -5.76435792042023e-10 GPa

print "Elastic Constant C34all = ${C34all} ${cunits}"
Elastic Constant C34all = -1.18568866955972e-09 GPa
print "Elastic Constant C35all = ${C35all} ${cunits}"
Elastic Constant C35all = 4.28364286808715e-11 GPa
print "Elastic Constant C36all = ${C36all} ${cunits}"
Elastic Constant C36all = 1.6379137531624e-09 GPa

print "Elastic Constant C45all = ${C45all} ${cunits}"
Elastic Constant C45all = -1.0745522708392e-11 GPa
print "Elastic Constant C46all = ${C46all} ${cunits}"
Elastic Constant C46all = 5.61279705790745e-11 GPa
print "Elastic Constant C56all = ${C56all} ${cunits}"
Elastic Constant C56all = 3.29323513157749e-11 GPa

print "========================================="
=========================================
print "Average properties for a cubic crystal"
Average properties for a cubic crystal
print "========================================="
=========================================

print "Bulk Modulus = ${bulkmodulus} ${cunits}"
Bulk Modulus = 250.746998252101 GPa
print "Shear Modulus 1 = ${shearmodulus1} ${cunits}"
Shear Modulus 1 = 28.8638387388527 GPa
print "Shear Modulus 2 = ${shearmodulus2} ${cunits}"
Shear Modulus 2 = 318.797731730173 GPa
print "Poisson Ratio = ${poissonratio}"
Poisson Ratio = 0.053520721735268
Total wall time: 0:00:00
