LAMMPS data file via write_data, version 22 Dec 2022, timestep = 590

8 atoms
2 atom types

-0.9038744639633014 4.003874463963254 xlo xhi
-0.9038744639633014 4.003874463963254 ylo yhi
-0.9038744639633014 4.003874463963254 zlo zhi

Masses

1 47.867
2 50.942

Atoms # atomic

6 2 1.549999999999972 1.549999999999972 1.549999999999972 0 0 0
4 1 1.5499999999999734 1.5499999999999734 4.003874463963249 0 0 -1
3 1 1.5499999999999734 4.003874463963249 1.5499999999999734 0 -1 0
5 2 1.549999999999972 4.003874463963252 4.003874463963252 0 -1 -1
2 1 4.003874463963249 1.5499999999999734 1.5499999999999734 -1 0 0
8 2 4.003874463963252 1.549999999999972 4.003874463963252 -1 0 -1
7 2 4.003874463963252 4.003874463963252 1.549999999999972 -1 -1 0
1 1 4.003874463963249 4.003874463963249 4.003874463963249 -1 -1 -1

Velocities

6 0 0 0
4 0 0 0
3 0 0 0
5 0 0 0
2 0 0 0
8 0 0 0
7 0 0 0
1 0 0 0
