LAMMPS data file via write_data, version 22 Dec 2022, timestep = 25

2 atoms
2 atom types

0.0029085380287028166 3.057091461971298 xlo xhi
0.0029085380287028166 3.057091461971298 ylo yhi
0.0029085380287028166 3.057091461971298 zlo zhi

Masses

1 47.867
2 50.942

Atoms # atomic

2 2 1.5131680585524951 1.5131680585524951 1.5131680585524951 0 0 0
1 1 3.0402595205237923 3.0402595205237923 3.0402595205237923 -1 -1 -1

Velocities

2 0 0 0
1 0 0 0
