LAMMPS data file via write_data, version 22 Dec 2022, timestep = 13

2 atoms
2 atom types

0.0029085380092338507 3.057091461990767 xlo xhi
0.0029085380092338507 3.057091461990767 ylo yhi
0.0029085380092338507 3.057091461990767 zlo zhi

Masses

1 47.867
2 50.942

Atoms # atomic

2 2 1.5131680585522564 1.5131680585522564 1.5131680585522567 0 0 0
1 1 3.040259520543069 3.04025952054307 3.040259520543069 -1 -1 -1

Velocities

2 0 0 0
1 0 0 0
