LAMMPS data file via write_data, version 22 Dec 2022, timestep = 16

2 atoms
2 atom types

-0.017091461990765486 3.037091461990767 xlo xhi
-0.017091461990765486 3.037091461990767 ylo yhi
-0.017091461990765486 3.037091461990767 zlo zhi

Masses

1 47.867
2 50.942

Atoms # atomic

1 1 -0.017091461990765475 -0.017091461990765482 -0.01709146199076548 0 0 0
2 2 1.510000000000001 1.510000000000001 1.510000000000001 0 0 0

Velocities

1 0 0 0
2 0 0 0
