LAMMPS (22 Dec 2022)
  using 1 OpenMP thread(s) per MPI task
Loaded 1 plugins from C:\Program Files\LAMMPS 64-bit 23Jun2022\plugins
Loaded 0 plugins from C:\Program Files\LAMMPS 64-bit 23Jun2022-MPI\plugins
Loaded 1 plugins from C:\Program Files\LAMMPS 64-bit 22Dec2022-MSMPI\plugins
Loaded 1 plugins from C:\Program Files\LAMMPS 64-bit 28Mar2023-MPI\plugins
# Compute elastic constant tensor for a crystal
#
# Written by Aidan Thompson (Sandia, athomps@sandia.gov)
#
#  This script uses the following three include files.
#
#   init.mod      (must be modified for different crystal structures)
# 	       	  Define units, deformation parameters and initial
#		  configuration of the atoms and simulation cell.
#
#
#   potential.mod    (must be modified for different pair styles)
# 		     Define pair style and other attributes
#		     not stored in restart file
#
#
#   displace.mod    (displace.mod should not need to be modified)
# 		    Perform positive and negative box displacements
# 		    in direction ${dir} and size ${up}.
# 		    It uses the resultant changes
#		    in stress to compute one
# 		    row of the elastic stiffness tensor
#
#		    Inputs variables:
#		    	   dir = the Voigt deformation component
#		    		    (1,2,3,4,5,6)
#		    Global constants:
#       	    	   up = the deformation magnitude (strain units)
#       		   cfac = conversion from LAMMPS pressure units to
#               	   output units for elastic constants
#
#
#  To run this on a different system, it should only be necessary to
#  modify the files init.mod and potential.mod. In order to calculate
#  the elastic constants correctly, care must be taken to specify
#  the correct units in init.mod (units, cfac and cunits). It is also
#  important to verify that the minimization of energy w.r.t atom
#  positions in the deformed cell is fully converged.
#  One indication of this is that the elastic constants are insensitive
#  to the choice of the variable ${up} in init.mod. Another is to check
#  the final max and two-norm forces reported in the log file. If you know
#  that minimization is not required, you can set maxiter = 0.0 in
#  init.mod.
#

include init.mod
# NOTE: This script can be modified for different atomic structures,
# units, etc. See in.elastic for more info.
#

# Define the finite deformation size. Try several values of this
# variable to verify that results do not depend on it.
variable up equal 1.0e-6

# Define the amount of random jiggle for atoms
# This prevents atoms from staying on saddle points
variable atomjiggle equal 1.0e-5

# Uncomment one of these blocks, depending on what units
# you are using in LAMMPS and for output

# metal units, elastic constants in eV/A^3
#units		metal
#variable cfac equal 6.2414e-7
#variable cunits string eV/A^3

# metal units, elastic constants in GPa
units		metal
variable cfac equal 1.0e-4
variable cunits string GPa

# real units, elastic constants in GPa
#units		real
#variable cfac equal 1.01325e-4
#variable cunits string GPa

# Define minimization parameters
variable etol equal 0.0
variable ftol equal 1.0e-10
variable maxiter equal 100
variable maxeval equal 1000
variable dmax equal 1.0e-2

# generate the box and atom positions using a diamond lattice

dimension    3
boundary     p p p
read_data    data.in
Reading data file ...
  orthogonal box = (-0.017091462 -0.017091462 -0.017091462) to (3.0370915 3.0370915 3.0370915)
  1 by 2 by 2 MPI processor grid
  reading atoms ...
  2 atoms
  reading velocities ...
  2 velocities
  read_data CPU = 0.001 seconds
#replicate    2 3 4
replicate    2 3 4
Replication is creating a 2x3x4 = 24 times larger system...
  orthogonal box = (-0.017091462 -0.017091462 -0.017091462) to (6.0912744 9.1454573 12.19964)
  1 by 2 by 2 MPI processor grid
  48 atoms
  replicate CPU = 0.000 seconds
change_box   all triclinic
Changing box ...
  triclinic box = (-0.017091462 -0.017091462 -0.017091462) to (6.0912744 9.1454573 12.19964) with tilt (0 0 0)

# Need to set mass to something, just to satisfy LAMMPS
mass 1 1.0e-20

include potential.mod
# NOTE: This script can be modified for different pair styles
# See in.elastic for more info.

# Choose potential
#-----------------------
#pair_style	sw
#pair_coeff * * Si.sw Si
#-----------------------
#pair_style morse	2.83994742	# D0[eV] a[1/A] r0[A] rc[A], 1NN for BCC
#pair_coeff 1 1	2.1173	1.0202	2.4595	2.6497	#	Fe-Fe
#-----------------------
#pair_style smatb # R0(A)   p       q     A(eV)   xi(eV)  Rcs(A)   Rc(A), 4NN: Rcs=4NN, Rc=(4NN+5NN)/2
#pair_coeff 1 1	2.4802	7.0149	2.3779	0.3144	3.0551	4.033	4.176	#	Co	Co
#-----------------------
#pair_style eam/alloy
#pair_coeff * * AlCrFeCoNi_Zhou04.eam.alloy Fe
#-----------------------
pair_style meam
pair_coeff * * ./../../library.meam Ti V N ./../../TiVN.meam Ti V
#-----------------------

# Setup neighbor style
neighbor 1.0 nsq
neigh_modify once no every 1 delay 0 check yes

# Setup minimization style
min_style	     cg
min_modify	     dmax ${dmax} line quadratic
min_modify	     dmax 0.01 line quadratic

# Setup output
thermo		1
thermo_style custom step temp pe press pxx pyy pzz pxy pxz pyz lx ly lz vol
thermo_modify norm no

# Compute initial state
fix 3 all box/relax  aniso 0.0
minimize ${etol} ${ftol} ${maxiter} ${maxeval}
minimize 0 ${ftol} ${maxiter} ${maxeval}
minimize 0 1e-10 ${maxiter} ${maxeval}
minimize 0 1e-10 100 ${maxeval}
minimize 0 1e-10 100 1000
Neighbor list info ...
  update: every = 1 steps, delay = 0 steps, check = yes
  max neighbors/atom: 2000, page size: 100000
  master list distance cutoff = 6
  ghost atom cutoff = 6
  2 neighbor lists, perpetual/occasional/extra = 2 0 0
  (1) pair meam, perpetual
      attributes: full, newton on
      pair build: full/nsq
      stencil: none
      bin: none
  (2) pair meam, perpetual, half/full from (1)
      attributes: half, newton on
      pair build: halffull/newton
      stencil: none
      bin: none
Per MPI rank memory allocation (min/avg/max) = 9.781 | 9.781 | 9.781 Mbytes
   Step          Temp          PotEng         Press           Pxx            Pyy            Pzz            Pxy            Pxz            Pyz             Lx             Ly             Lz           Volume    
         0   0             -249.984        3.9907045e-10  9.4954833e-11  2.8148255e-10  8.2077397e-10 -9.2604406e-12  1.0958828e-11  4.6404297e-11  6.1083658      9.1625488      12.216732      683.74848    
         1   0             -249.984        1.8089113e-10  3.6707197e-10  5.0052904e-10 -3.2492764e-10  3.1645914e-11 -2.1137206e-12  3.1087952e-11  6.1083658      9.1625488      12.216732      683.74848    
Loop time of 0.000471 on 4 procs for 1 steps with 48 atoms

0.0% CPU use with 4 MPI tasks x 1 OpenMP threads

Minimization stats:
  Stopping criterion = force tolerance
  Energy initial, next-to-last, final = 
     -249.984000001067  -249.984000001067  -249.984000001067
  Force two-norm initial, final = 3.7859519e-13 3.1412111e-13
  Force max component initial, final = 3.5027536e-13 2.1360691e-13
  Final line search alpha, max atom move = 1 2.1360691e-13
  Iterations, force evaluations = 1 2

MPI task timing breakdown:
Section |  min time  |  avg time  |  max time  |%varavg| %total
---------------------------------------------------------------
Pair    | 0.000331   | 0.00033725 | 0.000344   |   0.0 | 71.60
Neigh   | 0          | 0          | 0          |   0.0 |  0.00
Comm    | 3.6e-05    | 4.3e-05    | 4.9e-05    |   0.0 |  9.13
Output  | 0          | 0          | 0          |   0.0 |  0.00
Modify  | 0          | 0          | 0          |   0.0 |  0.00
Other   |            | 9.075e-05  |            |       | 19.27

Nlocal:             12 ave          12 max          12 min
Histogram: 4 0 0 0 0 0 0 0 0 0
Nghost:            293 ave         293 max         293 min
Histogram: 4 0 0 0 0 0 0 0 0 0
Neighs:            348 ave         348 max         348 min
Histogram: 4 0 0 0 0 0 0 0 0 0
FullNghs:          696 ave         696 max         696 min
Histogram: 4 0 0 0 0 0 0 0 0 0

Total # of neighbors = 2784
Ave neighs/atom = 58
Neighbor list builds = 0
Dangerous builds = 0

variable tmp equal pxx
variable pxx0 equal ${tmp}
variable pxx0 equal 3.67071972250531e-10
variable tmp equal pyy
variable pyy0 equal ${tmp}
variable pyy0 equal 5.00529039411779e-10
variable tmp equal pzz
variable pzz0 equal ${tmp}
variable pzz0 equal -3.24927635252241e-10
variable tmp equal pyz
variable pyz0 equal ${tmp}
variable pyz0 equal 3.10879522919478e-11
variable tmp equal pxz
variable pxz0 equal ${tmp}
variable pxz0 equal -2.11372060562407e-12
variable tmp equal pxy
variable pxy0 equal ${tmp}
variable pxy0 equal 3.16459139556238e-11

variable tmp equal lx
variable lx0 equal ${tmp}
variable lx0 equal 6.10836584796307
variable tmp equal ly
variable ly0 equal ${tmp}
variable ly0 equal 9.1625487719446
variable tmp equal lz
variable lz0 equal ${tmp}
variable lz0 equal 12.2167316959261

# These formulas define the derivatives w.r.t. strain components
# Constants uses $, variables use v_
variable d1 equal -(v_pxx1-${pxx0})/(v_delta/v_len0)*${cfac}
variable d1 equal -(v_pxx1-3.67071972250531e-10)/(v_delta/v_len0)*${cfac}
variable d1 equal -(v_pxx1-3.67071972250531e-10)/(v_delta/v_len0)*0.0001
variable d2 equal -(v_pyy1-${pyy0})/(v_delta/v_len0)*${cfac}
variable d2 equal -(v_pyy1-5.00529039411779e-10)/(v_delta/v_len0)*${cfac}
variable d2 equal -(v_pyy1-5.00529039411779e-10)/(v_delta/v_len0)*0.0001
variable d3 equal -(v_pzz1-${pzz0})/(v_delta/v_len0)*${cfac}
variable d3 equal -(v_pzz1--3.24927635252241e-10)/(v_delta/v_len0)*${cfac}
variable d3 equal -(v_pzz1--3.24927635252241e-10)/(v_delta/v_len0)*0.0001
variable d4 equal -(v_pyz1-${pyz0})/(v_delta/v_len0)*${cfac}
variable d4 equal -(v_pyz1-3.10879522919478e-11)/(v_delta/v_len0)*${cfac}
variable d4 equal -(v_pyz1-3.10879522919478e-11)/(v_delta/v_len0)*0.0001
variable d5 equal -(v_pxz1-${pxz0})/(v_delta/v_len0)*${cfac}
variable d5 equal -(v_pxz1--2.11372060562407e-12)/(v_delta/v_len0)*${cfac}
variable d5 equal -(v_pxz1--2.11372060562407e-12)/(v_delta/v_len0)*0.0001
variable d6 equal -(v_pxy1-${pxy0})/(v_delta/v_len0)*${cfac}
variable d6 equal -(v_pxy1-3.16459139556238e-11)/(v_delta/v_len0)*${cfac}
variable d6 equal -(v_pxy1-3.16459139556238e-11)/(v_delta/v_len0)*0.0001

displace_atoms all random ${atomjiggle} ${atomjiggle} ${atomjiggle} 87287 units box
displace_atoms all random 1e-05 ${atomjiggle} ${atomjiggle} 87287 units box
displace_atoms all random 1e-05 1e-05 ${atomjiggle} 87287 units box
displace_atoms all random 1e-05 1e-05 1e-05 87287 units box
Displacing atoms ...

# Write restart
unfix 3
write_restart restart.equil
System init for write_restart ...

# uxx Perturbation

variable dir equal 1
include displace.mod
# NOTE: This script should not need to be
# modified. See in.elastic for more info.
#
# Find which reference length to use

if "${dir} == 1" then    "variable len0 equal ${lx0}"
variable len0 equal ${lx0}
variable len0 equal 6.10836584796307
if "${dir} == 2" then    "variable len0 equal ${ly0}"
if "${dir} == 3" then    "variable len0 equal ${lz0}"
if "${dir} == 4" then    "variable len0 equal ${lz0}"
if "${dir} == 5" then    "variable len0 equal ${lz0}"
if "${dir} == 6" then    "variable len0 equal ${ly0}"

# Reset box and simulation parameters

clear
  using 1 OpenMP thread(s) per MPI task
Loaded 1 plugins from C:\Program Files\LAMMPS 64-bit 23Jun2022\plugins
Loaded 0 plugins from C:\Program Files\LAMMPS 64-bit 23Jun2022-MPI\plugins
Loaded 1 plugins from C:\Program Files\LAMMPS 64-bit 22Dec2022-MSMPI\plugins
Loaded 1 plugins from C:\Program Files\LAMMPS 64-bit 28Mar2023-MPI\plugins
box tilt large

The 'box' command has been removed and will be ignored

read_restart restart.equil
Reading restart file ...
  restart file = 22 Dec 2022, LAMMPS = 22 Dec 2022
  restoring atom style atomic from restart
  triclinic box = (-0.017091462 -0.017091462 -0.017091462) to (6.0912744 9.1454573 12.19964) with tilt (0 0 0)
  1 by 2 by 2 MPI processor grid
  pair style meam stores no restart info
  48 atoms
  read_restart CPU = 0.000 seconds
include potential.mod
# NOTE: This script can be modified for different pair styles
# See in.elastic for more info.

# Choose potential
#-----------------------
#pair_style	sw
#pair_coeff * * Si.sw Si
#-----------------------
#pair_style morse	2.83994742	# D0[eV] a[1/A] r0[A] rc[A], 1NN for BCC
#pair_coeff 1 1	2.1173	1.0202	2.4595	2.6497	#	Fe-Fe
#-----------------------
#pair_style smatb # R0(A)   p       q     A(eV)   xi(eV)  Rcs(A)   Rc(A), 4NN: Rcs=4NN, Rc=(4NN+5NN)/2
#pair_coeff 1 1	2.4802	7.0149	2.3779	0.3144	3.0551	4.033	4.176	#	Co	Co
#-----------------------
#pair_style eam/alloy
#pair_coeff * * AlCrFeCoNi_Zhou04.eam.alloy Fe
#-----------------------
pair_style meam
pair_coeff * * ./../../library.meam Ti V N ./../../TiVN.meam Ti V
#-----------------------

# Setup neighbor style
neighbor 1.0 nsq
neigh_modify once no every 1 delay 0 check yes

# Setup minimization style
min_style	     cg
min_modify	     dmax ${dmax} line quadratic
min_modify	     dmax 0.01 line quadratic

# Setup output
thermo		1
thermo_style custom step temp pe press pxx pyy pzz pxy pxz pyz lx ly lz vol
thermo_modify norm no

# Negative deformation

variable delta equal -${up}*${len0}
variable delta equal -1e-06*${len0}
variable delta equal -1e-06*6.10836584796307
variable deltaxy equal -${up}*xy
variable deltaxy equal -1e-06*xy
variable deltaxz equal -${up}*xz
variable deltaxz equal -1e-06*xz
variable deltayz equal -${up}*yz
variable deltayz equal -1e-06*yz
if "${dir} == 1" then    "change_box all x delta 0 ${delta} xy delta ${deltaxy} xz delta ${deltaxz} remap units box"
change_box all x delta 0 ${delta} xy delta ${deltaxy} xz delta ${deltaxz} remap units box
change_box all x delta 0 -6.10836584796307e-06 xy delta ${deltaxy} xz delta ${deltaxz} remap units box
change_box all x delta 0 -6.10836584796307e-06 xy delta -0 xz delta ${deltaxz} remap units box
change_box all x delta 0 -6.10836584796307e-06 xy delta -0 xz delta -0 remap units box
Changing box ...
  triclinic box = (-0.017091462 -0.017091462 -0.017091462) to (6.0912683 9.1454573 12.19964) with tilt (0 0 0)
  triclinic box = (-0.017091462 -0.017091462 -0.017091462) to (6.0912683 9.1454573 12.19964) with tilt (0 0 0)
  triclinic box = (-0.017091462 -0.017091462 -0.017091462) to (6.0912683 9.1454573 12.19964) with tilt (0 0 0)
if "${dir} == 2" then    "change_box all y delta 0 ${delta} yz delta ${deltayz} remap units box"
if "${dir} == 3" then    "change_box all z delta 0 ${delta} remap units box"
if "${dir} == 4" then    "change_box all yz delta ${delta} remap units box"
if "${dir} == 5" then    "change_box all xz delta ${delta} remap units box"
if "${dir} == 6" then    "change_box all xy delta ${delta} remap units box"

# Relax atoms positions

minimize ${etol} ${ftol} ${maxiter} ${maxeval}
minimize 0 ${ftol} ${maxiter} ${maxeval}
minimize 0 1e-10 ${maxiter} ${maxeval}
minimize 0 1e-10 100 ${maxeval}
minimize 0 1e-10 100 1000
Neighbor list info ...
  update: every = 1 steps, delay = 0 steps, check = yes
  max neighbors/atom: 2000, page size: 100000
  master list distance cutoff = 6
  ghost atom cutoff = 6
  2 neighbor lists, perpetual/occasional/extra = 2 0 0
  (1) pair meam, perpetual
      attributes: full, newton on
      pair build: full/nsq
      stencil: none
      bin: none
  (2) pair meam, perpetual, half/full from (1)
      attributes: half, newton on
      pair build: halffull/newton
      stencil: none
      bin: none
Per MPI rank memory allocation (min/avg/max) = 9.77 | 9.773 | 9.775 Mbytes
   Step          Temp          PotEng         Press           Pxx            Pyy            Pzz            Pxy            Pxz            Pyz             Lx             Ly             Lz           Volume    
         1   0             -249.984        1.2721388      4.6549591     -0.41922188    -0.41932101    -4.2830377e-06  8.1573201e-07 -1.5933038e-07  6.1083597      9.1625488      12.216732      683.7478     
         2   0             -249.984        1.2721123      4.6549138     -0.41927554    -0.41930128    -1.9244398e-06  1.9804754e-06  3.0662964e-06  6.1083597      9.1625488      12.216732      683.7478     
         3   0             -249.984        1.2721135      4.6549202     -0.41927586    -0.41930395    -5.3198374e-07  7.8520877e-07  5.6761592e-07  6.1083597      9.1625488      12.216732      683.7478     
         4   0             -249.984        1.2721147      4.6549298     -0.41928539    -0.41930018     1.0262871e-07  5.6942366e-07 -1.2156033e-07  6.1083597      9.1625488      12.216732      683.7478     
         5   0             -249.984        1.2721152      4.6549336     -0.41929086    -0.41929702     5.3435044e-08  3.2540643e-07 -6.1405388e-08  6.1083597      9.1625488      12.216732      683.7478     
         6   0             -249.984        1.2721154      4.6549342     -0.4192924     -0.41929561     1.2761412e-08  1.509619e-07   3.6236702e-09  6.1083597      9.1625488      12.216732      683.7478     
         7   0             -249.984        1.2721155      4.6549339     -0.41929307    -0.41929439     3.7090793e-09  6.0234705e-08  6.6780371e-09  6.1083597      9.1625488      12.216732      683.7478     
         8   0             -249.984        1.2721155      4.6549337     -0.41929326    -0.41929386     1.6407653e-09  2.8470983e-08 -1.3238794e-09  6.1083597      9.1625488      12.216732      683.7478     
         9   0             -249.984        1.2721155      4.6549336     -0.41929338    -0.41929361     3.8477088e-10  9.9517897e-09 -1.3143184e-09  6.1083597      9.1625488      12.216732      683.7478     
        10   0             -249.984        1.2721155      4.6549335     -0.41929343    -0.41929352    -1.7620015e-10  3.3574301e-09 -3.6057772e-11  6.1083597      9.1625488      12.216732      683.7478     
        11   0             -249.984        1.2721155      4.6549335     -0.41929345    -0.41929348    -4.5246751e-11  1.2369653e-09  1.3880705e-10  6.1083597      9.1625488      12.216732      683.7478     
        12   0             -249.984        1.2721155      4.6549335     -0.41929346    -0.41929347    -1.0014521e-11  4.0894844e-10  5.1832444e-11  6.1083597      9.1625488      12.216732      683.7478     
        13   0             -249.984        1.2721155      4.6549335     -0.41929346    -0.41929346    -3.6626346e-11  6.6892719e-11 -1.3162497e-11  6.1083597      9.1625488      12.216732      683.7478     
        14   0             -249.984        1.2721155      4.6549335     -0.41929346    -0.41929346    -5.5933424e-12 -1.8744554e-11 -2.2341948e-11  6.1083597      9.1625488      12.216732      683.7478     
        15   0             -249.984        1.2721155      4.6549335     -0.41929346    -0.41929346    -5.0178283e-12  6.9473391e-11 -3.3243879e-11  6.1083597      9.1625488      12.216732      683.7478     
        16   0             -249.984        1.2721155      4.6549335     -0.41929346    -0.41929346     7.7756408e-12  2.0114409e-11  4.4571095e-12  6.1083597      9.1625488      12.216732      683.7478     
        17   0             -249.984        1.2721155      4.6549335     -0.41929346    -0.41929346     7.3157315e-12  1.3452626e-11 -3.8705007e-11  6.1083597      9.1625488      12.216732      683.7478     
        18   0             -249.984        1.2721155      4.6549335     -0.41929346    -0.41929346     2.4300644e-11  3.5916011e-11 -4.6186874e-12  6.1083597      9.1625488      12.216732      683.7478     
        19   0             -249.984        1.2721155      4.6549335     -0.41929346    -0.41929346     5.10453e-11    1.4979485e-11 -3.9486474e-11  6.1083597      9.1625488      12.216732      683.7478     
        20   0             -249.984        1.2721155      4.6549335     -0.41929346    -0.41929346    -1.7222179e-12  2.6405783e-11  3.7950977e-11  6.1083597      9.1625488      12.216732      683.7478     
        21   0             -249.984        1.2721155      4.6549335     -0.41929346    -0.41929346    -2.3594881e-11 -1.857383e-11   2.0520894e-11  6.1083597      9.1625488      12.216732      683.7478     
        22   0             -249.984        1.2721155      4.6549335     -0.41929346    -0.41929346     1.2729223e-11  2.7090202e-11 -9.9486221e-11  6.1083597      9.1625488      12.216732      683.7478     
        23   0             -249.984        1.2721155      4.6549335     -0.41929346    -0.41929346     4.3999343e-11 -3.4494837e-11 -2.750939e-11   6.1083597      9.1625488      12.216732      683.7478     
        24   0             -249.984        1.2721155      4.6549335     -0.41929346    -0.41929346    -2.7664599e-11 -3.528291e-12   4.2033104e-11  6.1083597      9.1625488      12.216732      683.7478     
        25   0             -249.984        1.2721155      4.6549335     -0.41929346    -0.41929346    -1.4658482e-11  1.6053622e-11  2.2941005e-11  6.1083597      9.1625488      12.216732      683.7478     
        26   0             -249.984        1.2721155      4.6549335     -0.41929346    -0.41929346    -1.3485406e-11 -9.0308295e-11  1.863023e-11   6.1083597      9.1625488      12.216732      683.7478     
Loop time of 0.006365 on 4 procs for 25 steps with 48 atoms

0.0% CPU use with 4 MPI tasks x 1 OpenMP threads

Minimization stats:
  Stopping criterion = force tolerance
  Energy initial, next-to-last, final = 
     -249.983999982647  -249.984000000074  -249.984000000074
  Force two-norm initial, final = 0.00057553147 3.0392958e-11
  Force max component initial, final = 0.00011941763 6.6288086e-12
  Final line search alpha, max atom move = 1 6.6288086e-12
  Iterations, force evaluations = 25 50

MPI task timing breakdown:
Section |  min time  |  avg time  |  max time  |%varavg| %total
---------------------------------------------------------------
Pair    | 0.004979   | 0.0052477  | 0.005555   |   0.3 | 82.45
Neigh   | 0          | 0          | 0          |   0.0 |  0.00
Comm    | 0.000328   | 0.0006365  | 0.000904   |   0.0 | 10.00
Output  | 0.000208   | 0.00022975 | 0.000288   |   0.0 |  3.61
Modify  | 0          | 0          | 0          |   0.0 |  0.00
Other   |            | 0.000251   |            |       |  3.94

Nlocal:             12 ave          15 max          10 min
Histogram: 1 0 1 0 1 0 0 0 0 1
Nghost:            293 ave         295 max         290 min
Histogram: 1 0 0 0 0 0 1 0 1 1
Neighs:            348 ave         438 max         274 min
Histogram: 1 0 0 1 1 0 0 0 0 1
FullNghs:          696 ave         870 max         580 min
Histogram: 1 0 1 0 1 0 0 0 0 1

Total # of neighbors = 2784
Ave neighs/atom = 58
Neighbor list builds = 0
Dangerous builds = 0

# Obtain new stress tensor

variable tmp equal pxx
variable pxx1 equal ${tmp}
variable pxx1 equal 4.654933523273
variable tmp equal pyy
variable pyy1 equal ${tmp}
variable pyy1 equal -0.419293461625098
variable tmp equal pzz
variable pzz1 equal ${tmp}
variable pzz1 equal -0.419293462193007
variable tmp equal pxy
variable pxy1 equal ${tmp}
variable pxy1 equal -1.34854055326256e-11
variable tmp equal pxz
variable pxz1 equal ${tmp}
variable pxz1 equal -9.03082950776686e-11
variable tmp equal pyz
variable pyz1 equal ${tmp}
variable pyz1 equal 1.86302301027811e-11

# Compute elastic constant from pressure tensor

variable C1neg equal ${d1}
variable C1neg equal 465.493352290593
variable C2neg equal ${d2}
variable C2neg equal -41.9293462125627
variable C3neg equal ${d3}
variable C3neg equal -41.9293461868079
variable C4neg equal ${d4}
variable C4neg equal -1.24577221891667e-09
variable C5neg equal ${d5}
variable C5neg equal -8.81945744720445e-09
variable C6neg equal ${d6}
variable C6neg equal -4.51313194882494e-09

# Reset box and simulation parameters

clear
  using 1 OpenMP thread(s) per MPI task
Loaded 1 plugins from C:\Program Files\LAMMPS 64-bit 23Jun2022\plugins
Loaded 0 plugins from C:\Program Files\LAMMPS 64-bit 23Jun2022-MPI\plugins
Loaded 1 plugins from C:\Program Files\LAMMPS 64-bit 22Dec2022-MSMPI\plugins
Loaded 1 plugins from C:\Program Files\LAMMPS 64-bit 28Mar2023-MPI\plugins
box tilt large

The 'box' command has been removed and will be ignored

read_restart restart.equil
Reading restart file ...
  restart file = 22 Dec 2022, LAMMPS = 22 Dec 2022
  restoring atom style atomic from restart
  triclinic box = (-0.017091462 -0.017091462 -0.017091462) to (6.0912744 9.1454573 12.19964) with tilt (0 0 0)
  1 by 2 by 2 MPI processor grid
  pair style meam stores no restart info
  48 atoms
  read_restart CPU = 0.000 seconds
include potential.mod
# NOTE: This script can be modified for different pair styles
# See in.elastic for more info.

# Choose potential
#-----------------------
#pair_style	sw
#pair_coeff * * Si.sw Si
#-----------------------
#pair_style morse	2.83994742	# D0[eV] a[1/A] r0[A] rc[A], 1NN for BCC
#pair_coeff 1 1	2.1173	1.0202	2.4595	2.6497	#	Fe-Fe
#-----------------------
#pair_style smatb # R0(A)   p       q     A(eV)   xi(eV)  Rcs(A)   Rc(A), 4NN: Rcs=4NN, Rc=(4NN+5NN)/2
#pair_coeff 1 1	2.4802	7.0149	2.3779	0.3144	3.0551	4.033	4.176	#	Co	Co
#-----------------------
#pair_style eam/alloy
#pair_coeff * * AlCrFeCoNi_Zhou04.eam.alloy Fe
#-----------------------
pair_style meam
pair_coeff * * ./../../library.meam Ti V N ./../../TiVN.meam Ti V
#-----------------------

# Setup neighbor style
neighbor 1.0 nsq
neigh_modify once no every 1 delay 0 check yes

# Setup minimization style
min_style	     cg
min_modify	     dmax ${dmax} line quadratic
min_modify	     dmax 0.01 line quadratic

# Setup output
thermo		1
thermo_style custom step temp pe press pxx pyy pzz pxy pxz pyz lx ly lz vol
thermo_modify norm no

# Positive deformation

variable delta equal ${up}*${len0}
variable delta equal 1e-06*${len0}
variable delta equal 1e-06*6.10836584796307
variable deltaxy equal ${up}*xy
variable deltaxy equal 1e-06*xy
variable deltaxz equal ${up}*xz
variable deltaxz equal 1e-06*xz
variable deltayz equal ${up}*yz
variable deltayz equal 1e-06*yz
if "${dir} == 1" then    "change_box all x delta 0 ${delta} xy delta ${deltaxy} xz delta ${deltaxz} remap units box"
change_box all x delta 0 ${delta} xy delta ${deltaxy} xz delta ${deltaxz} remap units box
change_box all x delta 0 6.10836584796307e-06 xy delta ${deltaxy} xz delta ${deltaxz} remap units box
change_box all x delta 0 6.10836584796307e-06 xy delta 0 xz delta ${deltaxz} remap units box
change_box all x delta 0 6.10836584796307e-06 xy delta 0 xz delta 0 remap units box
Changing box ...
  triclinic box = (-0.017091462 -0.017091462 -0.017091462) to (6.0912805 9.1454573 12.19964) with tilt (0 0 0)
  triclinic box = (-0.017091462 -0.017091462 -0.017091462) to (6.0912805 9.1454573 12.19964) with tilt (0 0 0)
  triclinic box = (-0.017091462 -0.017091462 -0.017091462) to (6.0912805 9.1454573 12.19964) with tilt (0 0 0)
if "${dir} == 2" then    "change_box all y delta 0 ${delta} yz delta ${deltayz} remap units box"
if "${dir} == 3" then    "change_box all z delta 0 ${delta} remap units box"
if "${dir} == 4" then    "change_box all yz delta ${delta} remap units box"
if "${dir} == 5" then    "change_box all xz delta ${delta} remap units box"
if "${dir} == 6" then    "change_box all xy delta ${delta} remap units box"

# Relax atoms positions

minimize ${etol} ${ftol} ${maxiter} ${maxeval}
minimize 0 ${ftol} ${maxiter} ${maxeval}
minimize 0 1e-10 ${maxiter} ${maxeval}
minimize 0 1e-10 100 ${maxeval}
minimize 0 1e-10 100 1000
Neighbor list info ...
  update: every = 1 steps, delay = 0 steps, check = yes
  max neighbors/atom: 2000, page size: 100000
  master list distance cutoff = 6
  ghost atom cutoff = 6
  2 neighbor lists, perpetual/occasional/extra = 2 0 0
  (1) pair meam, perpetual
      attributes: full, newton on
      pair build: full/nsq
      stencil: none
      bin: none
  (2) pair meam, perpetual, half/full from (1)
      attributes: half, newton on
      pair build: halffull/newton
      stencil: none
      bin: none
Per MPI rank memory allocation (min/avg/max) = 9.77 | 9.773 | 9.775 Mbytes
   Step          Temp          PotEng         Press           Pxx            Pyy            Pzz            Pxy            Pxz            Pyz             Lx             Ly             Lz           Volume    
         1   0             -249.984       -1.2720798     -4.6548817      0.4193707      0.41927157    -4.2829277e-06  8.1548785e-07 -1.5942735e-07  6.108372       9.1625488      12.216732      683.74917    
         2   0             -249.984       -1.2721062     -4.654927       0.41931703     0.4192913     -1.9243566e-06  1.9804388e-06  3.0663408e-06  6.108372       9.1625488      12.216732      683.74917    
         3   0             -249.984       -1.2721051     -4.6549206      0.41931672     0.41928864    -5.3199865e-07  7.8514596e-07  5.6749646e-07  6.108372       9.1625488      12.216732      683.74917    
         4   0             -249.984       -1.2721038     -4.6549111      0.41930719     0.4192924      1.0260913e-07  5.6933435e-07 -1.2158558e-07  6.108372       9.1625488      12.216732      683.74917    
         5   0             -249.984       -1.2721033     -4.6549073      0.41930172     0.41929556     5.3472528e-08  3.253442e-07  -6.1378077e-08  6.108372       9.1625488      12.216732      683.74917    
         6   0             -249.984       -1.2721032     -4.6549066      0.41930019     0.41929697     1.2728891e-08  1.5102079e-07  3.6016508e-09  6.108372       9.1625488      12.216732      683.74917    
         7   0             -249.984       -1.2721031     -4.654907       0.41929952     0.4192982      3.7309571e-09  6.0168733e-08  6.6832385e-09  6.108372       9.1625488      12.216732      683.74917    
         8   0             -249.984       -1.2721031     -4.6549072      0.41929933     0.41929872     1.6538492e-09  2.8466339e-08 -1.3257547e-09  6.108372       9.1625488      12.216732      683.74917    
         9   0             -249.984       -1.272103      -4.6549073      0.41929921     0.41929897     4.0484424e-10  9.985699e-09  -1.3669854e-09  6.108372       9.1625488      12.216732      683.74917    
        10   0             -249.984       -1.272103      -4.6549073      0.41929915     0.41929907    -1.379832e-10   3.3981495e-09 -3.8293872e-11  6.108372       9.1625488      12.216732      683.74917    
        11   0             -249.984       -1.272103      -4.6549073      0.41929913     0.41929911    -5.1467895e-11  1.2530169e-09  8.0629215e-11  6.108372       9.1625488      12.216732      683.74917    
        12   0             -249.984       -1.272103      -4.6549073      0.41929913     0.41929912    -3.8044698e-11  4.0716671e-10  2.5894576e-11  6.108372       9.1625488      12.216732      683.74917    
        13   0             -249.984       -1.272103      -4.6549073      0.41929913     0.41929912     4.5169503e-11  6.5267156e-11 -1.9770381e-11  6.108372       9.1625488      12.216732      683.74917    
        14   0             -249.984       -1.272103      -4.6549073      0.41929912     0.41929912    -3.1032413e-11 -1.2400821e-11 -1.8342605e-13  6.108372       9.1625488      12.216732      683.74917    
        15   0             -249.984       -1.272103      -4.6549073      0.41929912     0.41929912     3.2366687e-12  1.6669922e-11 -4.802155e-11   6.108372       9.1625488      12.216732      683.74917    
        16   0             -249.984       -1.272103      -4.6549073      0.41929912     0.41929912    -2.1265909e-11  1.2245848e-11 -2.2150855e-11  6.108372       9.1625488      12.216732      683.74917    
        17   0             -249.984       -1.272103      -4.6549073      0.41929912     0.41929912     1.6562904e-11 -2.4417005e-11 -1.2172173e-11  6.108372       9.1625488      12.216732      683.74917    
        18   0             -249.984       -1.272103      -4.6549073      0.41929912     0.41929912     1.0580827e-12  3.34938e-11   -2.7602318e-11  6.108372       9.1625488      12.216732      683.74917    
        19   0             -249.984       -1.272103      -4.6549073      0.41929912     0.41929912     1.7322885e-11 -3.427425e-11  -1.0400918e-11  6.108372       9.1625488      12.216732      683.74917    
        20   0             -249.984       -1.272103      -4.6549073      0.41929912     0.41929912    -1.1788904e-11 -1.5778705e-11  2.6756831e-11  6.108372       9.1625488      12.216732      683.74917    
        21   0             -249.984       -1.272103      -4.6549073      0.41929912     0.41929912    -8.2026735e-12  7.2608263e-12  1.5252816e-11  6.108372       9.1625488      12.216732      683.74917    
        22   0             -249.984       -1.272103      -4.6549073      0.41929912     0.41929912    -2.5237732e-11  1.4350421e-11  1.5091239e-11  6.108372       9.1625488      12.216732      683.74917    
        23   0             -249.984       -1.272103      -4.6549073      0.41929912     0.41929912     9.5531769e-12 -9.5335817e-12 -1.0850083e-11  6.108372       9.1625488      12.216732      683.74917    
        24   0             -249.984       -1.272103      -4.6549073      0.41929912     0.41929912    -1.7196358e-11  1.5673019e-11 -1.7540815e-11  6.108372       9.1625488      12.216732      683.74917    
        25   0             -249.984       -1.272103      -4.6549073      0.41929912     0.41929912     3.6366873e-11 -6.7506884e-12  6.9844169e-12  6.108372       9.1625488      12.216732      683.74917    
        26   0             -249.984       -1.272103      -4.6549073      0.41929912     0.41929912    -6.8084325e-12  2.497084e-11  -1.7218168e-11  6.108372       9.1625488      12.216732      683.74917    
Loop time of 0.00650175 on 4 procs for 25 steps with 48 atoms

0.0% CPU use with 4 MPI tasks x 1 OpenMP threads

Minimization stats:
  Stopping criterion = force tolerance
  Energy initial, next-to-last, final = 
     -249.983999982647  -249.984000000074  -249.984000000074
  Force two-norm initial, final = 0.00057552919 3.0359197e-11
  Force max component initial, final = 0.0001194178 6.5397687e-12
  Final line search alpha, max atom move = 1 6.5397687e-12
  Iterations, force evaluations = 25 50

MPI task timing breakdown:
Section |  min time  |  avg time  |  max time  |%varavg| %total
---------------------------------------------------------------
Pair    | 0.004918   | 0.0052148  | 0.005654   |   0.4 | 80.21
Neigh   | 0          | 0          | 0          |   0.0 |  0.00
Comm    | 0.000378   | 0.00081975 | 0.001115   |   0.0 | 12.61
Output  | 0.000215   | 0.0002245  | 0.000244   |   0.0 |  3.45
Modify  | 0          | 0          | 0          |   0.0 |  0.00
Other   |            | 0.0002427  |            |       |  3.73

Nlocal:             12 ave          15 max          10 min
Histogram: 1 0 1 0 1 0 0 0 0 1
Nghost:            293 ave         295 max         290 min
Histogram: 1 0 0 0 0 0 1 0 1 1
Neighs:            348 ave         438 max         274 min
Histogram: 1 0 0 1 1 0 0 0 0 1
FullNghs:          696 ave         870 max         580 min
Histogram: 1 0 1 0 1 0 0 0 0 1

Total # of neighbors = 2784
Ave neighs/atom = 58
Neighbor list builds = 0
Dangerous builds = 0

# Obtain new stress tensor

variable tmp equal pe
variable e1 equal ${tmp}
variable e1 equal -249.984000000074
variable tmp equal press
variable p1 equal ${tmp}
variable p1 equal -1.27210302695736
variable tmp equal pxx
variable pxx1 equal ${tmp}
variable pxx1 equal -4.65490732978378
variable tmp equal pyy
variable pyy1 equal ${tmp}
variable pyy1 equal 0.419299124694532
variable tmp equal pzz
variable pzz1 equal ${tmp}
variable pzz1 equal 0.419299124217157
variable tmp equal pxy
variable pxy1 equal ${tmp}
variable pxy1 equal -6.8084324887022e-12
variable tmp equal pxz
variable pxz1 equal ${tmp}
variable pxz1 equal 2.49708402126682e-11
variable tmp equal pyz
variable pyz1 equal ${tmp}
variable pyz1 equal -1.72181679171164e-11

# Compute elastic constant from pressure tensor

variable C1pos equal ${d1}
variable C1pos equal 465.490733015085
variable C2pos equal ${d2}
variable C2pos equal -41.9299124194003
variable C3pos equal ${d3}
variable C3pos equal -41.9299124542085
variable C4pos equal ${d4}
variable C4pos equal 4.83061202090642e-09
variable C5pos equal ${d5}
variable C5pos equal -2.70845608182923e-09
variable C6pos equal ${d6}
variable C6pos equal 3.8454346444326e-09

# Combine positive and negative

variable C1${dir} equal 0.5*(${C1neg}+${C1pos})
variable C11 equal 0.5*(${C1neg}+${C1pos})
variable C11 equal 0.5*(465.493352290593+${C1pos})
variable C11 equal 0.5*(465.493352290593+465.490733015085)
variable C2${dir} equal 0.5*(${C2neg}+${C2pos})
variable C21 equal 0.5*(${C2neg}+${C2pos})
variable C21 equal 0.5*(-41.9293462125627+${C2pos})
variable C21 equal 0.5*(-41.9293462125627+-41.9299124194003)
variable C3${dir} equal 0.5*(${C3neg}+${C3pos})
variable C31 equal 0.5*(${C3neg}+${C3pos})
variable C31 equal 0.5*(-41.9293461868079+${C3pos})
variable C31 equal 0.5*(-41.9293461868079+-41.9299124542085)
variable C4${dir} equal 0.5*(${C4neg}+${C4pos})
variable C41 equal 0.5*(${C4neg}+${C4pos})
variable C41 equal 0.5*(-1.24577221891667e-09+${C4pos})
variable C41 equal 0.5*(-1.24577221891667e-09+4.83061202090642e-09)
variable C5${dir} equal 0.5*(${C5neg}+${C5pos})
variable C51 equal 0.5*(${C5neg}+${C5pos})
variable C51 equal 0.5*(-8.81945744720445e-09+${C5pos})
variable C51 equal 0.5*(-8.81945744720445e-09+-2.70845608182923e-09)
variable C6${dir} equal 0.5*(${C6neg}+${C6pos})
variable C61 equal 0.5*(${C6neg}+${C6pos})
variable C61 equal 0.5*(-4.51313194882494e-09+${C6pos})
variable C61 equal 0.5*(-4.51313194882494e-09+3.8454346444326e-09)

# Delete dir to make sure it is not reused

variable dir delete

# uyy Perturbation

variable dir equal 2
include displace.mod
# NOTE: This script should not need to be
# modified. See in.elastic for more info.
#
# Find which reference length to use

if "${dir} == 1" then    "variable len0 equal ${lx0}"
if "${dir} == 2" then    "variable len0 equal ${ly0}"
variable len0 equal ${ly0}
variable len0 equal 9.1625487719446
if "${dir} == 3" then    "variable len0 equal ${lz0}"
if "${dir} == 4" then    "variable len0 equal ${lz0}"
if "${dir} == 5" then    "variable len0 equal ${lz0}"
if "${dir} == 6" then    "variable len0 equal ${ly0}"

# Reset box and simulation parameters

clear
  using 1 OpenMP thread(s) per MPI task
Loaded 1 plugins from C:\Program Files\LAMMPS 64-bit 23Jun2022\plugins
Loaded 0 plugins from C:\Program Files\LAMMPS 64-bit 23Jun2022-MPI\plugins
Loaded 1 plugins from C:\Program Files\LAMMPS 64-bit 22Dec2022-MSMPI\plugins
Loaded 1 plugins from C:\Program Files\LAMMPS 64-bit 28Mar2023-MPI\plugins
box tilt large

The 'box' command has been removed and will be ignored

read_restart restart.equil
Reading restart file ...
  restart file = 22 Dec 2022, LAMMPS = 22 Dec 2022
  restoring atom style atomic from restart
  triclinic box = (-0.017091462 -0.017091462 -0.017091462) to (6.0912744 9.1454573 12.19964) with tilt (0 0 0)
  1 by 2 by 2 MPI processor grid
  pair style meam stores no restart info
  48 atoms
  read_restart CPU = 0.000 seconds
include potential.mod
# NOTE: This script can be modified for different pair styles
# See in.elastic for more info.

# Choose potential
#-----------------------
#pair_style	sw
#pair_coeff * * Si.sw Si
#-----------------------
#pair_style morse	2.83994742	# D0[eV] a[1/A] r0[A] rc[A], 1NN for BCC
#pair_coeff 1 1	2.1173	1.0202	2.4595	2.6497	#	Fe-Fe
#-----------------------
#pair_style smatb # R0(A)   p       q     A(eV)   xi(eV)  Rcs(A)   Rc(A), 4NN: Rcs=4NN, Rc=(4NN+5NN)/2
#pair_coeff 1 1	2.4802	7.0149	2.3779	0.3144	3.0551	4.033	4.176	#	Co	Co
#-----------------------
#pair_style eam/alloy
#pair_coeff * * AlCrFeCoNi_Zhou04.eam.alloy Fe
#-----------------------
pair_style meam
pair_coeff * * ./../../library.meam Ti V N ./../../TiVN.meam Ti V
#-----------------------

# Setup neighbor style
neighbor 1.0 nsq
neigh_modify once no every 1 delay 0 check yes

# Setup minimization style
min_style	     cg
min_modify	     dmax ${dmax} line quadratic
min_modify	     dmax 0.01 line quadratic

# Setup output
thermo		1
thermo_style custom step temp pe press pxx pyy pzz pxy pxz pyz lx ly lz vol
thermo_modify norm no

# Negative deformation

variable delta equal -${up}*${len0}
variable delta equal -1e-06*${len0}
variable delta equal -1e-06*9.1625487719446
variable deltaxy equal -${up}*xy
variable deltaxy equal -1e-06*xy
variable deltaxz equal -${up}*xz
variable deltaxz equal -1e-06*xz
variable deltayz equal -${up}*yz
variable deltayz equal -1e-06*yz
if "${dir} == 1" then    "change_box all x delta 0 ${delta} xy delta ${deltaxy} xz delta ${deltaxz} remap units box"
if "${dir} == 2" then    "change_box all y delta 0 ${delta} yz delta ${deltayz} remap units box"
change_box all y delta 0 ${delta} yz delta ${deltayz} remap units box
change_box all y delta 0 -9.1625487719446e-06 yz delta ${deltayz} remap units box
change_box all y delta 0 -9.1625487719446e-06 yz delta -0 remap units box
Changing box ...
  triclinic box = (-0.017091462 -0.017091462 -0.017091462) to (6.0912744 9.1454481 12.19964) with tilt (0 0 0)
  triclinic box = (-0.017091462 -0.017091462 -0.017091462) to (6.0912744 9.1454481 12.19964) with tilt (0 0 0)
if "${dir} == 3" then    "change_box all z delta 0 ${delta} remap units box"
if "${dir} == 4" then    "change_box all yz delta ${delta} remap units box"
if "${dir} == 5" then    "change_box all xz delta ${delta} remap units box"
if "${dir} == 6" then    "change_box all xy delta ${delta} remap units box"

# Relax atoms positions

minimize ${etol} ${ftol} ${maxiter} ${maxeval}
minimize 0 ${ftol} ${maxiter} ${maxeval}
minimize 0 1e-10 ${maxiter} ${maxeval}
minimize 0 1e-10 100 ${maxeval}
minimize 0 1e-10 100 1000
Neighbor list info ...
  update: every = 1 steps, delay = 0 steps, check = yes
  max neighbors/atom: 2000, page size: 100000
  master list distance cutoff = 6
  ghost atom cutoff = 6
  2 neighbor lists, perpetual/occasional/extra = 2 0 0
  (1) pair meam, perpetual
      attributes: full, newton on
      pair build: full/nsq
      stencil: none
      bin: none
  (2) pair meam, perpetual, half/full from (1)
      attributes: half, newton on
      pair build: halffull/newton
      stencil: none
      bin: none
Per MPI rank memory allocation (min/avg/max) = 9.77 | 9.773 | 9.775 Mbytes
   Step          Temp          PotEng         Press           Pxx            Pyy            Pzz            Pxy            Pxz            Pyz             Lx             Ly             Lz           Volume    
         1   0             -249.984        1.2721388     -0.41926782     4.6550051     -0.41932101    -4.2830213e-06  8.1541912e-07 -1.5934455e-07  6.1083658      9.1625396      12.216732      683.7478     
         2   0             -249.984        1.2721123     -0.41931316     4.6549514     -0.41930128    -1.9243803e-06  1.9805091e-06  3.0663119e-06  6.1083658      9.1625396      12.216732      683.7478     
         3   0             -249.984        1.2721135     -0.41930674     4.6549511     -0.41930395    -5.3202449e-07  7.8516259e-07  5.6752938e-07  6.1083658      9.1625396      12.216732      683.7478     
         4   0             -249.984        1.2721147     -0.41929719     4.6549416     -0.41930019     1.0259724e-07  5.6931956e-07 -1.2154198e-07  6.1083658      9.1625396      12.216732      683.7478     
         5   0             -249.984        1.2721152     -0.41929342     4.6549361     -0.41929702     5.3422904e-08  3.2539801e-07 -6.1439867e-08  6.1083658      9.1625396      12.216732      683.7478     
         6   0             -249.984        1.2721154     -0.41929277     4.6549346     -0.41929562     1.2750853e-08  1.509621e-07   3.5715156e-09  6.1083658      9.1625396      12.216732      683.7478     
         7   0             -249.984        1.2721155     -0.41929309     4.6549339     -0.41929439     3.6993209e-09  6.0197981e-08  6.6403773e-09  6.1083658      9.1625396      12.216732      683.7478     
         8   0             -249.984        1.2721155     -0.41929333     4.6549337     -0.41929386     1.6444893e-09  2.8405339e-08 -1.3425035e-09  6.1083658      9.1625396      12.216732      683.7478     
         9   0             -249.984        1.2721155     -0.41929342     4.6549336     -0.41929361     4.16234e-10    9.9735544e-09 -1.4087891e-09  6.1083658      9.1625396      12.216732      683.7478     
        10   0             -249.984        1.2721155     -0.41929344     4.6549335     -0.41929352    -1.8250146e-10  3.3880988e-09  5.3020905e-12  6.1083658      9.1625396      12.216732      683.7478     
        11   0             -249.984        1.2721155     -0.41929346     4.6549335     -0.41929348    -2.3987946e-11  1.2467793e-09  1.2123064e-10  6.1083658      9.1625396      12.216732      683.7478     
        12   0             -249.984        1.2721155     -0.41929346     4.6549335     -0.41929347     1.4915703e-11  3.8781934e-10  8.2223306e-11  6.1083658      9.1625396      12.216732      683.7478     
        13   0             -249.984        1.2721155     -0.41929346     4.6549335     -0.41929346     6.0202693e-12  9.8401922e-11 -8.9264136e-12  6.1083658      9.1625396      12.216732      683.7478     
        14   0             -249.984        1.2721155     -0.41929346     4.6549335     -0.41929346     5.9844067e-11  5.1300965e-11  3.1735311e-11  6.1083658      9.1625396      12.216732      683.7478     
        15   0             -249.984        1.2721155     -0.41929346     4.6549335     -0.41929346     1.5810076e-11 -7.8238227e-12 -6.8321514e-11  6.1083658      9.1625396      12.216732      683.7478     
        16   0             -249.984        1.2721155     -0.41929346     4.6549335     -0.41929346    -6.0174867e-12 -1.7952416e-11  3.4356124e-11  6.1083658      9.1625396      12.216732      683.7478     
        17   0             -249.984        1.2721155     -0.41929346     4.6549335     -0.41929346    -3.0422309e-11 -1.747378e-12  -4.4404945e-11  6.1083658      9.1625396      12.216732      683.7478     
        18   0             -249.984        1.2721155     -0.41929346     4.6549335     -0.41929346     1.9371953e-11  2.9492529e-11  2.5283376e-12  6.1083658      9.1625396      12.216732      683.7478     
        19   0             -249.984        1.2721155     -0.41929346     4.6549335     -0.41929346    -8.2796756e-12  1.5103972e-11 -1.5014545e-11  6.1083658      9.1625396      12.216732      683.7478     
        20   0             -249.984        1.2721155     -0.41929346     4.6549335     -0.41929346    -6.5634868e-12 -7.2074896e-12  1.8327399e-11  6.1083658      9.1625396      12.216732      683.7478     
        21   0             -249.984        1.2721155     -0.41929346     4.6549335     -0.41929346     1.2700193e-11 -1.9257233e-11 -9.7500541e-12  6.1083658      9.1625396      12.216732      683.7478     
        22   0             -249.984        1.2721155     -0.41929346     4.6549335     -0.41929346     1.518207e-11   3.1557474e-11  1.6683166e-11  6.1083658      9.1625396      12.216732      683.7478     
        23   0             -249.984        1.2721155     -0.41929346     4.6549335     -0.41929346    -2.8251811e-11  1.6776658e-11  4.7270157e-11  6.1083658      9.1625396      12.216732      683.7478     
        24   0             -249.984        1.2721155     -0.41929346     4.6549335     -0.41929346     1.140484e-12  -3.122568e-11  -1.3984613e-11  6.1083658      9.1625396      12.216732      683.7478     
        25   0             -249.984        1.2721155     -0.41929346     4.6549335     -0.41929346     4.4792107e-11 -4.4971483e-11 -2.6235059e-11  6.1083658      9.1625396      12.216732      683.7478     
        26   0             -249.984        1.2721155     -0.41929346     4.6549335     -0.41929346    -1.2099627e-11  1.5399181e-11  1.6311232e-11  6.1083658      9.1625396      12.216732      683.7478     
Loop time of 0.006279 on 4 procs for 25 steps with 48 atoms

0.0% CPU use with 4 MPI tasks x 1 OpenMP threads

Minimization stats:
  Stopping criterion = force tolerance
  Energy initial, next-to-last, final = 
     -249.983999982647  -249.984000000074  -249.984000000074
  Force two-norm initial, final = 0.0005755315 3.0309046e-11
  Force max component initial, final = 0.00011941824 6.5856209e-12
  Final line search alpha, max atom move = 1 6.5856209e-12
  Iterations, force evaluations = 25 50

MPI task timing breakdown:
Section |  min time  |  avg time  |  max time  |%varavg| %total
---------------------------------------------------------------
Pair    | 0.00495    | 0.0052037  | 0.005484   |   0.3 | 82.88
Neigh   | 0          | 0          | 0          |   0.0 |  0.00
Comm    | 0.00034    | 0.00061925 | 0.000872   |   0.0 |  9.86
Output  | 0.00021    | 0.00022075 | 0.000248   |   0.0 |  3.52
Modify  | 0          | 0          | 0          |   0.0 |  0.00
Other   |            | 0.0002352  |            |       |  3.75

Nlocal:             12 ave          15 max          10 min
Histogram: 1 0 1 0 1 0 0 0 0 1
Nghost:            293 ave         295 max         290 min
Histogram: 1 0 0 0 0 0 1 0 1 1
Neighs:            348 ave         438 max         274 min
Histogram: 1 0 0 1 1 0 0 0 0 1
FullNghs:          696 ave         870 max         580 min
Histogram: 1 0 1 0 1 0 0 0 0 1

Total # of neighbors = 2784
Ave neighs/atom = 58
Neighbor list builds = 0
Dangerous builds = 0

# Obtain new stress tensor

variable tmp equal pxx
variable pxx1 equal ${tmp}
variable pxx1 equal -0.419293461355322
variable tmp equal pyy
variable pyy1 equal ${tmp}
variable pyy1 equal 4.65493352309349
variable tmp equal pzz
variable pzz1 equal ${tmp}
variable pzz1 equal -0.419293462222664
variable tmp equal pxy
variable pxy1 equal ${tmp}
variable pxy1 equal -1.20996268772897e-11
variable tmp equal pxz
variable pxz1 equal ${tmp}
variable pxz1 equal 1.53991813594334e-11
variable tmp equal pyz
variable pyz1 equal ${tmp}
variable pyz1 equal 1.63112323885747e-11

# Compute elastic constant from pressure tensor

variable C1neg equal ${d1}
variable C1neg equal -41.9293461722394
variable C2neg equal ${d2}
variable C2neg equal 465.493352259296
variable C3neg equal ${d3}
variable C3neg equal -41.9293461897736
variable C4neg equal ${d4}
variable C4neg equal -1.47767199033731e-09
variable C5neg equal ${d5}
variable C5neg equal 1.75129019650575e-09
variable C6neg equal ${d6}
variable C6neg equal -4.37455408329135e-09

# Reset box and simulation parameters

clear
  using 1 OpenMP thread(s) per MPI task
Loaded 1 plugins from C:\Program Files\LAMMPS 64-bit 23Jun2022\plugins
Loaded 0 plugins from C:\Program Files\LAMMPS 64-bit 23Jun2022-MPI\plugins
Loaded 1 plugins from C:\Program Files\LAMMPS 64-bit 22Dec2022-MSMPI\plugins
Loaded 1 plugins from C:\Program Files\LAMMPS 64-bit 28Mar2023-MPI\plugins
box tilt large

The 'box' command has been removed and will be ignored

read_restart restart.equil
Reading restart file ...
  restart file = 22 Dec 2022, LAMMPS = 22 Dec 2022
  restoring atom style atomic from restart
  triclinic box = (-0.017091462 -0.017091462 -0.017091462) to (6.0912744 9.1454573 12.19964) with tilt (0 0 0)
  1 by 2 by 2 MPI processor grid
  pair style meam stores no restart info
  48 atoms
  read_restart CPU = 0.000 seconds
include potential.mod
# NOTE: This script can be modified for different pair styles
# See in.elastic for more info.

# Choose potential
#-----------------------
#pair_style	sw
#pair_coeff * * Si.sw Si
#-----------------------
#pair_style morse	2.83994742	# D0[eV] a[1/A] r0[A] rc[A], 1NN for BCC
#pair_coeff 1 1	2.1173	1.0202	2.4595	2.6497	#	Fe-Fe
#-----------------------
#pair_style smatb # R0(A)   p       q     A(eV)   xi(eV)  Rcs(A)   Rc(A), 4NN: Rcs=4NN, Rc=(4NN+5NN)/2
#pair_coeff 1 1	2.4802	7.0149	2.3779	0.3144	3.0551	4.033	4.176	#	Co	Co
#-----------------------
#pair_style eam/alloy
#pair_coeff * * AlCrFeCoNi_Zhou04.eam.alloy Fe
#-----------------------
pair_style meam
pair_coeff * * ./../../library.meam Ti V N ./../../TiVN.meam Ti V
#-----------------------

# Setup neighbor style
neighbor 1.0 nsq
neigh_modify once no every 1 delay 0 check yes

# Setup minimization style
min_style	     cg
min_modify	     dmax ${dmax} line quadratic
min_modify	     dmax 0.01 line quadratic

# Setup output
thermo		1
thermo_style custom step temp pe press pxx pyy pzz pxy pxz pyz lx ly lz vol
thermo_modify norm no

# Positive deformation

variable delta equal ${up}*${len0}
variable delta equal 1e-06*${len0}
variable delta equal 1e-06*9.1625487719446
variable deltaxy equal ${up}*xy
variable deltaxy equal 1e-06*xy
variable deltaxz equal ${up}*xz
variable deltaxz equal 1e-06*xz
variable deltayz equal ${up}*yz
variable deltayz equal 1e-06*yz
if "${dir} == 1" then    "change_box all x delta 0 ${delta} xy delta ${deltaxy} xz delta ${deltaxz} remap units box"
if "${dir} == 2" then    "change_box all y delta 0 ${delta} yz delta ${deltayz} remap units box"
change_box all y delta 0 ${delta} yz delta ${deltayz} remap units box
change_box all y delta 0 9.1625487719446e-06 yz delta ${deltayz} remap units box
change_box all y delta 0 9.1625487719446e-06 yz delta 0 remap units box
Changing box ...
  triclinic box = (-0.017091462 -0.017091462 -0.017091462) to (6.0912744 9.1454665 12.19964) with tilt (0 0 0)
  triclinic box = (-0.017091462 -0.017091462 -0.017091462) to (6.0912744 9.1454665 12.19964) with tilt (0 0 0)
if "${dir} == 3" then    "change_box all z delta 0 ${delta} remap units box"
if "${dir} == 4" then    "change_box all yz delta ${delta} remap units box"
if "${dir} == 5" then    "change_box all xz delta ${delta} remap units box"
if "${dir} == 6" then    "change_box all xy delta ${delta} remap units box"

# Relax atoms positions

minimize ${etol} ${ftol} ${maxiter} ${maxeval}
minimize 0 ${ftol} ${maxiter} ${maxeval}
minimize 0 1e-10 ${maxiter} ${maxeval}
minimize 0 1e-10 100 ${maxeval}
minimize 0 1e-10 100 1000
Neighbor list info ...
  update: every = 1 steps, delay = 0 steps, check = yes
  max neighbors/atom: 2000, page size: 100000
  master list distance cutoff = 6
  ghost atom cutoff = 6
  2 neighbor lists, perpetual/occasional/extra = 2 0 0
  (1) pair meam, perpetual
      attributes: full, newton on
      pair build: full/nsq
      stencil: none
      bin: none
  (2) pair meam, perpetual, half/full from (1)
      attributes: half, newton on
      pair build: halffull/newton
      stencil: none
      bin: none
Per MPI rank memory allocation (min/avg/max) = 9.77 | 9.773 | 9.775 Mbytes
   Step          Temp          PotEng         Press           Pxx            Pyy            Pzz            Pxy            Pxz            Pyz             Lx             Ly             Lz           Volume    
         1   0             -249.984       -1.2720798      0.41932476    -4.6548357      0.41927156    -4.2829234e-06  8.1572905e-07 -1.5940338e-07  6.1083658      9.1625579      12.216732      683.74917    
         2   0             -249.984       -1.2721062      0.41927942    -4.6548894      0.4192913     -1.9243476e-06  1.9804382e-06  3.0663203e-06  6.1083658      9.1625579      12.216732      683.74917    
         3   0             -249.984       -1.2721051      0.41928584    -4.6548897      0.41928864    -5.3204424e-07  7.8520328e-07  5.6758414e-07  6.1083658      9.1625579      12.216732      683.74917    
         4   0             -249.984       -1.2721038      0.41929539    -4.6548993      0.4192924      1.0258129e-07  5.6942109e-07 -1.2154168e-07  6.1083658      9.1625579      12.216732      683.74917    
         5   0             -249.984       -1.2721033      0.41929916    -4.6549047      0.41929556     5.3436204e-08  3.2538689e-07 -6.1379116e-08  6.1083658      9.1625579      12.216732      683.74917    
         6   0             -249.984       -1.2721032      0.41929982    -4.6549063      0.41929697     1.2724591e-08  1.5099935e-07  3.6241106e-09  6.1083658      9.1625579      12.216732      683.74917    
         7   0             -249.984       -1.2721031      0.4192995     -4.6549069      0.4192982      3.6904816e-09  6.0234504e-08  6.722608e-09   6.1083658      9.1625579      12.216732      683.74917    
         8   0             -249.984       -1.2721031      0.41929925    -4.6549071      0.41929872     1.6690515e-09  2.8439012e-08 -1.3348651e-09  6.1083658      9.1625579      12.216732      683.74917    
         9   0             -249.984       -1.272103       0.41929917    -4.6549072      0.41929897     4.3950211e-10  1.0024544e-08 -1.3308896e-09  6.1083658      9.1625579      12.216732      683.74917    
        10   0             -249.984       -1.272103       0.41929914    -4.6549073      0.41929907    -1.9694618e-10  3.3373964e-09 -2.6264477e-11  6.1083658      9.1625579      12.216732      683.74917    
        11   0             -249.984       -1.272103       0.41929913    -4.6549073      0.41929911    -7.7395726e-11  1.2563699e-09  1.2336037e-10  6.1083658      9.1625579      12.216732      683.74917    
        12   0             -249.984       -1.272103       0.41929913    -4.6549073      0.41929912    -4.4755248e-11  4.0898674e-10  6.1310031e-11  6.1083658      9.1625579      12.216732      683.74917    
        13   0             -249.984       -1.272103       0.41929913    -4.6549073      0.41929912     6.7737565e-11  1.191873e-10  -1.5603917e-12  6.1083658      9.1625579      12.216732      683.74917    
        14   0             -249.984       -1.272103       0.41929912    -4.6549073      0.41929912     1.3851477e-11  4.945898e-12  -2.8540281e-12  6.1083658      9.1625579      12.216732      683.74917    
        15   0             -249.984       -1.272103       0.41929912    -4.6549073      0.41929912    -4.3237422e-11 -8.5006035e-13  2.5440838e-12  6.1083658      9.1625579      12.216732      683.74917    
        16   0             -249.984       -1.272103       0.41929912    -4.6549073      0.41929912     2.3680578e-11  7.5611166e-12 -1.0485263e-11  6.1083658      9.1625579      12.216732      683.74917    
        17   0             -249.984       -1.272103       0.41929913    -4.6549073      0.41929912    -2.8170467e-11  5.2466964e-12 -3.2149353e-11  6.1083658      9.1625579      12.216732      683.74917    
        18   0             -249.984       -1.272103       0.41929912    -4.6549073      0.41929912     2.2609493e-12 -9.6601e-12     5.1387748e-11  6.1083658      9.1625579      12.216732      683.74917    
        19   0             -249.984       -1.272103       0.41929912    -4.6549073      0.41929912    -1.8802595e-11 -2.1494383e-11 -2.2562421e-11  6.1083658      9.1625579      12.216732      683.74917    
        20   0             -249.984       -1.272103       0.41929912    -4.6549073      0.41929912     1.9268341e-11 -1.6987996e-11  1.7682068e-13  6.1083658      9.1625579      12.216732      683.74917    
        21   0             -249.984       -1.272103       0.41929912    -4.6549073      0.41929912     5.7032205e-12  3.0247515e-12 -2.4532345e-11  6.1083658      9.1625579      12.216732      683.74917    
        22   0             -249.984       -1.272103       0.41929912    -4.6549073      0.41929912     2.2366558e-12 -4.3884556e-11  1.0392788e-11  6.1083658      9.1625579      12.216732      683.74917    
        23   0             -249.984       -1.272103       0.41929913    -4.6549073      0.41929912    -5.3485523e-11 -1.6115071e-11  6.466251e-11   6.1083658      9.1625579      12.216732      683.74917    
        24   0             -249.984       -1.272103       0.41929912    -4.6549073      0.41929912     2.3646499e-11  2.0882624e-11 -8.3380097e-12  6.1083658      9.1625579      12.216732      683.74917    
        25   0             -249.984       -1.272103       0.41929912    -4.6549073      0.41929912    -4.1867956e-11 -1.732487e-11   4.1629584e-11  6.1083658      9.1625579      12.216732      683.74917    
        26   0             -249.984       -1.272103       0.41929913    -4.6549073      0.41929912     2.3348892e-11 -5.9956438e-12 -2.0781511e-13  6.1083658      9.1625579      12.216732      683.74917    
Loop time of 0.00678075 on 4 procs for 25 steps with 48 atoms

0.0% CPU use with 4 MPI tasks x 1 OpenMP threads

Minimization stats:
  Stopping criterion = force tolerance
  Energy initial, next-to-last, final = 
     -249.983999982647  -249.984000000074  -249.984000000074
  Force two-norm initial, final = 0.00057552917 3.0342626e-11
  Force max component initial, final = 0.0001194172 6.5847328e-12
  Final line search alpha, max atom move = 1 6.5847328e-12
  Iterations, force evaluations = 25 50

MPI task timing breakdown:
Section |  min time  |  avg time  |  max time  |%varavg| %total
---------------------------------------------------------------
Pair    | 0.005254   | 0.0055263  | 0.005802   |   0.3 | 81.50
Neigh   | 0          | 0          | 0          |   0.0 |  0.00
Comm    | 0.00051    | 0.00075475 | 0.001046   |   0.0 | 11.13
Output  | 0.000214   | 0.00022725 | 0.000252   |   0.0 |  3.35
Modify  | 0          | 0          | 0          |   0.0 |  0.00
Other   |            | 0.0002725  |            |       |  4.02

Nlocal:             12 ave          15 max          10 min
Histogram: 1 0 1 0 1 0 0 0 0 1
Nghost:            293 ave         295 max         290 min
Histogram: 1 0 0 0 0 0 1 0 1 1
Neighs:            348 ave         438 max         274 min
Histogram: 1 0 0 1 1 0 0 0 0 1
FullNghs:          696 ave         870 max         580 min
Histogram: 1 0 1 0 1 0 0 0 0 1

Total # of neighbors = 2784
Ave neighs/atom = 58
Neighbor list builds = 0
Dangerous builds = 0

# Obtain new stress tensor

variable tmp equal pe
variable e1 equal ${tmp}
variable e1 equal -249.984000000074
variable tmp equal press
variable p1 equal ${tmp}
variable p1 equal -1.27210302685582
variable tmp equal pxx
variable pxx1 equal ${tmp}
variable pxx1 equal 0.419299125005672
variable tmp equal pyy
variable pyy1 equal ${tmp}
variable pyy1 equal -4.65490732983061
variable tmp equal pzz
variable pzz1 equal ${tmp}
variable pzz1 equal 0.41929912425748
variable tmp equal pxy
variable pxy1 equal ${tmp}
variable pxy1 equal 2.33488917822808e-11
variable tmp equal pxz
variable pxz1 equal ${tmp}
variable pxz1 equal -5.99564379915524e-12
variable tmp equal pyz
variable pyz1 equal ${tmp}
variable pyz1 equal -2.07815111343601e-13

# Compute elastic constant from pressure tensor

variable C1pos equal ${d1}
variable C1pos equal -41.92991246386
variable C2pos equal ${d2}
variable C2pos equal 465.490733033114
variable C3pos equal ${d3}
variable C3pos equal -41.9299124582408
variable C4pos equal ${d4}
variable C4pos equal 3.12957674032914e-09
variable C5pos equal ${d5}
variable C5pos equal 3.88192319353117e-10
variable C6pos equal ${d6}
variable C6pos equal 8.297022173343e-10

# Combine positive and negative

variable C1${dir} equal 0.5*(${C1neg}+${C1pos})
variable C12 equal 0.5*(${C1neg}+${C1pos})
variable C12 equal 0.5*(-41.9293461722394+${C1pos})
variable C12 equal 0.5*(-41.9293461722394+-41.92991246386)
variable C2${dir} equal 0.5*(${C2neg}+${C2pos})
variable C22 equal 0.5*(${C2neg}+${C2pos})
variable C22 equal 0.5*(465.493352259296+${C2pos})
variable C22 equal 0.5*(465.493352259296+465.490733033114)
variable C3${dir} equal 0.5*(${C3neg}+${C3pos})
variable C32 equal 0.5*(${C3neg}+${C3pos})
variable C32 equal 0.5*(-41.9293461897736+${C3pos})
variable C32 equal 0.5*(-41.9293461897736+-41.9299124582408)
variable C4${dir} equal 0.5*(${C4neg}+${C4pos})
variable C42 equal 0.5*(${C4neg}+${C4pos})
variable C42 equal 0.5*(-1.47767199033731e-09+${C4pos})
variable C42 equal 0.5*(-1.47767199033731e-09+3.12957674032914e-09)
variable C5${dir} equal 0.5*(${C5neg}+${C5pos})
variable C52 equal 0.5*(${C5neg}+${C5pos})
variable C52 equal 0.5*(1.75129019650575e-09+${C5pos})
variable C52 equal 0.5*(1.75129019650575e-09+3.88192319353117e-10)
variable C6${dir} equal 0.5*(${C6neg}+${C6pos})
variable C62 equal 0.5*(${C6neg}+${C6pos})
variable C62 equal 0.5*(-4.37455408329135e-09+${C6pos})
variable C62 equal 0.5*(-4.37455408329135e-09+8.297022173343e-10)

# Delete dir to make sure it is not reused

variable dir delete

# uzz Perturbation

variable dir equal 3
include displace.mod
# NOTE: This script should not need to be
# modified. See in.elastic for more info.
#
# Find which reference length to use

if "${dir} == 1" then    "variable len0 equal ${lx0}"
if "${dir} == 2" then    "variable len0 equal ${ly0}"
if "${dir} == 3" then    "variable len0 equal ${lz0}"
variable len0 equal ${lz0}
variable len0 equal 12.2167316959261
if "${dir} == 4" then    "variable len0 equal ${lz0}"
if "${dir} == 5" then    "variable len0 equal ${lz0}"
if "${dir} == 6" then    "variable len0 equal ${ly0}"

# Reset box and simulation parameters

clear
  using 1 OpenMP thread(s) per MPI task
Loaded 1 plugins from C:\Program Files\LAMMPS 64-bit 23Jun2022\plugins
Loaded 0 plugins from C:\Program Files\LAMMPS 64-bit 23Jun2022-MPI\plugins
Loaded 1 plugins from C:\Program Files\LAMMPS 64-bit 22Dec2022-MSMPI\plugins
Loaded 1 plugins from C:\Program Files\LAMMPS 64-bit 28Mar2023-MPI\plugins
box tilt large

The 'box' command has been removed and will be ignored

read_restart restart.equil
Reading restart file ...
  restart file = 22 Dec 2022, LAMMPS = 22 Dec 2022
  restoring atom style atomic from restart
  triclinic box = (-0.017091462 -0.017091462 -0.017091462) to (6.0912744 9.1454573 12.19964) with tilt (0 0 0)
  1 by 2 by 2 MPI processor grid
  pair style meam stores no restart info
  48 atoms
  read_restart CPU = 0.000 seconds
include potential.mod
# NOTE: This script can be modified for different pair styles
# See in.elastic for more info.

# Choose potential
#-----------------------
#pair_style	sw
#pair_coeff * * Si.sw Si
#-----------------------
#pair_style morse	2.83994742	# D0[eV] a[1/A] r0[A] rc[A], 1NN for BCC
#pair_coeff 1 1	2.1173	1.0202	2.4595	2.6497	#	Fe-Fe
#-----------------------
#pair_style smatb # R0(A)   p       q     A(eV)   xi(eV)  Rcs(A)   Rc(A), 4NN: Rcs=4NN, Rc=(4NN+5NN)/2
#pair_coeff 1 1	2.4802	7.0149	2.3779	0.3144	3.0551	4.033	4.176	#	Co	Co
#-----------------------
#pair_style eam/alloy
#pair_coeff * * AlCrFeCoNi_Zhou04.eam.alloy Fe
#-----------------------
pair_style meam
pair_coeff * * ./../../library.meam Ti V N ./../../TiVN.meam Ti V
#-----------------------

# Setup neighbor style
neighbor 1.0 nsq
neigh_modify once no every 1 delay 0 check yes

# Setup minimization style
min_style	     cg
min_modify	     dmax ${dmax} line quadratic
min_modify	     dmax 0.01 line quadratic

# Setup output
thermo		1
thermo_style custom step temp pe press pxx pyy pzz pxy pxz pyz lx ly lz vol
thermo_modify norm no

# Negative deformation

variable delta equal -${up}*${len0}
variable delta equal -1e-06*${len0}
variable delta equal -1e-06*12.2167316959261
variable deltaxy equal -${up}*xy
variable deltaxy equal -1e-06*xy
variable deltaxz equal -${up}*xz
variable deltaxz equal -1e-06*xz
variable deltayz equal -${up}*yz
variable deltayz equal -1e-06*yz
if "${dir} == 1" then    "change_box all x delta 0 ${delta} xy delta ${deltaxy} xz delta ${deltaxz} remap units box"
if "${dir} == 2" then    "change_box all y delta 0 ${delta} yz delta ${deltayz} remap units box"
if "${dir} == 3" then    "change_box all z delta 0 ${delta} remap units box"
change_box all z delta 0 ${delta} remap units box
change_box all z delta 0 -1.22167316959261e-05 remap units box
Changing box ...
  triclinic box = (-0.017091462 -0.017091462 -0.017091462) to (6.0912744 9.1454573 12.199628) with tilt (0 0 0)
if "${dir} == 4" then    "change_box all yz delta ${delta} remap units box"
if "${dir} == 5" then    "change_box all xz delta ${delta} remap units box"
if "${dir} == 6" then    "change_box all xy delta ${delta} remap units box"

# Relax atoms positions

minimize ${etol} ${ftol} ${maxiter} ${maxeval}
minimize 0 ${ftol} ${maxiter} ${maxeval}
minimize 0 1e-10 ${maxiter} ${maxeval}
minimize 0 1e-10 100 ${maxeval}
minimize 0 1e-10 100 1000
Neighbor list info ...
  update: every = 1 steps, delay = 0 steps, check = yes
  max neighbors/atom: 2000, page size: 100000
  master list distance cutoff = 6
  ghost atom cutoff = 6
  2 neighbor lists, perpetual/occasional/extra = 2 0 0
  (1) pair meam, perpetual
      attributes: full, newton on
      pair build: full/nsq
      stencil: none
      bin: none
  (2) pair meam, perpetual, half/full from (1)
      attributes: half, newton on
      pair build: halffull/newton
      stencil: none
      bin: none
Per MPI rank memory allocation (min/avg/max) = 9.77 | 9.773 | 9.775 Mbytes
   Step          Temp          PotEng         Press           Pxx            Pyy            Pzz            Pxy            Pxz            Pyz             Lx             Ly             Lz           Volume    
         1   0             -249.984        1.2721388     -0.41926782    -0.41922188     4.654906      -4.2828384e-06  8.1562188e-07 -1.5941711e-07  6.1083658      9.1625488      12.216719      683.7478     
         2   0             -249.984        1.2721123     -0.41931316    -0.41927555     4.6549257     -1.9244001e-06  1.9804192e-06  3.0663038e-06  6.1083658      9.1625488      12.216719      683.7478     
         3   0             -249.984        1.2721135     -0.41930674    -0.41927586     4.654923      -5.3205663e-07  7.8518893e-07  5.6754047e-07  6.1083658      9.1625488      12.216719      683.7478     
         4   0             -249.984        1.2721147     -0.41929719    -0.41928539     4.6549268      1.0264062e-07  5.6936736e-07 -1.2159254e-07  6.1083658      9.1625488      12.216719      683.7478     
         5   0             -249.984        1.2721152     -0.41929342    -0.41929086     4.65493        5.3391767e-08  3.2541289e-07 -6.142047e-08   6.1083658      9.1625488      12.216719      683.7478     
         6   0             -249.984        1.2721154     -0.41929277    -0.41929239     4.6549314      1.2729348e-08  1.5097387e-07  3.6234573e-09  6.1083658      9.1625488      12.216719      683.7478     
         7   0             -249.984        1.2721155     -0.41929309    -0.41929307     4.6549326      3.7251638e-09  6.0224063e-08  6.6556561e-09  6.1083658      9.1625488      12.216719      683.7478     
         8   0             -249.984        1.2721155     -0.41929333    -0.41929326     4.6549331      1.6908927e-09  2.8429893e-08 -1.3896482e-09  6.1083658      9.1625488      12.216719      683.7478     
         9   0             -249.984        1.2721155     -0.41929342    -0.41929338     4.6549334      4.2483112e-10  9.9835778e-09 -1.37014e-09    6.1083658      9.1625488      12.216719      683.7478     
        10   0             -249.984        1.2721155     -0.41929344    -0.41929343     4.6549335     -1.0814113e-10  3.3336227e-09 -5.2968062e-11  6.1083658      9.1625488      12.216719      683.7478     
        11   0             -249.984        1.2721155     -0.41929346    -0.41929345     4.6549335     -5.141278e-11   1.2509661e-09  9.7716995e-11  6.1083658      9.1625488      12.216719      683.7478     
        12   0             -249.984        1.2721155     -0.41929346    -0.41929346     4.6549335     -2.6571914e-11  3.8633059e-10  5.4553862e-11  6.1083658      9.1625488      12.216719      683.7478     
        13   0             -249.984        1.2721155     -0.41929346    -0.41929346     4.6549335     -2.3324103e-11  8.4920335e-11  6.0026677e-11  6.1083658      9.1625488      12.216719      683.7478     
        14   0             -249.984        1.2721155     -0.41929346    -0.41929346     4.6549335      1.4984772e-11  4.9921456e-12 -6.0972771e-15  6.1083658      9.1625488      12.216719      683.7478     
        15   0             -249.984        1.2721155     -0.41929346    -0.41929346     4.6549335     -6.9676749e-12 -3.7488092e-12  3.0585466e-11  6.1083658      9.1625488      12.216719      683.7478     
        16   0             -249.984        1.2721155     -0.41929346    -0.41929346     4.6549335      1.4760845e-11 -3.5179764e-11  2.5210716e-11  6.1083658      9.1625488      12.216719      683.7478     
        17   0             -249.984        1.2721155     -0.41929346    -0.41929346     4.6549335     -2.1097107e-11 -3.09198e-11   -4.0267434e-12  6.1083658      9.1625488      12.216719      683.7478     
        18   0             -249.984        1.2721155     -0.41929346    -0.41929346     4.6549335      1.501869e-11  -2.9900539e-11  3.5543569e-11  6.1083658      9.1625488      12.216719      683.7478     
        19   0             -249.984        1.2721155     -0.41929346    -0.41929346     4.6549335      3.9644236e-11 -2.2431374e-11 -2.0656559e-11  6.1083658      9.1625488      12.216719      683.7478     
        20   0             -249.984        1.2721155     -0.41929346    -0.41929346     4.6549335      1.3846353e-11 -6.4615894e-12  2.531183e-11   6.1083658      9.1625488      12.216719      683.7478     
        21   0             -249.984        1.2721155     -0.41929346    -0.41929346     4.6549335     -5.4394133e-11  7.0220308e-13 -3.3283511e-11  6.1083658      9.1625488      12.216719      683.7478     
        22   0             -249.984        1.2721155     -0.41929346    -0.41929346     4.6549335     -2.8049953e-12 -5.1887828e-12 -6.4412651e-12  6.1083658      9.1625488      12.216719      683.7478     
        23   0             -249.984        1.2721155     -0.41929346    -0.41929346     4.6549335     -8.4705654e-12 -8.2480916e-12  2.0272938e-11  6.1083658      9.1625488      12.216719      683.7478     
        24   0             -249.984        1.2721155     -0.41929346    -0.41929346     4.6549335     -3.2561229e-11 -2.5719331e-11  5.934683e-13   6.1083658      9.1625488      12.216719      683.7478     
        25   0             -249.984        1.2721155     -0.41929346    -0.41929346     4.6549335      7.4722977e-12 -1.8307583e-11 -5.3298839e-11  6.1083658      9.1625488      12.216719      683.7478     
        26   0             -249.984        1.2721155     -0.41929346    -0.41929346     4.6549335     -8.5237357e-13  1.9267396e-12  5.4936466e-12  6.1083658      9.1625488      12.216719      683.7478     
Loop time of 0.00713475 on 4 procs for 25 steps with 48 atoms

0.0% CPU use with 4 MPI tasks x 1 OpenMP threads

Minimization stats:
  Stopping criterion = force tolerance
  Energy initial, next-to-last, final = 
     -249.983999982647  -249.984000000074  -249.984000000074
  Force two-norm initial, final = 0.00057553009 3.0375221e-11
  Force max component initial, final = 0.00011941776 6.5395467e-12
  Final line search alpha, max atom move = 1 6.5395467e-12
  Iterations, force evaluations = 25 50

MPI task timing breakdown:
Section |  min time  |  avg time  |  max time  |%varavg| %total
---------------------------------------------------------------
Pair    | 0.005436   | 0.0056653  | 0.005859   |   0.2 | 79.40
Neigh   | 0          | 0          | 0          |   0.0 |  0.00
Comm    | 0.000595   | 0.00079475 | 0.001034   |   0.0 | 11.14
Output  | 0.000228   | 0.0002385  | 0.000266   |   0.0 |  3.34
Modify  | 0          | 0          | 0          |   0.0 |  0.00
Other   |            | 0.0004363  |            |       |  6.11

Nlocal:             12 ave          15 max          10 min
Histogram: 1 0 1 0 1 0 0 0 0 1
Nghost:            293 ave         295 max         290 min
Histogram: 1 0 0 0 0 0 1 0 1 1
Neighs:            348 ave         438 max         274 min
Histogram: 1 0 0 1 1 0 0 0 0 1
FullNghs:          696 ave         870 max         580 min
Histogram: 1 0 1 0 1 0 0 0 0 1

Total # of neighbors = 2784
Ave neighs/atom = 58
Neighbor list builds = 0
Dangerous builds = 0

# Obtain new stress tensor

variable tmp equal pxx
variable pxx1 equal ${tmp}
variable pxx1 equal -0.419293461588157
variable tmp equal pyy
variable pyy1 equal ${tmp}
variable pyy1 equal -0.419293461535606
variable tmp equal pzz
variable pzz1 equal ${tmp}
variable pzz1 equal 4.654933522892
variable tmp equal pxy
variable pxy1 equal ${tmp}
variable pxy1 equal -8.5237356651398e-13
variable tmp equal pxz
variable pxz1 equal ${tmp}
variable pxz1 equal 1.92673955571226e-12
variable tmp equal pyz
variable pyz1 equal ${tmp}
variable pyz1 equal 5.49364664460997e-12

# Compute elastic constant from pressure tensor

variable C1neg equal ${d1}
variable C1neg equal -41.9293461955229
variable C2neg equal ${d2}
variable C2neg equal -41.9293462036135
variable C3neg equal ${d3}
variable C3neg equal 465.493352321693
variable C4neg equal ${d4}
variable C4neg equal -2.55943056473378e-09
variable C5neg equal ${d5}
variable C5neg equal 4.04046016133633e-10
variable C6neg equal ${d6}
variable C6neg equal -3.24982875221378e-09

# Reset box and simulation parameters

clear
  using 1 OpenMP thread(s) per MPI task
Loaded 1 plugins from C:\Program Files\LAMMPS 64-bit 23Jun2022\plugins
Loaded 0 plugins from C:\Program Files\LAMMPS 64-bit 23Jun2022-MPI\plugins
Loaded 1 plugins from C:\Program Files\LAMMPS 64-bit 22Dec2022-MSMPI\plugins
Loaded 1 plugins from C:\Program Files\LAMMPS 64-bit 28Mar2023-MPI\plugins
box tilt large

The 'box' command has been removed and will be ignored

read_restart restart.equil
Reading restart file ...
  restart file = 22 Dec 2022, LAMMPS = 22 Dec 2022
  restoring atom style atomic from restart
  triclinic box = (-0.017091462 -0.017091462 -0.017091462) to (6.0912744 9.1454573 12.19964) with tilt (0 0 0)
  1 by 2 by 2 MPI processor grid
  pair style meam stores no restart info
  48 atoms
  read_restart CPU = 0.000 seconds
include potential.mod
# NOTE: This script can be modified for different pair styles
# See in.elastic for more info.

# Choose potential
#-----------------------
#pair_style	sw
#pair_coeff * * Si.sw Si
#-----------------------
#pair_style morse	2.83994742	# D0[eV] a[1/A] r0[A] rc[A], 1NN for BCC
#pair_coeff 1 1	2.1173	1.0202	2.4595	2.6497	#	Fe-Fe
#-----------------------
#pair_style smatb # R0(A)   p       q     A(eV)   xi(eV)  Rcs(A)   Rc(A), 4NN: Rcs=4NN, Rc=(4NN+5NN)/2
#pair_coeff 1 1	2.4802	7.0149	2.3779	0.3144	3.0551	4.033	4.176	#	Co	Co
#-----------------------
#pair_style eam/alloy
#pair_coeff * * AlCrFeCoNi_Zhou04.eam.alloy Fe
#-----------------------
pair_style meam
pair_coeff * * ./../../library.meam Ti V N ./../../TiVN.meam Ti V
#-----------------------

# Setup neighbor style
neighbor 1.0 nsq
neigh_modify once no every 1 delay 0 check yes

# Setup minimization style
min_style	     cg
min_modify	     dmax ${dmax} line quadratic
min_modify	     dmax 0.01 line quadratic

# Setup output
thermo		1
thermo_style custom step temp pe press pxx pyy pzz pxy pxz pyz lx ly lz vol
thermo_modify norm no

[...]

# Setup minimization style
min_style	     cg
min_modify	     dmax ${dmax} line quadratic
min_modify	     dmax 0.01 line quadratic

# Setup output
thermo		1
thermo_style custom step temp pe press pxx pyy pzz pxy pxz pyz lx ly lz vol
thermo_modify norm no

# Positive deformation

variable delta equal ${up}*${len0}
variable delta equal 1e-06*${len0}
variable delta equal 1e-06*9.1625487719446
variable deltaxy equal ${up}*xy
variable deltaxy equal 1e-06*xy
variable deltaxz equal ${up}*xz
variable deltaxz equal 1e-06*xz
variable deltayz equal ${up}*yz
variable deltayz equal 1e-06*yz
if "${dir} == 1" then    "change_box all x delta 0 ${delta} xy delta ${deltaxy} xz delta ${deltaxz} remap units box"
if "${dir} == 2" then    "change_box all y delta 0 ${delta} yz delta ${deltayz} remap units box"
if "${dir} == 3" then    "change_box all z delta 0 ${delta} remap units box"
if "${dir} == 4" then    "change_box all yz delta ${delta} remap units box"
if "${dir} == 5" then    "change_box all xz delta ${delta} remap units box"
if "${dir} == 6" then    "change_box all xy delta ${delta} remap units box"
change_box all xy delta ${delta} remap units box
change_box all xy delta 9.1625487719446e-06 remap units box
Changing box ...
  triclinic box = (-0.017091462 -0.017091462 -0.017091462) to (6.0912744 9.1454573 12.19964) with tilt (9.1625488e-06 0 0)

# Relax atoms positions

minimize ${etol} ${ftol} ${maxiter} ${maxeval}
minimize 0 ${ftol} ${maxiter} ${maxeval}
minimize 0 1e-10 ${maxiter} ${maxeval}
minimize 0 1e-10 100 ${maxeval}
minimize 0 1e-10 100 1000
Neighbor list info ...
  update: every = 1 steps, delay = 0 steps, check = yes
  max neighbors/atom: 2000, page size: 100000
  master list distance cutoff = 6
  ghost atom cutoff = 6
  2 neighbor lists, perpetual/occasional/extra = 2 0 0
  (1) pair meam, perpetual
      attributes: full, newton on
      pair build: full/nsq
      stencil: none
      bin: none
  (2) pair meam, perpetual, half/full from (1)
      attributes: half, newton on
      pair build: halffull/newton
      stencil: none
      bin: none
Per MPI rank memory allocation (min/avg/max) = 9.77 | 9.773 | 9.775 Mbytes
   Step          Temp          PotEng         Press           Pxx            Pyy            Pzz            Pxy            Pxz            Pyz             Lx             Ly             Lz           Volume    
         1   0             -249.984        2.3112353e-05  2.7989041e-05  7.2656007e-05 -3.1307989e-05 -0.63103789     8.1564651e-07 -1.5934193e-07  6.1083658      9.1625488      12.216732      683.74848    
         2   0             -249.984       -3.3133751e-06 -1.7350061e-05  1.8990375e-05 -1.1580439e-05 -0.63103554     1.9804349e-06  3.0662894e-06  6.1083658      9.1625488      12.216732      683.74848    
         3   0             -249.984       -2.1666731e-06 -1.0930642e-05  1.8672322e-05 -1.4241699e-05 -0.63103414     7.8518198e-07  5.6754082e-07  6.1083658      9.1625488      12.216732      683.74848    
         4   0             -249.984       -9.0452968e-07 -1.3774799e-06  9.143909e-06  -1.0480018e-05 -0.63103351     5.6940284e-07 -1.2156351e-07  6.1083658      9.1625488      12.216732      683.74848    
         5   0             -249.984       -4.1754853e-07  2.3908243e-06  3.6746449e-06 -7.3181148e-06 -0.63103356     3.2538371e-07 -6.1432084e-08  6.1083658      9.1625488      12.216732      683.74848    
         6   0             -249.984       -2.411264e-07   3.0429918e-06  2.1427596e-06 -5.9091306e-06 -0.6310336      1.5104176e-07  3.6197592e-09  6.1083658      9.1625488      12.216732      683.74848    
         7   0             -249.984       -1.6175369e-07  2.7275732e-06  1.4713473e-06 -4.6841815e-06 -0.63103361     6.0219498e-08  6.6496827e-09  6.1083658      9.1625488      12.216732      683.74848    
         8   0             -249.984       -1.3325098e-07  2.479143e-06   1.2782429e-06 -4.1571389e-06 -0.63103361     2.8425002e-08 -1.3679156e-09  6.1083658      9.1625488      12.216732      683.74848    
         9   0             -249.984       -1.1755413e-07  2.3975325e-06  1.1570202e-06 -3.9072151e-06 -0.63103361     9.9933682e-09 -1.3454741e-09  6.1083658      9.1625488      12.216732      683.74848    
        10   0             -249.984       -1.1208486e-07  2.3706239e-06  1.1033387e-06 -3.8102172e-06 -0.63103361     3.3165054e-09 -1.062043e-10   6.1083658      9.1625488      12.216732      683.74848    
        11   0             -249.984       -1.101738e-07   2.3564166e-06  1.0852469e-06 -3.7721848e-06 -0.63103361     1.2397556e-09  1.3410846e-10  6.1083658      9.1625488      12.216732      683.74848    
        12   0             -249.984       -1.0937444e-07  2.3529792e-06  1.078844e-06  -3.7599466e-06 -0.63103361     3.8610511e-10  4.6116709e-11  6.1083658      9.1625488      12.216732      683.74848    
        13   0             -249.984       -1.090698e-07   2.352198e-06   1.0772249e-06 -3.7566323e-06 -0.63103361     4.8734471e-11 -5.3659033e-11  6.1083658      9.1625488      12.216732      683.74848    
        14   0             -249.984       -1.0915149e-07  2.3516813e-06  1.0765776e-06 -3.7557134e-06 -0.63103361    -5.143861e-11  -4.1683485e-11  6.1083658      9.1625488      12.216732      683.74848    
        15   0             -249.984       -1.0910835e-07  2.3518239e-06  1.0764038e-06 -3.7555528e-06 -0.63103361     1.794935e-11  -1.9859828e-11  6.1083658      9.1625488      12.216732      683.74848    
        16   0             -249.984       -1.0907609e-07  2.3516522e-06  1.076689e-06  -3.7555694e-06 -0.63103361     8.1418892e-12 -4.1471097e-11  6.1083658      9.1625488      12.216732      683.74848    
        17   0             -249.984       -1.0910336e-07  2.3517451e-06  1.0764444e-06 -3.7554996e-06 -0.63103361    -4.8532753e-11 -3.1886187e-11  6.1083658      9.1625488      12.216732      683.74848    
        18   0             -249.984       -1.0906482e-07  2.3518686e-06  1.0765682e-06 -3.7556313e-06 -0.63103361     5.0922375e-12  3.0841521e-11  6.1083658      9.1625488      12.216732      683.74848    
        19   0             -249.984       -1.0908979e-07  2.351705e-06   1.0766452e-06 -3.7556196e-06 -0.63103361    -3.2301309e-11  1.6435702e-11  6.1083658      9.1625488      12.216732      683.74848    
        20   0             -249.984       -1.0904678e-07  2.3517955e-06  1.0764964e-06 -3.7554323e-06 -0.63103361     4.5760019e-12  1.2646248e-11  6.1083658      9.1625488      12.216732      683.74848    
        21   0             -249.984       -1.0914004e-07  2.3516805e-06  1.0765443e-06 -3.755645e-06  -0.63103361    -6.3497488e-11  1.3146224e-11  6.1083658      9.1625488      12.216732      683.74848    
        22   0             -249.984       -1.0907947e-07  2.3517305e-06  1.0767889e-06 -3.7557578e-06 -0.63103361    -3.9393452e-11 -1.8617509e-11  6.1083658      9.1625488      12.216732      683.74848    
        23   0             -249.984       -1.0903434e-07  2.3515494e-06  1.0768565e-06 -3.7555089e-06 -0.63103361     2.1620415e-11 -1.6969721e-11  6.1083658      9.1625488      12.216732      683.74848    
        24   0             -249.984       -1.0898482e-07  2.3518278e-06  1.0768919e-06 -3.7556741e-06 -0.63103361    -4.2153991e-11  1.2882517e-11  6.1083658      9.1625488      12.216732      683.74848    
        25   0             -249.984       -1.0895438e-07  2.3519295e-06  1.0769273e-06 -3.7557199e-06 -0.63103361    -4.2320142e-12  3.566497e-11   6.1083658      9.1625488      12.216732      683.74848    
        26   0             -249.984       -1.0906907e-07  2.3516886e-06  1.0768201e-06 -3.7557159e-06 -0.63103361    -3.2589405e-11 -9.2830951e-13  6.1083658      9.1625488      12.216732      683.74848    
Loop time of 0.006568 on 4 procs for 25 steps with 48 atoms

0.0% CPU use with 4 MPI tasks x 1 OpenMP threads

Minimization stats:
  Stopping criterion = force tolerance
  Energy initial, next-to-last, final = 
     -249.983999983506  -249.984000000932  -249.984000000932
  Force two-norm initial, final = 0.00057553034 3.0341436e-11
  Force max component initial, final = 0.00011941765 6.5842887e-12
  Final line search alpha, max atom move = 1 6.5842887e-12
  Iterations, force evaluations = 25 50

MPI task timing breakdown:
Section |  min time  |  avg time  |  max time  |%varavg| %total
---------------------------------------------------------------
Pair    | 0.005202   | 0.0054835  | 0.005761   |   0.3 | 83.49
Neigh   | 0          | 0          | 0          |   0.0 |  0.00
Comm    | 0.000343   | 0.000622   | 0.000908   |   0.0 |  9.47
Output  | 0.000225   | 0.0002335  | 0.000257   |   0.0 |  3.56
Modify  | 0          | 0          | 0          |   0.0 |  0.00
Other   |            | 0.000229   |            |       |  3.49

Nlocal:             12 ave          15 max          10 min
Histogram: 1 0 1 0 1 0 0 0 0 1
Nghost:            293 ave         295 max         290 min
Histogram: 1 0 0 0 0 0 1 0 1 1
Neighs:            348 ave         438 max         274 min
Histogram: 1 0 0 1 1 0 0 0 0 1
FullNghs:          696 ave         870 max         580 min
Histogram: 1 0 1 0 1 0 0 0 0 1

Total # of neighbors = 2784
Ave neighs/atom = 58
Neighbor list builds = 0
Dangerous builds = 0

# Obtain new stress tensor

variable tmp equal pe
variable e1 equal ${tmp}
variable e1 equal -249.984000000932
variable tmp equal press
variable p1 equal ${tmp}
variable p1 equal -1.09069067209487e-07
variable tmp equal pxx
variable pxx1 equal ${tmp}
variable pxx1 equal 2.35168860448491e-06
variable tmp equal pyy
variable pyy1 equal ${tmp}
variable pyy1 equal 1.07682006893461e-06
variable tmp equal pzz
variable pzz1 equal ${tmp}
variable pzz1 equal -3.75571587504798e-06
variable tmp equal pxy
variable pxy1 equal ${tmp}
variable pxy1 equal -0.631033610952743
variable tmp equal pxz
variable pxz1 equal ${tmp}
variable pxz1 equal -3.25894052702217e-11
variable tmp equal pyz
variable pyz1 equal ${tmp}
variable pyz1 equal -9.28309506364224e-13

# Compute elastic constant from pressure tensor

variable C1pos equal ${d1}
variable C1pos equal -0.000235132153251266
variable C2pos equal ${d2}
variable C2pos equal -0.00010763195398952
variable C3pos equal ${d3}
variable C3pos equal 0.000375539094741273
variable C4pos equal ${d4}
variable C4pos equal 3.2016261798312e-09
variable C5pos equal ${d5}
variable C5pos equal 3.04756846645976e-09
variable C6pos equal ${d6}
variable C6pos equal 63.1033610984389

# Combine positive and negative

variable C1${dir} equal 0.5*(${C1neg}+${C1pos})
variable C16 equal 0.5*(${C1neg}+${C1pos})
variable C16 equal 0.5*(0.000235152418954057+${C1pos})
variable C16 equal 0.5*(0.000235152418954057+-0.000235132153251266)
variable C2${dir} equal 0.5*(${C2neg}+${C2pos})
variable C26 equal 0.5*(${C2neg}+${C2pos})
variable C26 equal 0.5*(0.000107613327233167+${C2pos})
variable C26 equal 0.5*(0.000107613327233167+-0.00010763195398952)
variable C3${dir} equal 0.5*(${C3neg}+${C3pos})
variable C36 equal 0.5*(${C3neg}+${C3pos})
variable C36 equal 0.5*(-0.000375540369477392+${C3pos})
variable C36 equal 0.5*(-0.000375540369477392+0.000375539094741273)
variable C4${dir} equal 0.5*(${C4neg}+${C4pos})
variable C46 equal 0.5*(${C4neg}+${C4pos})
variable C46 equal 0.5*(-2.91871280646306e-09+${C4pos})
variable C46 equal 0.5*(-2.91871280646306e-09+3.2016261798312e-09)
variable C5${dir} equal 0.5*(${C5neg}+${C5pos})
variable C56 equal 0.5*(${C5neg}+${C5pos})
variable C56 equal 0.5*(1.39581775858411e-09+${C5pos})
variable C56 equal 0.5*(1.39581775858411e-09+3.04756846645976e-09)
variable C6${dir} equal 0.5*(${C6neg}+${C6pos})
variable C66 equal 0.5*(${C6neg}+${C6pos})
variable C66 equal 0.5*(63.1033610942051+${C6pos})
variable C66 equal 0.5*(63.1033610942051+63.1033610984389)

# Delete dir to make sure it is not reused

variable dir delete

# Output final values

variable C11all equal ${C11}
variable C11all equal 465.492042652839
variable C22all equal ${C22}
variable C22all equal 465.492042646205
variable C33all equal ${C33}
variable C33all equal 465.492042669286

variable C12all equal 0.5*(${C12}+${C21})
variable C12all equal 0.5*(-41.9296293180497+${C21})
variable C12all equal 0.5*(-41.9296293180497+-41.9296293159815)
variable C13all equal 0.5*(${C13}+${C31})
variable C13all equal 0.5*(-41.9296293256071+${C31})
variable C13all equal 0.5*(-41.9296293256071+-41.9296293205082)
variable C23all equal 0.5*(${C23}+${C32})
variable C23all equal 0.5*(-41.9296293169701+${C32})
variable C23all equal 0.5*(-41.9296293169701+-41.9296293240072)

variable C44all equal ${C44}
variable C44all equal 63.1033610884626
variable C55all equal ${C55}
variable C55all equal 63.1033610963915
variable C66all equal ${C66}
variable C66all equal 63.103361096322

variable C14all equal 0.5*(${C14}+${C41})
variable C14all equal 0.5*(8.58495753650111e-09+${C41})
variable C14all equal 0.5*(8.58495753650111e-09+1.79241990099488e-09)
variable C15all equal 0.5*(${C15}+${C51})
variable C15all equal 0.5*(-7.67443173490786e-10+${C51})
variable C15all equal 0.5*(-7.67443173490786e-10+-5.76395676451684e-09)
variable C16all equal 0.5*(${C16}+${C61})
variable C16all equal 0.5*(1.01328513955017e-08+${C61})
variable C16all equal 0.5*(1.01328513955017e-08+-3.3384865219617e-10)

variable C24all equal 0.5*(${C24}+${C42})
variable C24all equal 0.5*(-7.49232657749758e-09+${C42})
variable C24all equal 0.5*(-7.49232657749758e-09+8.25952374995915e-10)
variable C25all equal 0.5*(${C25}+${C52})
variable C25all equal 0.5*(4.37052383650202e-09+${C52})
variable C25all equal 0.5*(4.37052383650202e-09+1.06974125792943e-09)
variable C26all equal 0.5*(${C26}+${C62})
variable C26all equal 0.5*(-9.31337817650313e-09+${C62})
variable C26all equal 0.5*(-9.31337817650313e-09+-1.77242593297852e-09)

variable C34all equal 0.5*(${C34}+${C43})
variable C34all equal 0.5*(1.32481503805013e-08+${C43})
variable C34all equal 0.5*(1.32481503805013e-08+2.66910365607195e-09)
variable C35all equal 0.5*(${C35}+${C53})
variable C35all equal 0.5*(-3.71364451000236e-09+${C53})
variable C35all equal 0.5*(-3.71364451000236e-09+-9.75765430368419e-10)
variable C36all equal 0.5*(${C36}+${C63})
variable C36all equal 0.5*(-6.37368059480843e-10+${C63})
variable C36all equal 0.5*(-6.37368059480843e-10+-2.1099825597297e-10)

variable C45all equal 0.5*(${C45}+${C54})
variable C45all equal 0.5*(-6.64831184237695e-10+${C54})
variable C45all equal 0.5*(-6.64831184237695e-10+1.16440091968231e-09)
variable C46all equal 0.5*(${C46}+${C64})
variable C46all equal 0.5*(1.4145668668407e-10+${C64})
variable C46all equal 0.5*(1.4145668668407e-10+-1.49180758421718e-09)
variable C56all equal 0.5*(${C56}+${C65})
variable C56all equal 0.5*(2.22169311252194e-09+${C65})
variable C56all equal 0.5*(2.22169311252194e-09+1.9189460984896e-10)

# Average moduli for cubic crystals

variable C11cubic equal (${C11all}+${C22all}+${C33all})/3.0
variable C11cubic equal (465.492042652839+${C22all}+${C33all})/3.0
variable C11cubic equal (465.492042652839+465.492042646205+${C33all})/3.0
variable C11cubic equal (465.492042652839+465.492042646205+465.492042669286)/3.0
variable C12cubic equal (${C12all}+${C13all}+${C23all})/3.0
variable C12cubic equal (-41.9296293170156+${C13all}+${C23all})/3.0
variable C12cubic equal (-41.9296293170156+-41.9296293230577+${C23all})/3.0
variable C12cubic equal (-41.9296293170156+-41.9296293230577+-41.9296293204887)/3.0
variable C44cubic equal (${C44all}+${C55all}+${C66all})/3.0
variable C44cubic equal (63.1033610884626+${C55all}+${C66all})/3.0
variable C44cubic equal (63.1033610884626+63.1033610963915+${C66all})/3.0
variable C44cubic equal (63.1033610884626+63.1033610963915+63.103361096322)/3.0

variable bulkmodulus equal (${C11cubic}+2*${C12cubic})/3.0
variable bulkmodulus equal (465.49204265611+2*${C12cubic})/3.0
variable bulkmodulus equal (465.49204265611+2*-41.9296293201873)/3.0
variable shearmodulus1 equal ${C44cubic}
variable shearmodulus1 equal 63.1033610937254
variable shearmodulus2 equal (${C11cubic}-${C12cubic})/2.0
variable shearmodulus2 equal (465.49204265611-${C12cubic})/2.0
variable shearmodulus2 equal (465.49204265611--41.9296293201873)/2.0
variable poissonratio equal 1.0/(1.0+${C11cubic}/${C12cubic})
variable poissonratio equal 1.0/(1.0+465.49204265611/${C12cubic})
variable poissonratio equal 1.0/(1.0+465.49204265611/-41.9296293201873)

# For Stillinger-Weber silicon, the analytical results
# are known to be (E. R. Cowley, 1988):
#               C11 = 151.4 GPa
#               C12 = 76.4 GPa
#               C44 = 56.4 GPa

print "========================================="
=========================================
print "Components of the Elastic Constant Tensor"
Components of the Elastic Constant Tensor
print "========================================="
=========================================

print "Elastic Constant C11all = ${C11all} ${cunits}"
Elastic Constant C11all = 465.492042652839 GPa
print "Elastic Constant C22all = ${C22all} ${cunits}"
Elastic Constant C22all = 465.492042646205 GPa
print "Elastic Constant C33all = ${C33all} ${cunits}"
Elastic Constant C33all = 465.492042669286 GPa

print "Elastic Constant C12all = ${C12all} ${cunits}"
Elastic Constant C12all = -41.9296293170156 GPa
print "Elastic Constant C13all = ${C13all} ${cunits}"
Elastic Constant C13all = -41.9296293230577 GPa
print "Elastic Constant C23all = ${C23all} ${cunits}"
Elastic Constant C23all = -41.9296293204887 GPa

print "Elastic Constant C44all = ${C44all} ${cunits}"
Elastic Constant C44all = 63.1033610884626 GPa
print "Elastic Constant C55all = ${C55all} ${cunits}"
Elastic Constant C55all = 63.1033610963915 GPa
print "Elastic Constant C66all = ${C66all} ${cunits}"
Elastic Constant C66all = 63.103361096322 GPa

print "Elastic Constant C14all = ${C14all} ${cunits}"
Elastic Constant C14all = 5.188688718748e-09 GPa
print "Elastic Constant C15all = ${C15all} ${cunits}"
Elastic Constant C15all = -3.26569996900381e-09 GPa
print "Elastic Constant C16all = ${C16all} ${cunits}"
Elastic Constant C16all = 4.89950137165277e-09 GPa

print "Elastic Constant C24all = ${C24all} ${cunits}"
Elastic Constant C24all = -3.33318710125083e-09 GPa
print "Elastic Constant C25all = ${C25all} ${cunits}"
Elastic Constant C25all = 2.72013254721572e-09 GPa
print "Elastic Constant C26all = ${C26all} ${cunits}"
Elastic Constant C26all = -5.54290205474082e-09 GPa

print "Elastic Constant C34all = ${C34all} ${cunits}"
Elastic Constant C34all = 7.95862701828662e-09 GPa
print "Elastic Constant C35all = ${C35all} ${cunits}"
Elastic Constant C35all = -2.34470497018539e-09 GPa
print "Elastic Constant C36all = ${C36all} ${cunits}"
Elastic Constant C36all = -4.24183157726907e-10 GPa

print "Elastic Constant C45all = ${C45all} ${cunits}"
Elastic Constant C45all = 2.49784867722307e-10 GPa
print "Elastic Constant C46all = ${C46all} ${cunits}"
Elastic Constant C46all = -6.75175448766555e-10 GPa
print "Elastic Constant C56all = ${C56all} ${cunits}"
Elastic Constant C56all = 1.20679386118545e-09 GPa

print "========================================="
=========================================
print "Average properties for a cubic crystal"
Average properties for a cubic crystal
print "========================================="
=========================================

print "Bulk Modulus = ${bulkmodulus} ${cunits}"
Bulk Modulus = 127.210928005245 GPa
print "Shear Modulus 1 = ${shearmodulus1} ${cunits}"
Shear Modulus 1 = 63.1033610937254 GPa
print "Shear Modulus 2 = ${shearmodulus2} ${cunits}"
Shear Modulus 2 = 253.710835988149 GPa
print "Poisson Ratio = ${poissonratio}"
Poisson Ratio = -0.0989928001164102
Total wall time: 0:00:00
