LAMMPS (22 Dec 2022)
  using 1 OpenMP thread(s) per MPI task
Loaded 1 plugins from C:\Program Files\LAMMPS 64-bit 23Jun2022\plugins
Loaded 0 plugins from C:\Program Files\LAMMPS 64-bit 23Jun2022-MPI\plugins
Loaded 1 plugins from C:\Program Files\LAMMPS 64-bit 22Dec2022-MSMPI\plugins
Loaded 1 plugins from C:\Program Files\LAMMPS 64-bit 28Mar2023-MPI\plugins
# Compute elastic constant tensor for a crystal
#
# Written by Aidan Thompson (Sandia, athomps@sandia.gov)
#
#  This script uses the following three include files.
#
#   init.mod      (must be modified for different crystal structures)
# 	       	  Define units, deformation parameters and initial
#		  configuration of the atoms and simulation cell.
#
#
#   potential.mod    (must be modified for different pair styles)
# 		     Define pair style and other attributes
#		     not stored in restart file
#
#
#   displace.mod    (displace.mod should not need to be modified)
# 		    Perform positive and negative box displacements
# 		    in direction ${dir} and size ${up}.
# 		    It uses the resultant changes
#		    in stress to compute one
# 		    row of the elastic stiffness tensor
#
#		    Inputs variables:
#		    	   dir = the Voigt deformation component
#		    		    (1,2,3,4,5,6)
#		    Global constants:
#       	    	   up = the deformation magnitude (strain units)
#       		   cfac = conversion from LAMMPS pressure units to
#               	   output units for elastic constants
#
#
#  To run this on a different system, it should only be necessary to
#  modify the files init.mod and potential.mod. In order to calculate
#  the elastic constants correctly, care must be taken to specify
#  the correct units in init.mod (units, cfac and cunits). It is also
#  important to verify that the minimization of energy w.r.t atom
#  positions in the deformed cell is fully converged.
#  One indication of this is that the elastic constants are insensitive
#  to the choice of the variable ${up} in init.mod. Another is to check
#  the final max and two-norm forces reported in the log file. If you know
#  that minimization is not required, you can set maxiter = 0.0 in
#  init.mod.
#

include init.mod
# NOTE: This script can be modified for different atomic structures,
# units, etc. See in.elastic for more info.
#

# Define the finite deformation size. Try several values of this
# variable to verify that results do not depend on it.
variable up equal 1.0e-6

# Define the amount of random jiggle for atoms
# This prevents atoms from staying on saddle points
variable atomjiggle equal 1.0e-5

# Uncomment one of these blocks, depending on what units
# you are using in LAMMPS and for output

# metal units, elastic constants in eV/A^3
#units		metal
#variable cfac equal 6.2414e-7
#variable cunits string eV/A^3

# metal units, elastic constants in GPa
units		metal
variable cfac equal 1.0e-4
variable cunits string GPa

# real units, elastic constants in GPa
#units		real
#variable cfac equal 1.01325e-4
#variable cunits string GPa

# Define minimization parameters
variable etol equal 0.0
variable ftol equal 1.0e-10
variable maxiter equal 100
variable maxeval equal 1000
variable dmax equal 1.0e-2

# generate the box and atom positions using a diamond lattice

dimension    3
boundary     p p p
read_data    data.in
Reading data file ...
  orthogonal box = (0.002908538 0.002908538 0.002908538) to (3.0570915 3.0570915 3.0570915)
  1 by 2 by 2 MPI processor grid
  reading atoms ...
  2 atoms
  reading velocities ...
  2 velocities
  read_data CPU = 0.001 seconds
#replicate    2 3 4
replicate    4 6 8
Replication is creating a 4x6x8 = 192 times larger system...
  orthogonal box = (0.002908538 0.002908538 0.002908538) to (12.21964 18.328006 24.436372)
  1 by 2 by 2 MPI processor grid
  384 atoms
  replicate CPU = 0.000 seconds
change_box   all triclinic
Changing box ...
  triclinic box = (0.002908538 0.002908538 0.002908538) to (12.21964 18.328006 24.436372) with tilt (0 0 0)

# Need to set mass to something, just to satisfy LAMMPS
mass 1 1.0e-20

include potential.mod
# NOTE: This script can be modified for different pair styles
# See in.elastic for more info.

# Choose potential
#-----------------------
#pair_style	sw
#pair_coeff * * Si.sw Si
#-----------------------
#pair_style morse	2.83994742	# D0[eV] a[1/A] r0[A] rc[A], 1NN for BCC
#pair_coeff 1 1	2.1173	1.0202	2.4595	2.6497	#	Fe-Fe
#-----------------------
#pair_style smatb # R0(A)   p       q     A(eV)   xi(eV)  Rcs(A)   Rc(A), 4NN: Rcs=4NN, Rc=(4NN+5NN)/2
#pair_coeff 1 1	2.4802	7.0149	2.3779	0.3144	3.0551	4.033	4.176	#	Co	Co
#-----------------------
#pair_style eam/alloy
#pair_coeff * * AlCrFeCoNi_Zhou04.eam.alloy Fe
#-----------------------
pair_style meam
pair_coeff * * ./../../library.meam Ti V N ./../../TiVN.meam Ti V
#-----------------------

# Setup neighbor style
neighbor 1.0 nsq
neigh_modify once no every 1 delay 0 check yes

# Setup minimization style
min_style	     cg
min_modify	     dmax ${dmax} line quadratic
min_modify	     dmax 0.01 line quadratic

# Setup output
thermo		1
thermo_style custom step temp pe press pxx pyy pzz pxy pxz pyz lx ly lz vol
thermo_modify norm no

# Compute initial state
fix 3 all box/relax  aniso 0.0
minimize ${etol} ${ftol} ${maxiter} ${maxeval}
minimize 0 ${ftol} ${maxiter} ${maxeval}
minimize 0 1e-10 ${maxiter} ${maxeval}
minimize 0 1e-10 100 ${maxeval}
minimize 0 1e-10 100 1000
Neighbor list info ...
  update: every = 1 steps, delay = 0 steps, check = yes
  max neighbors/atom: 2000, page size: 100000
  master list distance cutoff = 6
  ghost atom cutoff = 6
  2 neighbor lists, perpetual/occasional/extra = 2 0 0
  (1) pair meam, perpetual
      attributes: full, newton on
      pair build: full/nsq
      stencil: none
      bin: none
  (2) pair meam, perpetual, half/full from (1)
      attributes: half, newton on
      pair build: halffull/newton
      stencil: none
      bin: none
Per MPI rank memory allocation (min/avg/max) = 9.903 | 9.903 | 9.903 Mbytes
   Step          Temp          PotEng         Press           Pxx            Pyy            Pzz            Pxy            Pxz            Pyz             Lx             Ly             Lz           Volume    
         0   0             -1999.872      -4.6333822e-10 -7.2548413e-10 -4.3141908e-10 -2.3311144e-10 -7.7980031e-11  2.2307882e-11  2.2772672e-11  12.216732      18.325098      24.433463      5469.9879    
         1   0             -1999.872       1.2197908e-09  2.6634403e-09  7.2991104e-10  2.6602107e-10 -1.2825406e-10 -1.0308453e-11 -1.4935773e-12  12.216732      18.325098      24.433463      5469.9879    
Loop time of 0.002003 on 4 procs for 1 steps with 384 atoms

0.0% CPU use with 4 MPI tasks x 1 OpenMP threads

Minimization stats:
  Stopping criterion = force tolerance
  Energy initial, next-to-last, final = 
     -1999.87200000854  -1999.87200000854  -1999.87200000854
  Force two-norm initial, final = 5.9245391e-12 1.0788389e-11
  Force max component initial, final = 2.4768741e-12 9.0932467e-12
  Final line search alpha, max atom move = 1 9.0932467e-12
  Iterations, force evaluations = 1 2

MPI task timing breakdown:
Section |  min time  |  avg time  |  max time  |%varavg| %total
---------------------------------------------------------------
Pair    | 0.001795   | 0.0018008  | 0.001809   |   0.0 | 89.90
Neigh   | 0          | 0          | 0          |   0.0 |  0.00
Comm    | 8.2e-05    | 8.775e-05  | 9.8e-05    |   0.0 |  4.38
Output  | 0          | 0          | 0          |   0.0 |  0.00
Modify  | 0          | 0          | 0          |   0.0 |  0.00
Other   |            | 0.0001145  |            |       |  5.72

Nlocal:             96 ave          96 max          96 min
Histogram: 4 0 0 0 0 0 0 0 0 0
Nghost:            646 ave         646 max         646 min
Histogram: 4 0 0 0 0 0 0 0 0 0
Neighs:           2784 ave        2784 max        2784 min
Histogram: 4 0 0 0 0 0 0 0 0 0
FullNghs:         5568 ave        5568 max        5568 min
Histogram: 4 0 0 0 0 0 0 0 0 0

Total # of neighbors = 22272
Ave neighs/atom = 58
Neighbor list builds = 0
Dangerous builds = 0

variable tmp equal pxx
variable pxx0 equal ${tmp}
variable pxx0 equal 2.66344030982014e-09
variable tmp equal pyy
variable pyy0 equal ${tmp}
variable pyy0 equal 7.29911041151229e-10
variable tmp equal pzz
variable pzz0 equal ${tmp}
variable pzz0 equal 2.66021074663974e-10
variable tmp equal pyz
variable pyz0 equal ${tmp}
variable pyz0 equal -1.49357733659422e-12
variable tmp equal pxz
variable pxz0 equal ${tmp}
variable pxz0 equal -1.03084527997358e-11
variable tmp equal pxy
variable pxy0 equal ${tmp}
variable pxy0 equal -1.28254062593559e-10

variable tmp equal lx
variable lx0 equal ${tmp}
variable lx0 equal 12.2167316959261
variable tmp equal ly
variable ly0 equal ${tmp}
variable ly0 equal 18.3250975438892
variable tmp equal lz
variable lz0 equal ${tmp}
variable lz0 equal 24.4334633918523

# These formulas define the derivatives w.r.t. strain components
# Constants uses $, variables use v_
variable d1 equal -(v_pxx1-${pxx0})/(v_delta/v_len0)*${cfac}
variable d1 equal -(v_pxx1-2.66344030982014e-09)/(v_delta/v_len0)*${cfac}
variable d1 equal -(v_pxx1-2.66344030982014e-09)/(v_delta/v_len0)*0.0001
variable d2 equal -(v_pyy1-${pyy0})/(v_delta/v_len0)*${cfac}
variable d2 equal -(v_pyy1-7.29911041151229e-10)/(v_delta/v_len0)*${cfac}
variable d2 equal -(v_pyy1-7.29911041151229e-10)/(v_delta/v_len0)*0.0001
variable d3 equal -(v_pzz1-${pzz0})/(v_delta/v_len0)*${cfac}
variable d3 equal -(v_pzz1-2.66021074663974e-10)/(v_delta/v_len0)*${cfac}
variable d3 equal -(v_pzz1-2.66021074663974e-10)/(v_delta/v_len0)*0.0001
variable d4 equal -(v_pyz1-${pyz0})/(v_delta/v_len0)*${cfac}
variable d4 equal -(v_pyz1--1.49357733659422e-12)/(v_delta/v_len0)*${cfac}
variable d4 equal -(v_pyz1--1.49357733659422e-12)/(v_delta/v_len0)*0.0001
variable d5 equal -(v_pxz1-${pxz0})/(v_delta/v_len0)*${cfac}
variable d5 equal -(v_pxz1--1.03084527997358e-11)/(v_delta/v_len0)*${cfac}
variable d5 equal -(v_pxz1--1.03084527997358e-11)/(v_delta/v_len0)*0.0001
variable d6 equal -(v_pxy1-${pxy0})/(v_delta/v_len0)*${cfac}
variable d6 equal -(v_pxy1--1.28254062593559e-10)/(v_delta/v_len0)*${cfac}
variable d6 equal -(v_pxy1--1.28254062593559e-10)/(v_delta/v_len0)*0.0001

displace_atoms all random ${atomjiggle} ${atomjiggle} ${atomjiggle} 87287 units box
displace_atoms all random 1e-05 ${atomjiggle} ${atomjiggle} 87287 units box
displace_atoms all random 1e-05 1e-05 ${atomjiggle} 87287 units box
displace_atoms all random 1e-05 1e-05 1e-05 87287 units box
Displacing atoms ...

# Write restart
unfix 3
write_restart restart.equil
System init for write_restart ...

# uxx Perturbation

variable dir equal 1
include displace.mod
# NOTE: This script should not need to be
# modified. See in.elastic for more info.
#
# Find which reference length to use

if "${dir} == 1" then    "variable len0 equal ${lx0}"
variable len0 equal ${lx0}
variable len0 equal 12.2167316959261
if "${dir} == 2" then    "variable len0 equal ${ly0}"
if "${dir} == 3" then    "variable len0 equal ${lz0}"
if "${dir} == 4" then    "variable len0 equal ${lz0}"
if "${dir} == 5" then    "variable len0 equal ${lz0}"
if "${dir} == 6" then    "variable len0 equal ${ly0}"

# Reset box and simulation parameters

clear
  using 1 OpenMP thread(s) per MPI task
Loaded 1 plugins from C:\Program Files\LAMMPS 64-bit 23Jun2022\plugins
Loaded 0 plugins from C:\Program Files\LAMMPS 64-bit 23Jun2022-MPI\plugins
Loaded 1 plugins from C:\Program Files\LAMMPS 64-bit 22Dec2022-MSMPI\plugins
Loaded 1 plugins from C:\Program Files\LAMMPS 64-bit 28Mar2023-MPI\plugins
box tilt large

The 'box' command has been removed and will be ignored

read_restart restart.equil
Reading restart file ...
  restart file = 22 Dec 2022, LAMMPS = 22 Dec 2022
  restoring atom style atomic from restart
  triclinic box = (0.002908538 0.002908538 0.002908538) to (12.21964 18.328006 24.436372) with tilt (0 0 0)
  1 by 2 by 2 MPI processor grid
  pair style meam stores no restart info
  384 atoms
  read_restart CPU = 0.000 seconds
include potential.mod
# NOTE: This script can be modified for different pair styles
# See in.elastic for more info.

# Choose potential
#-----------------------
#pair_style	sw
#pair_coeff * * Si.sw Si
#-----------------------
#pair_style morse	2.83994742	# D0[eV] a[1/A] r0[A] rc[A], 1NN for BCC
#pair_coeff 1 1	2.1173	1.0202	2.4595	2.6497	#	Fe-Fe
#-----------------------
#pair_style smatb # R0(A)   p       q     A(eV)   xi(eV)  Rcs(A)   Rc(A), 4NN: Rcs=4NN, Rc=(4NN+5NN)/2
#pair_coeff 1 1	2.4802	7.0149	2.3779	0.3144	3.0551	4.033	4.176	#	Co	Co
#-----------------------
#pair_style eam/alloy
#pair_coeff * * AlCrFeCoNi_Zhou04.eam.alloy Fe
#-----------------------
pair_style meam
pair_coeff * * ./../../library.meam Ti V N ./../../TiVN.meam Ti V
#-----------------------

# Setup neighbor style
neighbor 1.0 nsq
neigh_modify once no every 1 delay 0 check yes

# Setup minimization style
min_style	     cg
min_modify	     dmax ${dmax} line quadratic
min_modify	     dmax 0.01 line quadratic

# Setup output
thermo		1
thermo_style custom step temp pe press pxx pyy pzz pxy pxz pyz lx ly lz vol
thermo_modify norm no

# Negative deformation

variable delta equal -${up}*${len0}
variable delta equal -1e-06*${len0}
variable delta equal -1e-06*12.2167316959261
variable deltaxy equal -${up}*xy
variable deltaxy equal -1e-06*xy
variable deltaxz equal -${up}*xz
variable deltaxz equal -1e-06*xz
variable deltayz equal -${up}*yz
variable deltayz equal -1e-06*yz
if "${dir} == 1" then    "change_box all x delta 0 ${delta} xy delta ${deltaxy} xz delta ${deltaxz} remap units box"
change_box all x delta 0 ${delta} xy delta ${deltaxy} xz delta ${deltaxz} remap units box
change_box all x delta 0 -1.22167316959261e-05 xy delta ${deltaxy} xz delta ${deltaxz} remap units box
change_box all x delta 0 -1.22167316959261e-05 xy delta -0 xz delta ${deltaxz} remap units box
change_box all x delta 0 -1.22167316959261e-05 xy delta -0 xz delta -0 remap units box
Changing box ...
  triclinic box = (0.002908538 0.002908538 0.002908538) to (12.219628 18.328006 24.436372) with tilt (0 0 0)
  triclinic box = (0.002908538 0.002908538 0.002908538) to (12.219628 18.328006 24.436372) with tilt (0 0 0)
  triclinic box = (0.002908538 0.002908538 0.002908538) to (12.219628 18.328006 24.436372) with tilt (0 0 0)
if "${dir} == 2" then    "change_box all y delta 0 ${delta} yz delta ${deltayz} remap units box"
if "${dir} == 3" then    "change_box all z delta 0 ${delta} remap units box"
if "${dir} == 4" then    "change_box all yz delta ${delta} remap units box"
if "${dir} == 5" then    "change_box all xz delta ${delta} remap units box"
if "${dir} == 6" then    "change_box all xy delta ${delta} remap units box"

# Relax atoms positions

minimize ${etol} ${ftol} ${maxiter} ${maxeval}
minimize 0 ${ftol} ${maxiter} ${maxeval}
minimize 0 1e-10 ${maxiter} ${maxeval}
minimize 0 1e-10 100 ${maxeval}
minimize 0 1e-10 100 1000
Neighbor list info ...
  update: every = 1 steps, delay = 0 steps, check = yes
  max neighbors/atom: 2000, page size: 100000
  master list distance cutoff = 6
  ghost atom cutoff = 6
  2 neighbor lists, perpetual/occasional/extra = 2 0 0
  (1) pair meam, perpetual
      attributes: full, newton on
      pair build: full/nsq
      stencil: none
      bin: none
  (2) pair meam, perpetual, half/full from (1)
      attributes: half, newton on
      pair build: halffull/newton
      stencil: none
      bin: none
Per MPI rank memory allocation (min/avg/max) = 9.903 | 9.903 | 9.904 Mbytes
   Step          Temp          PotEng         Press           Pxx            Pyy            Pzz            Pxy            Pxz            Pyz             Lx             Ly             Lz           Volume    
         1   0             -1999.872       1.2721316      4.6549713     -0.41927418    -0.41930223     4.1626228e-06  7.154117e-08  -1.5690482e-06  12.216719      18.325098      24.433463      5469.9824    
         2   0             -1999.872       1.272113       4.6549342     -0.41929373    -0.41930146     5.3615363e-07  3.4060985e-07 -2.6397839e-07  12.216719      18.325098      24.433463      5469.9824    
         3   0             -1999.872       1.2721141      4.6549301     -0.4192934     -0.41929444    -9.2982744e-08  1.0013928e-07 -1.0662809e-07  12.216719      18.325098      24.433463      5469.9824    
         4   0             -1999.872       1.2721149      4.6549312     -0.41929344    -0.41929321     1.2214306e-08  3.9850488e-08 -7.2328992e-08  12.216719      18.325098      24.433463      5469.9824    
         5   0             -1999.872       1.2721153      4.6549325     -0.41929348    -0.41929315     2.9340457e-08  4.8872036e-08 -4.5073809e-08  12.216719      18.325098      24.433463      5469.9824    
         6   0             -1999.872       1.2721154      4.6549331     -0.41929349    -0.41929337     8.4047327e-09  2.3701018e-08 -2.8366397e-08  12.216719      18.325098      24.433463      5469.9824    
         7   0             -1999.872       1.2721155      4.6549334     -0.41929348    -0.41929343    -1.1253146e-09  6.2599595e-09 -1.6082635e-08  12.216719      18.325098      24.433463      5469.9824    
         8   0             -1999.872       1.2721155      4.6549335     -0.41929348    -0.41929347    -1.4310206e-09  2.5065618e-09 -6.7625012e-09  12.216719      18.325098      24.433463      5469.9824    
         9   0             -1999.872       1.2721155      4.6549335     -0.41929347    -0.41929348    -8.0492314e-10  1.4960618e-09 -2.7799391e-09  12.216719      18.325098      24.433463      5469.9824    
        10   0             -1999.872       1.2721155      4.6549335     -0.41929346    -0.41929347    -4.8635947e-11  7.967782e-10  -8.41014e-10    12.216719      18.325098      24.433463      5469.9824    
        11   0             -1999.872       1.2721155      4.6549335     -0.41929346    -0.41929347     2.4832037e-10  3.4797452e-10 -8.1982908e-11  12.216719      18.325098      24.433463      5469.9824    
        12   0             -1999.872       1.2721155      4.6549335     -0.41929346    -0.41929346     2.1745507e-10  8.288829e-11   4.9110391e-11  12.216719      18.325098      24.433463      5469.9824    
        13   0             -1999.872       1.2721155      4.6549335     -0.41929346    -0.41929346     1.2542061e-10  6.2201245e-11 -8.8376729e-11  12.216719      18.325098      24.433463      5469.9824    
        14   0             -1999.872       1.2721155      4.6549335     -0.41929346    -0.41929346     1.8007165e-11  5.652468e-11  -1.4459566e-10  12.216719      18.325098      24.433463      5469.9824    
        15   0             -1999.872       1.2721155      4.6549335     -0.41929346    -0.41929346    -5.8927896e-11  2.9871196e-11 -9.8327675e-11  12.216719      18.325098      24.433463      5469.9824    
        16   0             -1999.872       1.2721155      4.6549335     -0.41929346    -0.41929346    -1.9483722e-11  4.3324075e-11 -6.3414413e-11  12.216719      18.325098      24.433463      5469.9824    
        17   0             -1999.872       1.2721155      4.6549335     -0.41929346    -0.41929346    -2.1687252e-11  3.0878898e-11 -1.5200766e-11  12.216719      18.325098      24.433463      5469.9824    
        18   0             -1999.872       1.2721155      4.6549335     -0.41929346    -0.41929346    -1.755368e-11  -6.3424384e-13  1.6077249e-11  12.216719      18.325098      24.433463      5469.9824    
        19   0             -1999.872       1.2721155      4.6549335     -0.41929346    -0.41929346    -2.076758e-12   2.7809935e-11 -1.9711036e-11  12.216719      18.325098      24.433463      5469.9824    
        20   0             -1999.872       1.2721155      4.6549335     -0.41929346    -0.41929346     5.0406063e-12  7.4151781e-12 -3.6816248e-11  12.216719      18.325098      24.433463      5469.9824    
        21   0             -1999.872       1.2721155      4.6549335     -0.41929346    -0.41929346     4.3596801e-12 -5.7598944e-12  1.5087395e-11  12.216719      18.325098      24.433463      5469.9824    
        22   0             -1999.872       1.2721155      4.6549335     -0.41929346    -0.41929346    -2.5035674e-12 -3.1710922e-12  1.2567504e-11  12.216719      18.325098      24.433463      5469.9824    
        23   0             -1999.872       1.2721155      4.6549335     -0.41929346    -0.41929346    -1.0061714e-11 -2.7611519e-11  1.654566e-11   12.216719      18.325098      24.433463      5469.9824    
        24   0             -1999.872       1.2721155      4.6549335     -0.41929346    -0.41929346    -9.8815902e-12 -1.2065622e-11 -1.7755271e-11  12.216719      18.325098      24.433463      5469.9824    
        25   0             -1999.872       1.2721155      4.6549335     -0.41929346    -0.41929346     1.2669634e-12  4.23964e-12    1.9915104e-11  12.216719      18.325098      24.433463      5469.9824    
        26   0             -1999.872       1.2721155      4.6549335     -0.41929346    -0.41929346    -6.3396438e-12  5.9254101e-12  2.4191201e-11  12.216719      18.325098      24.433463      5469.9824    
        27   0             -1999.872       1.2721155      4.6549335     -0.41929346    -0.41929346    -5.4973939e-12  7.8412253e-12  8.9210785e-13  12.216719      18.325098      24.433463      5469.9824    
        28   0             -1999.872       1.2721155      4.6549335     -0.41929346    -0.41929346     1.2020337e-11  5.4103172e-12  2.3002295e-11  12.216719      18.325098      24.433463      5469.9824    
        29   0             -1999.872       1.2721155      4.6549335     -0.41929346    -0.41929346     1.8437975e-11  7.2755759e-12 -1.5750791e-11  12.216719      18.325098      24.433463      5469.9824    
        30   0             -1999.872       1.2721155      4.6549335     -0.41929346    -0.41929346    -9.3010151e-12 -1.2612726e-11  2.2785207e-11  12.216719      18.325098      24.433463      5469.9824    
        31   0             -1999.872       1.2721155      4.6549335     -0.41929346    -0.41929346    -1.0148092e-11 -1.1469486e-11 -1.7093653e-11  12.216719      18.325098      24.433463      5469.9824    
        32   0             -1999.872       1.2721155      4.6549335     -0.41929346    -0.41929346    -3.7806294e-12  1.167311e-11   9.014189e-12   12.216719      18.325098      24.433463      5469.9824    
        33   0             -1999.872       1.2721155      4.6549335     -0.41929346    -0.41929346    -8.6281552e-12  5.6751677e-12 -6.302171e-12   12.216719      18.325098      24.433463      5469.9824    
        34   0             -1999.872       1.2721155      4.6549335     -0.41929346    -0.41929346    -1.9812467e-11 -3.3666623e-11 -4.8522893e-11  12.216719      18.325098      24.433463      5469.9824    
        35   0             -1999.872       1.2721155      4.6549335     -0.41929346    -0.41929346    -2.3984084e-11  1.1662948e-11 -3.4023441e-11  12.216719      18.325098      24.433463      5469.9824    
        36   0             -1999.872       1.2721155      4.6549335     -0.41929346    -0.41929346    -1.7448311e-11  1.0487317e-12 -2.993998e-11   12.216719      18.325098      24.433463      5469.9824    
        37   0             -1999.872       1.2721155      4.6549335     -0.41929346    -0.41929346    -2.5767919e-11  1.4739278e-11 -2.0094212e-11  12.216719      18.325098      24.433463      5469.9824    
        38   0             -1999.872       1.2721155      4.6549335     -0.41929346    -0.41929346    -7.0884022e-12 -9.1615399e-12  2.3712755e-11  12.216719      18.325098      24.433463      5469.9824    
        39   0             -1999.872       1.2721155      4.6549335     -0.41929346    -0.41929346     1.5464219e-11  2.9285984e-12 -2.3881002e-12  12.216719      18.325098      24.433463      5469.9824    
Loop time of 0.0494137 on 4 procs for 38 steps with 384 atoms

71.1% CPU use with 4 MPI tasks x 1 OpenMP threads

Minimization stats:
  Stopping criterion = force tolerance
  Energy initial, next-to-last, final = 
     -1999.87199985937  -1999.87200000059  -1999.87200000059
  Force two-norm initial, final = 0.0016392156 8.2383419e-11
  Force max component initial, final = 0.00013669381 9.6435394e-12
  Final line search alpha, max atom move = 1 9.6435394e-12
  Iterations, force evaluations = 38 76

MPI task timing breakdown:
Section |  min time  |  avg time  |  max time  |%varavg| %total
---------------------------------------------------------------
Pair    | 0.045796   | 0.04614    | 0.046536   |   0.1 | 93.38
Neigh   | 0          | 0          | 0          |   0.0 |  0.00
Comm    | 0.001576   | 0.0020598  | 0.002491   |   0.7 |  4.17
Output  | 0.000556   | 0.00058725 | 0.000671   |   0.0 |  1.19
Modify  | 0          | 0          | 0          |   0.0 |  0.00
Other   |            | 0.0006265  |            |       |  1.27

Nlocal:             96 ave          96 max          96 min
Histogram: 4 0 0 0 0 0 0 0 0 0
Nghost:            646 ave         646 max         646 min
Histogram: 4 0 0 0 0 0 0 0 0 0
Neighs:           2784 ave        2800 max        2768 min
Histogram: 2 0 0 0 0 0 0 0 0 2
FullNghs:         5568 ave        5568 max        5568 min
Histogram: 4 0 0 0 0 0 0 0 0 0

Total # of neighbors = 22272
Ave neighs/atom = 58
Neighbor list builds = 0
Dangerous builds = 0

# Obtain new stress tensor

variable tmp equal pxx
variable pxx1 equal ${tmp}
variable pxx1 equal 4.65493352533976
variable tmp equal pyy
variable pyy1 equal ${tmp}
variable pyy1 equal -0.419293460938951
variable tmp equal pzz
variable pzz1 equal ${tmp}
variable pzz1 equal -0.419293461707306
variable tmp equal pxy
variable pxy1 equal ${tmp}
variable pxy1 equal 1.54642189815672e-11
variable tmp equal pxz
variable pxz1 equal ${tmp}
variable pxz1 equal 2.92859839510458e-12
variable tmp equal pyz
variable pyz1 equal ${tmp}
variable pyz1 equal -2.38810018772354e-12

# Compute elastic constant from pressure tensor

variable C1neg equal ${d1}
variable C1neg equal 465.493352267632
variable C2neg equal ${d2}
variable C2neg equal -41.9293461668862
variable C3neg equal ${d3}
variable C3neg equal -41.9293461973327
variable C4neg equal ${d4}
variable C4neg equal -8.9452285112932e-11
variable C5neg equal ${d5}
variable C5neg equal 1.32370511948404e-09
variable C6neg equal ${d6}
variable C6neg equal 1.43718281575126e-08

# Reset box and simulation parameters

clear
  using 1 OpenMP thread(s) per MPI task
Loaded 1 plugins from C:\Program Files\LAMMPS 64-bit 23Jun2022\plugins
Loaded 0 plugins from C:\Program Files\LAMMPS 64-bit 23Jun2022-MPI\plugins
Loaded 1 plugins from C:\Program Files\LAMMPS 64-bit 22Dec2022-MSMPI\plugins
Loaded 1 plugins from C:\Program Files\LAMMPS 64-bit 28Mar2023-MPI\plugins
box tilt large

The 'box' command has been removed and will be ignored

read_restart restart.equil
Reading restart file ...
  restart file = 22 Dec 2022, LAMMPS = 22 Dec 2022
  restoring atom style atomic from restart
  triclinic box = (0.002908538 0.002908538 0.002908538) to (12.21964 18.328006 24.436372) with tilt (0 0 0)
  1 by 2 by 2 MPI processor grid
  pair style meam stores no restart info
  384 atoms
  read_restart CPU = 0.000 seconds
include potential.mod
# NOTE: This script can be modified for different pair styles
# See in.elastic for more info.

# Choose potential
#-----------------------
#pair_style	sw
#pair_coeff * * Si.sw Si
#-----------------------
#pair_style morse	2.83994742	# D0[eV] a[1/A] r0[A] rc[A], 1NN for BCC
#pair_coeff 1 1	2.1173	1.0202	2.4595	2.6497	#	Fe-Fe
#-----------------------
#pair_style smatb # R0(A)   p       q     A(eV)   xi(eV)  Rcs(A)   Rc(A), 4NN: Rcs=4NN, Rc=(4NN+5NN)/2
#pair_coeff 1 1	2.4802	7.0149	2.3779	0.3144	3.0551	4.033	4.176	#	Co	Co
#-----------------------
#pair_style eam/alloy
#pair_coeff * * AlCrFeCoNi_Zhou04.eam.alloy Fe
#-----------------------
pair_style meam
pair_coeff * * ./../../library.meam Ti V N ./../../TiVN.meam Ti V
#-----------------------

# Setup neighbor style
neighbor 1.0 nsq
neigh_modify once no every 1 delay 0 check yes

# Setup minimization style
min_style	     cg
min_modify	     dmax ${dmax} line quadratic
min_modify	     dmax 0.01 line quadratic

# Setup output
thermo		1
thermo_style custom step temp pe press pxx pyy pzz pxy pxz pyz lx ly lz vol
thermo_modify norm no

# Positive deformation

variable delta equal ${up}*${len0}
variable delta equal 1e-06*${len0}
variable delta equal 1e-06*12.2167316959261
variable deltaxy equal ${up}*xy
variable deltaxy equal 1e-06*xy
variable deltaxz equal ${up}*xz
variable deltaxz equal 1e-06*xz
variable deltayz equal ${up}*yz
variable deltayz equal 1e-06*yz
if "${dir} == 1" then    "change_box all x delta 0 ${delta} xy delta ${deltaxy} xz delta ${deltaxz} remap units box"
change_box all x delta 0 ${delta} xy delta ${deltaxy} xz delta ${deltaxz} remap units box
change_box all x delta 0 1.22167316959261e-05 xy delta ${deltaxy} xz delta ${deltaxz} remap units box
change_box all x delta 0 1.22167316959261e-05 xy delta 0 xz delta ${deltaxz} remap units box
change_box all x delta 0 1.22167316959261e-05 xy delta 0 xz delta 0 remap units box
Changing box ...
  triclinic box = (0.002908538 0.002908538 0.002908538) to (12.219652 18.328006 24.436372) with tilt (0 0 0)
  triclinic box = (0.002908538 0.002908538 0.002908538) to (12.219652 18.328006 24.436372) with tilt (0 0 0)
  triclinic box = (0.002908538 0.002908538 0.002908538) to (12.219652 18.328006 24.436372) with tilt (0 0 0)
if "${dir} == 2" then    "change_box all y delta 0 ${delta} yz delta ${deltayz} remap units box"
if "${dir} == 3" then    "change_box all z delta 0 ${delta} remap units box"
if "${dir} == 4" then    "change_box all yz delta ${delta} remap units box"
if "${dir} == 5" then    "change_box all xz delta ${delta} remap units box"
if "${dir} == 6" then    "change_box all xy delta ${delta} remap units box"

# Relax atoms positions

minimize ${etol} ${ftol} ${maxiter} ${maxeval}
minimize 0 ${ftol} ${maxiter} ${maxeval}
minimize 0 1e-10 ${maxiter} ${maxeval}
minimize 0 1e-10 100 ${maxeval}
minimize 0 1e-10 100 1000
Neighbor list info ...
  update: every = 1 steps, delay = 0 steps, check = yes
  max neighbors/atom: 2000, page size: 100000
  master list distance cutoff = 6
  ghost atom cutoff = 6
  2 neighbor lists, perpetual/occasional/extra = 2 0 0
  (1) pair meam, perpetual
      attributes: full, newton on
      pair build: full/nsq
      stencil: none
      bin: none
  (2) pair meam, perpetual, half/full from (1)
      attributes: half, newton on
      pair build: halffull/newton
      stencil: none
      bin: none
Per MPI rank memory allocation (min/avg/max) = 9.903 | 9.903 | 9.904 Mbytes
   Step          Temp          PotEng         Press           Pxx            Pyy            Pzz            Pxy            Pxz            Pyz             Lx             Ly             Lz           Volume    
         1   0             -1999.872      -1.2720869     -4.6548695      0.4193184      0.41929035     4.1626115e-06  7.158806e-08  -1.5691698e-06  12.216744      18.325098      24.433463      5469.9933    
         2   0             -1999.872      -1.2721056     -4.6549066      0.41929886     0.41929112     5.3612113e-07  3.4057515e-07 -2.6400442e-07  12.216744      18.325098      24.433463      5469.9933    
         3   0             -1999.872      -1.2721045     -4.6549107      0.41929918     0.41929814    -9.2999542e-08  1.0015035e-07 -1.0656122e-07  12.216744      18.325098      24.433463      5469.9933    
         4   0             -1999.872      -1.2721037     -4.6549096      0.41929915     0.41929937     1.2230182e-08  3.9846751e-08 -7.234758e-08   12.216744      18.325098      24.433463      5469.9933    
         5   0             -1999.872      -1.2721033     -4.6549083      0.41929911     0.41929943     2.9317581e-08  4.8829284e-08 -4.5050865e-08  12.216744      18.325098      24.433463      5469.9933    
         6   0             -1999.872      -1.2721031     -4.6549077      0.4192991      0.41929922     8.4009771e-09  2.3684601e-08 -2.839819e-08   12.216744      18.325098      24.433463      5469.9933    
         7   0             -1999.872      -1.2721031     -4.6549075      0.41929911     0.41929916    -1.1228266e-09  6.2450999e-09 -1.606834e-08   12.216744      18.325098      24.433463      5469.9933    
         8   0             -1999.872      -1.272103      -4.6549074      0.41929911     0.41929912    -1.4473299e-09  2.5121185e-09 -6.7500708e-09  12.216744      18.325098      24.433463      5469.9933    
         9   0             -1999.872      -1.272103      -4.6549073      0.41929912     0.41929911    -7.8368006e-10  1.4862295e-09 -2.760413e-09   12.216744      18.325098      24.433463      5469.9933    
        10   0             -1999.872      -1.272103      -4.6549073      0.41929913     0.41929911    -1.2194847e-11  8.0110464e-10 -8.4718447e-10  12.216744      18.325098      24.433463      5469.9933    
        11   0             -1999.872      -1.272103      -4.6549073      0.41929913     0.41929912     2.6175819e-10  3.6200961e-10 -5.7360718e-11  12.216744      18.325098      24.433463      5469.9933    
        12   0             -1999.872      -1.272103      -4.6549073      0.41929913     0.41929912     2.1831079e-10  9.9209613e-11  7.2887276e-11  12.216744      18.325098      24.433463      5469.9933    
        13   0             -1999.872      -1.272103      -4.6549073      0.41929912     0.41929913     1.2218817e-10  6.5995525e-11 -1.0270036e-10  12.216744      18.325098      24.433463      5469.9933    
        14   0             -1999.872      -1.272103      -4.6549073      0.41929912     0.41929913     1.488806e-11   5.9017459e-11 -1.8074459e-10  12.216744      18.325098      24.433463      5469.9933    
        15   0             -1999.872      -1.272103      -4.6549073      0.41929912     0.41929912    -8.3014325e-11  3.0294007e-11 -1.0236933e-10  12.216744      18.325098      24.433463      5469.9933    
        16   0             -1999.872      -1.272103      -4.6549073      0.41929913     0.41929912    -5.0912289e-11  3.1124759e-11 -4.9232048e-11  12.216744      18.325098      24.433463      5469.9933    
        17   0             -1999.872      -1.272103      -4.6549073      0.41929913     0.41929912    -1.3939237e-11 -4.5605001e-12 -4.7081238e-11  12.216744      18.325098      24.433463      5469.9933    
        18   0             -1999.872      -1.272103      -4.6549073      0.41929913     0.41929912     6.3670053e-12 -1.5780103e-11 -7.0723827e-12  12.216744      18.325098      24.433463      5469.9933    
        19   0             -1999.872      -1.272103      -4.6549073      0.41929913     0.41929912    -7.5956677e-12 -8.73954e-12    9.4513957e-12  12.216744      18.325098      24.433463      5469.9933    
        20   0             -1999.872      -1.272103      -4.6549073      0.41929913     0.41929912     1.187309e-11  -2.4843814e-12 -1.9333792e-11  12.216744      18.325098      24.433463      5469.9933    
        21   0             -1999.872      -1.272103      -4.6549073      0.41929913     0.41929912     8.064522e-12   1.2611176e-12  1.6176806e-12  12.216744      18.325098      24.433463      5469.9933    
        22   0             -1999.872      -1.272103      -4.6549073      0.41929913     0.41929912    -1.4329779e-11  1.3345643e-11 -1.4006497e-11  12.216744      18.325098      24.433463      5469.9933    
        23   0             -1999.872      -1.272103      -4.6549073      0.41929913     0.41929912    -2.6491346e-13  3.0502838e-12  2.8771659e-11  12.216744      18.325098      24.433463      5469.9933    
        24   0             -1999.872      -1.272103      -4.6549073      0.41929913     0.41929912    -8.6771701e-12 -2.0988691e-11  6.2973314e-13  12.216744      18.325098      24.433463      5469.9933    
        25   0             -1999.872      -1.272103      -4.6549073      0.41929913     0.41929912     3.3094175e-12  2.5641031e-11 -3.5200272e-12  12.216744      18.325098      24.433463      5469.9933    
        26   0             -1999.872      -1.272103      -4.6549073      0.41929913     0.41929912     5.0504407e-12  5.6412403e-13  2.1674189e-11  12.216744      18.325098      24.433463      5469.9933    
        27   0             -1999.872      -1.272103      -4.6549073      0.41929913     0.41929912    -6.6627862e-12  2.6215063e-11 -4.1484393e-11  12.216744      18.325098      24.433463      5469.9933    
        28   0             -1999.872      -1.272103      -4.6549073      0.41929913     0.41929912    -2.0620315e-11 -4.7800016e-12  1.0870661e-11  12.216744      18.325098      24.433463      5469.9933    
        29   0             -1999.872      -1.272103      -4.6549073      0.41929913     0.41929912    -1.2302502e-11  3.2658475e-13  2.0399797e-12  12.216744      18.325098      24.433463      5469.9933    
        30   0             -1999.872      -1.272103      -4.6549073      0.41929913     0.41929912    -1.124469e-11   2.08388e-11    1.1732408e-11  12.216744      18.325098      24.433463      5469.9933    
        31   0             -1999.872      -1.272103      -4.6549073      0.41929913     0.41929912    -4.4447156e-12 -4.0648433e-14 -3.7287315e-12  12.216744      18.325098      24.433463      5469.9933    
        32   0             -1999.872      -1.272103      -4.6549073      0.41929913     0.41929912    -1.6065213e-11  4.2256586e-12 -5.5032897e-12  12.216744      18.325098      24.433463      5469.9933    
        33   0             -1999.872      -1.272103      -4.6549073      0.41929913     0.41929912     2.9062359e-12  1.8581923e-11  2.7045943e-11  12.216744      18.325098      24.433463      5469.9933    
        34   0             -1999.872      -1.272103      -4.6549073      0.41929913     0.41929912    -1.7739484e-11  3.1369793e-11 -2.7476689e-11  12.216744      18.325098      24.433463      5469.9933    
        35   0             -1999.872      -1.272103      -4.6549073      0.41929913     0.41929912    -1.5108197e-11  5.7522613e-12 -2.19076e-12    12.216744      18.325098      24.433463      5469.9933    
        36   0             -1999.872      -1.272103      -4.6549073      0.41929913     0.41929912    -2.5732173e-11 -1.3456283e-11 -2.0062478e-11  12.216744      18.325098      24.433463      5469.9933    
        37   0             -1999.872      -1.272103      -4.6549073      0.41929913     0.41929912    -1.156251e-11  -1.6040253e-11 -3.1612477e-11  12.216744      18.325098      24.433463      5469.9933    
        38   0             -1999.872      -1.272103      -4.6549073      0.41929913     0.41929912    -1.3064025e-12  1.0726105e-11  9.3294504e-13  12.216744      18.325098      24.433463      5469.9933    
        39   0             -1999.872      -1.272103      -4.6549073      0.41929913     0.41929912    -2.0606596e-11 -7.5548923e-12  1.2376495e-11  12.216744      18.325098      24.433463      5469.9933    
Loop time of 0.052972 on 4 procs for 38 steps with 384 atoms

59.0% CPU use with 4 MPI tasks x 1 OpenMP threads

Minimization stats:
  Stopping criterion = force tolerance
  Energy initial, next-to-last, final = 
     -1999.87199985937  -1999.87200000059  -1999.87200000059
  Force two-norm initial, final = 0.0016392107 8.2399011e-11
  Force max component initial, final = 0.00013669133 9.7280517e-12
  Final line search alpha, max atom move = 1 9.7280517e-12
  Iterations, force evaluations = 38 76

MPI task timing breakdown:
Section |  min time  |  avg time  |  max time  |%varavg| %total
---------------------------------------------------------------
Pair    | 0.048064   | 0.049002   | 0.05017    |   0.4 | 92.51
Neigh   | 0          | 0          | 0          |   0.0 |  0.00
Comm    | 0.001515   | 0.0027428  | 0.003741   |   1.7 |  5.18
Output  | 0.000606   | 0.000641   | 0.000711   |   0.0 |  1.21
Modify  | 0          | 0          | 0          |   0.0 |  0.00
Other   |            | 0.000586   |            |       |  1.11

Nlocal:             96 ave          96 max          96 min
Histogram: 4 0 0 0 0 0 0 0 0 0
Nghost:            646 ave         646 max         646 min
Histogram: 4 0 0 0 0 0 0 0 0 0
Neighs:           2784 ave        2800 max        2768 min
Histogram: 2 0 0 0 0 0 0 0 0 2
FullNghs:         5568 ave        5568 max        5568 min
Histogram: 4 0 0 0 0 0 0 0 0 0

Total # of neighbors = 22272
Ave neighs/atom = 58
Neighbor list builds = 0
Dangerous builds = 0

# Obtain new stress tensor

variable tmp equal pe
variable e1 equal ${tmp}
variable e1 equal -1999.87200000059
variable tmp equal press
variable p1 equal ${tmp}
variable p1 equal -1.27210302600704
variable tmp equal pxx
variable pxx1 equal ${tmp}
variable pxx1 equal -4.65490732788833
variable tmp equal pyy
variable pyy1 equal ${tmp}
variable pyy1 equal 0.419299125315641
variable tmp equal pzz
variable pzz1 equal ${tmp}
variable pzz1 equal 0.41929912455158
variable tmp equal pxy
variable pxy1 equal ${tmp}
variable pxy1 equal -2.06065958481009e-11
variable tmp equal pxz
variable pxz1 equal ${tmp}
variable pxz1 equal -7.55489226599064e-12
variable tmp equal pyz
variable pyz1 equal ${tmp}
variable pyz1 equal 1.23764950097711e-11

# Compute elastic constant from pressure tensor

variable C1pos equal ${d1}
variable C1pos equal 465.490733055177
variable C2pos equal ${d2}
variable C2pos equal -41.929912458573
variable C3pos equal ${d3}
variable C3pos equal -41.9299124285559
variable C4pos equal ${d4}
variable C4pos equal -1.38700723463653e-09
variable C5pos equal ${d5}
variable C5pos equal -2.75356053374516e-10
variable C6pos equal ${d6}
variable C6pos equal -1.07647466745458e-08

# Combine positive and negative

variable C1${dir} equal 0.5*(${C1neg}+${C1pos})
variable C11 equal 0.5*(${C1neg}+${C1pos})
variable C11 equal 0.5*(465.493352267632+${C1pos})
variable C11 equal 0.5*(465.493352267632+465.490733055177)
variable C2${dir} equal 0.5*(${C2neg}+${C2pos})
variable C21 equal 0.5*(${C2neg}+${C2pos})
variable C21 equal 0.5*(-41.9293461668862+${C2pos})
variable C21 equal 0.5*(-41.9293461668862+-41.929912458573)
variable C3${dir} equal 0.5*(${C3neg}+${C3pos})
variable C31 equal 0.5*(${C3neg}+${C3pos})
variable C31 equal 0.5*(-41.9293461973327+${C3pos})
variable C31 equal 0.5*(-41.9293461973327+-41.9299124285559)
variable C4${dir} equal 0.5*(${C4neg}+${C4pos})
variable C41 equal 0.5*(${C4neg}+${C4pos})
variable C41 equal 0.5*(-8.9452285112932e-11+${C4pos})
variable C41 equal 0.5*(-8.9452285112932e-11+-1.38700723463653e-09)
variable C5${dir} equal 0.5*(${C5neg}+${C5pos})
variable C51 equal 0.5*(${C5neg}+${C5pos})
variable C51 equal 0.5*(1.32370511948404e-09+${C5pos})
variable C51 equal 0.5*(1.32370511948404e-09+-2.75356053374516e-10)
variable C6${dir} equal 0.5*(${C6neg}+${C6pos})
variable C61 equal 0.5*(${C6neg}+${C6pos})
variable C61 equal 0.5*(1.43718281575126e-08+${C6pos})
variable C61 equal 0.5*(1.43718281575126e-08+-1.07647466745458e-08)

# Delete dir to make sure it is not reused

variable dir delete

# uyy Perturbation

variable dir equal 2
include displace.mod
# NOTE: This script should not need to be
# modified. See in.elastic for more info.
#
# Find which reference length to use

if "${dir} == 1" then    "variable len0 equal ${lx0}"
if "${dir} == 2" then    "variable len0 equal ${ly0}"
variable len0 equal ${ly0}
variable len0 equal 18.3250975438892
if "${dir} == 3" then    "variable len0 equal ${lz0}"
if "${dir} == 4" then    "variable len0 equal ${lz0}"
if "${dir} == 5" then    "variable len0 equal ${lz0}"
if "${dir} == 6" then    "variable len0 equal ${ly0}"

# Reset box and simulation parameters

clear
  using 1 OpenMP thread(s) per MPI task
Loaded 1 plugins from C:\Program Files\LAMMPS 64-bit 23Jun2022\plugins
Loaded 0 plugins from C:\Program Files\LAMMPS 64-bit 23Jun2022-MPI\plugins
Loaded 1 plugins from C:\Program Files\LAMMPS 64-bit 22Dec2022-MSMPI\plugins
Loaded 1 plugins from C:\Program Files\LAMMPS 64-bit 28Mar2023-MPI\plugins
box tilt large

The 'box' command has been removed and will be ignored

read_restart restart.equil
Reading restart file ...
  restart file = 22 Dec 2022, LAMMPS = 22 Dec 2022
  restoring atom style atomic from restart
  triclinic box = (0.002908538 0.002908538 0.002908538) to (12.21964 18.328006 24.436372) with tilt (0 0 0)
  1 by 2 by 2 MPI processor grid
  pair style meam stores no restart info
  384 atoms
  read_restart CPU = 0.000 seconds
include potential.mod
# NOTE: This script can be modified for different pair styles
# See in.elastic for more info.

# Choose potential
#-----------------------
#pair_style	sw
#pair_coeff * * Si.sw Si
#-----------------------
#pair_style morse	2.83994742	# D0[eV] a[1/A] r0[A] rc[A], 1NN for BCC
#pair_coeff 1 1	2.1173	1.0202	2.4595	2.6497	#	Fe-Fe
#-----------------------
#pair_style smatb # R0(A)   p       q     A(eV)   xi(eV)  Rcs(A)   Rc(A), 4NN: Rcs=4NN, Rc=(4NN+5NN)/2
#pair_coeff 1 1	2.4802	7.0149	2.3779	0.3144	3.0551	4.033	4.176	#	Co	Co
#-----------------------
#pair_style eam/alloy
#pair_coeff * * AlCrFeCoNi_Zhou04.eam.alloy Fe
#-----------------------
pair_style meam
pair_coeff * * ./../../library.meam Ti V N ./../../TiVN.meam Ti V
#-----------------------

# Setup neighbor style
neighbor 1.0 nsq
neigh_modify once no every 1 delay 0 check yes

# Setup minimization style
min_style	     cg
min_modify	     dmax ${dmax} line quadratic
min_modify	     dmax 0.01 line quadratic

# Setup output
thermo		1
thermo_style custom step temp pe press pxx pyy pzz pxy pxz pyz lx ly lz vol
thermo_modify norm no

# Negative deformation

variable delta equal -${up}*${len0}
variable delta equal -1e-06*${len0}
variable delta equal -1e-06*18.3250975438892
variable deltaxy equal -${up}*xy
variable deltaxy equal -1e-06*xy
variable deltaxz equal -${up}*xz
variable deltaxz equal -1e-06*xz
variable deltayz equal -${up}*yz
variable deltayz equal -1e-06*yz
if "${dir} == 1" then    "change_box all x delta 0 ${delta} xy delta ${deltaxy} xz delta ${deltaxz} remap units box"
if "${dir} == 2" then    "change_box all y delta 0 ${delta} yz delta ${deltayz} remap units box"
change_box all y delta 0 ${delta} yz delta ${deltayz} remap units box
change_box all y delta 0 -1.83250975438892e-05 yz delta ${deltayz} remap units box
change_box all y delta 0 -1.83250975438892e-05 yz delta -0 remap units box
Changing box ...
  triclinic box = (0.002908538 0.002908538 0.002908538) to (12.21964 18.327988 24.436372) with tilt (0 0 0)
  triclinic box = (0.002908538 0.002908538 0.002908538) to (12.21964 18.327988 24.436372) with tilt (0 0 0)
if "${dir} == 3" then    "change_box all z delta 0 ${delta} remap units box"
if "${dir} == 4" then    "change_box all yz delta ${delta} remap units box"
if "${dir} == 5" then    "change_box all xz delta ${delta} remap units box"
if "${dir} == 6" then    "change_box all xy delta ${delta} remap units box"

# Relax atoms positions

minimize ${etol} ${ftol} ${maxiter} ${maxeval}
minimize 0 ${ftol} ${maxiter} ${maxeval}
minimize 0 1e-10 ${maxiter} ${maxeval}
minimize 0 1e-10 100 ${maxeval}
minimize 0 1e-10 100 1000
Neighbor list info ...
  update: every = 1 steps, delay = 0 steps, check = yes
  max neighbors/atom: 2000, page size: 100000
  master list distance cutoff = 6
  ghost atom cutoff = 6
  2 neighbor lists, perpetual/occasional/extra = 2 0 0
  (1) pair meam, perpetual
      attributes: full, newton on
      pair build: full/nsq
      stencil: none
      bin: none
  (2) pair meam, perpetual, half/full from (1)
      attributes: half, newton on
      pair build: halffull/newton
      stencil: none
      bin: none
Per MPI rank memory allocation (min/avg/max) = 9.903 | 9.903 | 9.904 Mbytes
   Step          Temp          PotEng         Press           Pxx            Pyy            Pzz            Pxy            Pxz            Pyz             Lx             Ly             Lz           Volume    
         1   0             -1999.872       1.2721316     -0.41925568     4.6549528     -0.41930223     4.1626386e-06  7.1561444e-08 -1.5691056e-06  12.216732      18.325079      24.433463      5469.9824    
         2   0             -1999.872       1.272113      -0.41929276     4.6549333     -0.41930146     5.3614061e-07  3.4060175e-07 -2.6398809e-07  12.216732      18.325079      24.433463      5469.9824    
         3   0             -1999.872       1.2721141     -0.41929688     4.6549336     -0.41929444    -9.2990689e-08  1.0015405e-07 -1.0660807e-07  12.216732      18.325079      24.433463      5469.9824    
         4   0             -1999.872       1.2721149     -0.41929577     4.6549335     -0.41929321     1.2216869e-08  3.9872903e-08 -7.2323294e-08  12.216732      18.325079      24.433463      5469.9824    
         5   0             -1999.872       1.2721153     -0.41929448     4.6549335     -0.41929315     2.9349728e-08  4.8808205e-08 -4.5081678e-08  12.216732      18.325079      24.433463      5469.9824    
         6   0             -1999.872       1.2721154     -0.41929384     4.6549335     -0.41929337     8.4003234e-09  2.3668131e-08 -2.8370352e-08  12.216732      18.325079      24.433463      5469.9824    
         7   0             -1999.872       1.2721155     -0.41929359     4.6549335     -0.41929343    -1.1080305e-09  6.2626357e-09 -1.6072173e-08  12.216732      18.325079      24.433463      5469.9824    
         8   0             -1999.872       1.2721155     -0.41929348     4.6549335     -0.41929347    -1.4444408e-09  2.5198814e-09 -6.736019e-09   12.216732      18.325079      24.433463      5469.9824    
         9   0             -1999.872       1.2721155     -0.41929345     4.6549335     -0.41929348    -8.0438067e-10  1.5166159e-09 -2.7682093e-09  12.216732      18.325079      24.433463      5469.9824    
        10   0             -1999.872       1.2721155     -0.41929346     4.6549335     -0.41929347    -1.4236316e-11  7.6974604e-10 -8.3546853e-10  12.216732      18.325079      24.433463      5469.9824    
        11   0             -1999.872       1.2721155     -0.41929346     4.6549335     -0.41929347     2.1666102e-10  3.4724387e-10 -7.0380679e-11  12.216732      18.325079      24.433463      5469.9824    
        12   0             -1999.872       1.2721155     -0.41929346     4.6549335     -0.41929346     2.2257678e-10  8.7652169e-11  6.1979393e-11  12.216732      18.325079      24.433463      5469.9824    
        13   0             -1999.872       1.2721155     -0.41929346     4.6549335     -0.41929346     1.6274325e-10  9.0728753e-11 -1.0748229e-10  12.216732      18.325079      24.433463      5469.9824    
        14   0             -1999.872       1.2721155     -0.41929346     4.6549335     -0.41929346    -1.4183791e-12  3.8819331e-11 -1.670304e-10   12.216732      18.325079      24.433463      5469.9824    
        15   0             -1999.872       1.2721155     -0.41929346     4.6549335     -0.41929346    -6.0113563e-11  7.0219545e-11 -1.0864376e-10  12.216732      18.325079      24.433463      5469.9824    
        16   0             -1999.872       1.2721155     -0.41929346     4.6549335     -0.41929346    -4.0868969e-11  2.9832198e-12 -5.5870938e-11  12.216732      18.325079      24.433463      5469.9824    
        17   0             -1999.872       1.2721155     -0.41929346     4.6549335     -0.41929346     1.0021065e-11  1.4068578e-11 -2.4086785e-11  12.216732      18.325079      24.433463      5469.9824    
        18   0             -1999.872       1.2721155     -0.41929346     4.6549335     -0.41929346     1.8956625e-11  6.3487898e-13 -2.1613386e-11  12.216732      18.325079      24.433463      5469.9824    
        19   0             -1999.872       1.2721155     -0.41929346     4.6549335     -0.41929346    -2.8827672e-11  1.9653175e-11  1.3927134e-11  12.216732      18.325079      24.433463      5469.9824    
        20   0             -1999.872       1.2721155     -0.41929346     4.6549335     -0.41929346    -2.3268734e-12  2.5930195e-11 -2.1398902e-11  12.216732      18.325079      24.433463      5469.9824    
        21   0             -1999.872       1.2721155     -0.41929346     4.6549335     -0.41929346    -1.7219727e-12 -7.4208943e-12  2.1194135e-11  12.216732      18.325079      24.433463      5469.9824    
        22   0             -1999.872       1.2721155     -0.41929346     4.6549335     -0.41929346     1.8028886e-12 -1.9257615e-11  7.9838762e-12  12.216732      18.325079      24.433463      5469.9824    
        23   0             -1999.872       1.2721155     -0.41929346     4.6549335     -0.41929346     2.8347638e-11  5.8406833e-13 -1.8844397e-11  12.216732      18.325079      24.433463      5469.9824    
        24   0             -1999.872       1.2721155     -0.41929346     4.6549335     -0.41929346     1.4475317e-12 -1.0996439e-11 -1.3958319e-12  12.216732      18.325079      24.433463      5469.9824    
        25   0             -1999.872       1.2721155     -0.41929346     4.6549335     -0.41929346     9.29803e-12    9.0290511e-13  2.6674444e-11  12.216732      18.325079      24.433463      5469.9824    
        26   0             -1999.872       1.2721155     -0.41929346     4.6549335     -0.41929346    -6.9886863e-12  2.4564405e-12  7.6523368e-12  12.216732      18.325079      24.433463      5469.9824    
        27   0             -1999.872       1.2721155     -0.41929346     4.6549335     -0.41929346     1.1486254e-11 -2.0929666e-11  2.2524802e-11  12.216732      18.325079      24.433463      5469.9824    
        28   0             -1999.872       1.2721155     -0.41929346     4.6549335     -0.41929346     6.3162074e-12 -2.8708013e-12 -2.0360015e-11  12.216732      18.325079      24.433463      5469.9824    
        29   0             -1999.872       1.2721155     -0.41929346     4.6549335     -0.41929346     1.2299097e-11 -5.9232506e-13 -1.3448878e-11  12.216732      18.325079      24.433463      5469.9824    
        30   0             -1999.872       1.2721155     -0.41929346     4.6549335     -0.41929346     2.092884e-11   3.4723993e-12 -1.6003764e-11  12.216732      18.325079      24.433463      5469.9824    
        31   0             -1999.872       1.2721155     -0.41929346     4.6549335     -0.41929346     8.221543e-12   5.2589015e-14 -1.2590115e-11  12.216732      18.325079      24.433463      5469.9824    
        32   0             -1999.872       1.2721155     -0.41929346     4.6549335     -0.41929346    -1.8152038e-11 -1.0263115e-11  1.062387e-12   12.216732      18.325079      24.433463      5469.9824    
        33   0             -1999.872       1.2721155     -0.41929346     4.6549335     -0.41929346    -5.0496251e-12 -1.7637009e-11 -5.3646511e-12  12.216732      18.325079      24.433463      5469.9824    
        34   0             -1999.872       1.2721155     -0.41929346     4.6549335     -0.41929346     1.6396721e-11  8.5997012e-12  2.7806632e-11  12.216732      18.325079      24.433463      5469.9824    
        35   0             -1999.872       1.2721155     -0.41929346     4.6549335     -0.41929346     1.1796897e-11 -9.9625697e-12  1.9451203e-11  12.216732      18.325079      24.433463      5469.9824    
        36   0             -1999.872       1.2721155     -0.41929346     4.6549335     -0.41929346     3.7437281e-12  4.3800044e-12  2.0998387e-11  12.216732      18.325079      24.433463      5469.9824    
        37   0             -1999.872       1.2721155     -0.41929346     4.6549335     -0.41929346    -1.2259338e-11 -1.0375279e-11  3.0381588e-11  12.216732      18.325079      24.433463      5469.9824    
        38   0             -1999.872       1.2721155     -0.41929346     4.6549335     -0.41929346     2.8507311e-12 -5.6962541e-12  4.3019719e-11  12.216732      18.325079      24.433463      5469.9824    
        39   0             -1999.872       1.2721155     -0.41929346     4.6549335     -0.41929346    -3.0419696e-12 -2.349103e-12   1.4603995e-11  12.216732      18.325079      24.433463      5469.9824    
Loop time of 0.048858 on 4 procs for 38 steps with 384 atoms

72.0% CPU use with 4 MPI tasks x 1 OpenMP threads

Minimization stats:
  Stopping criterion = force tolerance
  Energy initial, next-to-last, final = 
     -1999.87199985937  -1999.87200000059  -1999.87200000059
  Force two-norm initial, final = 0.0016392149 8.2395945e-11
  Force max component initial, final = 0.00013669236 9.7271219e-12
  Final line search alpha, max atom move = 1 9.7271219e-12
  Iterations, force evaluations = 38 76

MPI task timing breakdown:
Section |  min time  |  avg time  |  max time  |%varavg| %total
---------------------------------------------------------------
Pair    | 0.045699   | 0.045837   | 0.045982   |   0.0 | 93.82
Neigh   | 0          | 0          | 0          |   0.0 |  0.00
Comm    | 0.001626   | 0.0018372  | 0.001931   |   0.3 |  3.76
Output  | 0.000622   | 0.00063925 | 0.000681   |   0.0 |  1.31
Modify  | 0          | 0          | 0          |   0.0 |  0.00
Other   |            | 0.0005448  |            |       |  1.11

Nlocal:             96 ave          96 max          96 min
Histogram: 4 0 0 0 0 0 0 0 0 0
Nghost:            646 ave         646 max         646 min
Histogram: 4 0 0 0 0 0 0 0 0 0
Neighs:           2784 ave        2800 max        2768 min
Histogram: 2 0 0 0 0 0 0 0 0 2
FullNghs:         5568 ave        5568 max        5568 min
Histogram: 4 0 0 0 0 0 0 0 0 0

Total # of neighbors = 22272
Ave neighs/atom = 58
Neighbor list builds = 0
Dangerous builds = 0

# Obtain new stress tensor

variable tmp equal pxx
variable pxx1 equal ${tmp}
variable pxx1 equal -0.419293459550398
variable tmp equal pyy
variable pyy1 equal ${tmp}
variable pyy1 equal 4.65493352374322
variable tmp equal pzz
variable pzz1 equal ${tmp}
variable pzz1 equal -0.419293461711989
variable tmp equal pxy
variable pxy1 equal ${tmp}
variable pxy1 equal -3.04196964071858e-12
variable tmp equal pxz
variable pxz1 equal ${tmp}
variable pxz1 equal -2.34910301976443e-12
variable tmp equal pyz
variable pyz1 equal ${tmp}
variable pyz1 equal 1.46039948075638e-11

# Compute elastic constant from pressure tensor

variable C1neg equal ${d1}
variable C1neg equal -41.9293462213838
variable C2neg equal ${d2}
variable C2neg equal 465.493352301331
variable C3neg equal ${d3}
variable C3neg equal -41.929346197801
variable C4neg equal ${d4}
variable C4neg equal 1.6097572144158e-09
variable C5neg equal ${d5}
variable C5neg equal 7.95934977997137e-10
variable C6neg equal ${d6}
variable C6neg equal 1.2521209295284e-08

# Reset box and simulation parameters

clear
  using 1 OpenMP thread(s) per MPI task
Loaded 1 plugins from C:\Program Files\LAMMPS 64-bit 23Jun2022\plugins
Loaded 0 plugins from C:\Program Files\LAMMPS 64-bit 23Jun2022-MPI\plugins
Loaded 1 plugins from C:\Program Files\LAMMPS 64-bit 22Dec2022-MSMPI\plugins
Loaded 1 plugins from C:\Program Files\LAMMPS 64-bit 28Mar2023-MPI\plugins
box tilt large

The 'box' command has been removed and will be ignored

read_restart restart.equil
Reading restart file ...
  restart file = 22 Dec 2022, LAMMPS = 22 Dec 2022
  restoring atom style atomic from restart
  triclinic box = (0.002908538 0.002908538 0.002908538) to (12.21964 18.328006 24.436372) with tilt (0 0 0)
  1 by 2 by 2 MPI processor grid
  pair style meam stores no restart info
  384 atoms
  read_restart CPU = 0.000 seconds
include potential.mod
# NOTE: This script can be modified for different pair styles
# See in.elastic for more info.

# Choose potential
#-----------------------
#pair_style	sw
#pair_coeff * * Si.sw Si
#-----------------------
#pair_style morse	2.83994742	# D0[eV] a[1/A] r0[A] rc[A], 1NN for BCC
#pair_coeff 1 1	2.1173	1.0202	2.4595	2.6497	#	Fe-Fe
#-----------------------
#pair_style smatb # R0(A)   p       q     A(eV)   xi(eV)  Rcs(A)   Rc(A), 4NN: Rcs=4NN, Rc=(4NN+5NN)/2
#pair_coeff 1 1	2.4802	7.0149	2.3779	0.3144	3.0551	4.033	4.176	#	Co	Co
#-----------------------
#pair_style eam/alloy
#pair_coeff * * AlCrFeCoNi_Zhou04.eam.alloy Fe
#-----------------------
pair_style meam
pair_coeff * * ./../../library.meam Ti V N ./../../TiVN.meam Ti V
#-----------------------

# Setup neighbor style
neighbor 1.0 nsq
neigh_modify once no every 1 delay 0 check yes

# Setup minimization style
min_style	     cg
min_modify	     dmax ${dmax} line quadratic
min_modify	     dmax 0.01 line quadratic

# Setup output
thermo		1
thermo_style custom step temp pe press pxx pyy pzz pxy pxz pyz lx ly lz vol
thermo_modify norm no

# Positive deformation

variable delta equal ${up}*${len0}
variable delta equal 1e-06*${len0}
variable delta equal 1e-06*18.3250975438892
variable deltaxy equal ${up}*xy
variable deltaxy equal 1e-06*xy
variable deltaxz equal ${up}*xz
variable deltaxz equal 1e-06*xz
variable deltayz equal ${up}*yz
variable deltayz equal 1e-06*yz
if "${dir} == 1" then    "change_box all x delta 0 ${delta} xy delta ${deltaxy} xz delta ${deltaxz} remap units box"
if "${dir} == 2" then    "change_box all y delta 0 ${delta} yz delta ${deltayz} remap units box"
change_box all y delta 0 ${delta} yz delta ${deltayz} remap units box
change_box all y delta 0 1.83250975438892e-05 yz delta ${deltayz} remap units box
change_box all y delta 0 1.83250975438892e-05 yz delta 0 remap units box
Changing box ...
  triclinic box = (0.002908538 0.002908538 0.002908538) to (12.21964 18.328024 24.436372) with tilt (0 0 0)
  triclinic box = (0.002908538 0.002908538 0.002908538) to (12.21964 18.328024 24.436372) with tilt (0 0 0)
if "${dir} == 3" then    "change_box all z delta 0 ${delta} remap units box"
if "${dir} == 4" then    "change_box all yz delta ${delta} remap units box"
if "${dir} == 5" then    "change_box all xz delta ${delta} remap units box"
if "${dir} == 6" then    "change_box all xy delta ${delta} remap units box"

# Relax atoms positions

minimize ${etol} ${ftol} ${maxiter} ${maxeval}
minimize 0 ${ftol} ${maxiter} ${maxeval}
minimize 0 1e-10 ${maxiter} ${maxeval}
minimize 0 1e-10 100 ${maxeval}
minimize 0 1e-10 100 1000
Neighbor list info ...
  update: every = 1 steps, delay = 0 steps, check = yes
  max neighbors/atom: 2000, page size: 100000
  master list distance cutoff = 6
  ghost atom cutoff = 6
  2 neighbor lists, perpetual/occasional/extra = 2 0 0
  (1) pair meam, perpetual
      attributes: full, newton on
      pair build: full/nsq
      stencil: none
      bin: none
  (2) pair meam, perpetual, half/full from (1)
      attributes: half, newton on
      pair build: halffull/newton
      stencil: none
      bin: none
Per MPI rank memory allocation (min/avg/max) = 9.903 | 9.903 | 9.904 Mbytes
   Step          Temp          PotEng         Press           Pxx            Pyy            Pzz            Pxy            Pxz            Pyz             Lx             Ly             Lz           Volume    
         1   0             -1999.872      -1.2720869      0.4193369     -4.654888       0.41929035     4.1626168e-06  7.1586624e-08 -1.5690633e-06  12.216732      18.325116      24.433463      5469.9933    
         2   0             -1999.872      -1.2721056      0.41929982    -4.6549076      0.41929112     5.3611527e-07  3.4060768e-07 -2.6396028e-07  12.216732      18.325116      24.433463      5469.9933    
         3   0             -1999.872      -1.2721045      0.41929571    -4.6549073      0.41929815    -9.2942487e-08  1.0012323e-07 -1.0662654e-07  12.216732      18.325116      24.433463      5469.9933    
         4   0             -1999.872      -1.2721037      0.41929682    -4.6549073      0.41929937     1.2203734e-08  3.9833499e-08 -7.2343266e-08  12.216732      18.325116      24.433463      5469.9933    
         5   0             -1999.872      -1.2721033      0.41929811    -4.6549073      0.41929943     2.9309094e-08  4.8824005e-08 -4.5077955e-08  12.216732      18.325116      24.433463      5469.9933    
         6   0             -1999.872      -1.2721031      0.41929875    -4.6549074      0.41929922     8.3977447e-09  2.3723681e-08 -2.8359465e-08  12.216732      18.325116      24.433463      5469.9933    
         7   0             -1999.872      -1.2721031      0.419299      -4.6549073      0.41929916    -1.1069696e-09  6.2467036e-09 -1.6031464e-08  12.216732      18.325116      24.433463      5469.9933    
         8   0             -1999.872      -1.272103       0.4192991     -4.6549073      0.41929912    -1.4204802e-09  2.513489e-09  -6.757953e-09   12.216732      18.325116      24.433463      5469.9933    
         9   0             -1999.872      -1.272103       0.41929913    -4.6549073      0.41929911    -7.9224805e-10  1.5104324e-09 -2.7761817e-09  12.216732      18.325116      24.433463      5469.9933    
        10   0             -1999.872      -1.272103       0.41929913    -4.6549073      0.41929911    -5.9334898e-11  7.747938e-10  -7.8020627e-10  12.216732      18.325116      24.433463      5469.9933    
        11   0             -1999.872      -1.272103       0.41929913    -4.6549073      0.41929912     2.4377259e-10  3.736597e-10  -6.697223e-11   12.216732      18.325116      24.433463      5469.9933    
        12   0             -1999.872      -1.272103       0.41929912    -4.6549073      0.41929912     2.1921801e-10  1.2151785e-10  8.9834751e-11  12.216732      18.325116      24.433463      5469.9933    
        13   0             -1999.872      -1.272103       0.41929912    -4.6549073      0.41929913     1.7259559e-10  7.9332911e-11 -7.7376705e-11  12.216732      18.325116      24.433463      5469.9933    
        14   0             -1999.872      -1.272103       0.41929913    -4.6549073      0.41929913     1.5907891e-11  3.1667161e-11 -1.5395759e-10  12.216732      18.325116      24.433463      5469.9933    
        15   0             -1999.872      -1.272103       0.41929913    -4.6549073      0.41929912    -2.0430474e-11  1.3309694e-11 -1.0424811e-10  12.216732      18.325116      24.433463      5469.9933    
        16   0             -1999.872      -1.272103       0.41929913    -4.6549073      0.41929912    -3.1179571e-11  2.0224247e-11 -8.5050875e-11  12.216732      18.325116      24.433463      5469.9933    
        17   0             -1999.872      -1.272103       0.41929913    -4.6549073      0.41929912    -1.4405487e-11  1.8095158e-11 -2.0776684e-11  12.216732      18.325116      24.433463      5469.9933    
        18   0             -1999.872      -1.272103       0.41929913    -4.6549073      0.41929912     1.6709364e-11 -5.5513056e-12 -2.0830035e-11  12.216732      18.325116      24.433463      5469.9933    
        19   0             -1999.872      -1.272103       0.41929913    -4.6549073      0.41929912    -1.9795914e-11  1.8545847e-11  8.4879008e-12  12.216732      18.325116      24.433463      5469.9933    
        20   0             -1999.872      -1.272103       0.41929913    -4.6549073      0.41929912    -7.083434e-12   1.514116e-11  -3.8358783e-12  12.216732      18.325116      24.433463      5469.9933    
        21   0             -1999.872      -1.272103       0.41929913    -4.6549073      0.41929912    -1.0481897e-11  1.7167611e-12 -1.1725167e-11  12.216732      18.325116      24.433463      5469.9933    
        22   0             -1999.872      -1.272103       0.41929913    -4.6549073      0.41929912     1.1464636e-11  7.8324448e-13 -2.2212082e-11  12.216732      18.325116      24.433463      5469.9933    
        23   0             -1999.872      -1.272103       0.41929913    -4.6549073      0.41929912     1.0650906e-11  5.9492792e-12 -1.5596232e-11  12.216732      18.325116      24.433463      5469.9933    
        24   0             -1999.872      -1.272103       0.41929913    -4.6549073      0.41929912    -1.2944747e-11  2.5917695e-11 -1.6145049e-13  12.216732      18.325116      24.433463      5469.9933    
        25   0             -1999.872      -1.272103       0.41929913    -4.6549073      0.41929912     2.8593632e-13  2.1974289e-11  5.825365e-12   12.216732      18.325116      24.433463      5469.9933    
        26   0             -1999.872      -1.272103       0.41929913    -4.6549073      0.41929912    -2.0101793e-11  7.6446999e-12 -3.7240951e-12  12.216732      18.325116      24.433463      5469.9933    
        27   0             -1999.872      -1.272103       0.41929913    -4.6549073      0.41929912    -6.0671596e-12 -1.7609409e-11  1.6858302e-12  12.216732      18.325116      24.433463      5469.9933    
        28   0             -1999.872      -1.272103       0.41929913    -4.6549073      0.41929912     2.3933352e-11  2.6671723e-12 -2.6578105e-11  12.216732      18.325116      24.433463      5469.9933    
        29   0             -1999.872      -1.272103       0.41929913    -4.6549073      0.41929912     1.5727958e-11 -3.1624989e-11 -3.993645e-12   12.216732      18.325116      24.433463      5469.9933    
        30   0             -1999.872      -1.272103       0.41929913    -4.6549073      0.41929912     2.4794909e-11  5.9769709e-12  1.8433937e-11  12.216732      18.325116      24.433463      5469.9933    
        31   0             -1999.872      -1.272103       0.41929913    -4.6549073      0.41929912    -2.2460291e-11 -1.4324762e-11 -1.0738681e-11  12.216732      18.325116      24.433463      5469.9933    
        32   0             -1999.872      -1.272103       0.41929913    -4.6549073      0.41929912    -1.5301023e-11 -1.8446513e-11 -1.2553443e-11  12.216732      18.325116      24.433463      5469.9933    
        33   0             -1999.872      -1.272103       0.41929913    -4.6549073      0.41929912     3.0956322e-13  1.9064623e-11 -1.8972656e-12  12.216732      18.325116      24.433463      5469.9933    
        34   0             -1999.872      -1.272103       0.41929913    -4.6549073      0.41929912     1.8619586e-11 -4.1301348e-12  3.1379701e-11  12.216732      18.325116      24.433463      5469.9933    
        35   0             -1999.872      -1.272103       0.41929913    -4.6549073      0.41929912    -1.9676001e-11  3.4354277e-12 -4.8778373e-11  12.216732      18.325116      24.433463      5469.9933    
        36   0             -1999.872      -1.272103       0.41929913    -4.6549073      0.41929912     1.8056415e-11 -1.4082141e-12  9.5527627e-12  12.216732      18.325116      24.433463      5469.9933    
        37   0             -1999.872      -1.272103       0.41929913    -4.6549073      0.41929912     1.4132952e-11 -5.196648e-12   2.1591685e-11  12.216732      18.325116      24.433463      5469.9933    
        38   0             -1999.872      -1.272103       0.41929913    -4.6549073      0.41929912    -2.0325741e-11 -2.1650117e-11  5.8688715e-12  12.216732      18.325116      24.433463      5469.9933    
        39   0             -1999.872      -1.272103       0.41929913    -4.6549073      0.41929912     1.5367775e-11 -4.4858086e-12  1.9023339e-11  12.216732      18.325116      24.433463      5469.9933    
Loop time of 0.0498592 on 4 procs for 38 steps with 384 atoms

86.2% CPU use with 4 MPI tasks x 1 OpenMP threads

Minimization stats:
  Stopping criterion = force tolerance
  Energy initial, next-to-last, final = 
     -1999.87199985937  -1999.87200000059  -1999.87200000059
  Force two-norm initial, final = 0.0016392114 8.2385189e-11
  Force max component initial, final = 0.00013669278 9.6728389e-12
  Final line search alpha, max atom move = 1 9.6728389e-12
  Iterations, force evaluations = 38 76

MPI task timing breakdown:
Section |  min time  |  avg time  |  max time  |%varavg| %total
---------------------------------------------------------------
Pair    | 0.046359   | 0.046584   | 0.046867   |   0.1 | 93.43
Neigh   | 0          | 0          | 0          |   0.0 |  0.00
Comm    | 0.001873   | 0.0020797  | 0.002238   |   0.3 |  4.17
Output  | 0.0006     | 0.00063275 | 0.000707   |   0.0 |  1.27
Modify  | 0          | 0          | 0          |   0.0 |  0.00
Other   |            | 0.0005623  |            |       |  1.13

Nlocal:             96 ave          96 max          96 min
Histogram: 4 0 0 0 0 0 0 0 0 0
Nghost:            646 ave         646 max         646 min
Histogram: 4 0 0 0 0 0 0 0 0 0
Neighs:           2784 ave        2800 max        2768 min
Histogram: 2 0 0 0 0 0 0 0 0 2
FullNghs:         5568 ave        5568 max        5568 min
Histogram: 4 0 0 0 0 0 0 0 0 0

Total # of neighbors = 22272
Ave neighs/atom = 58
Neighbor list builds = 0
Dangerous builds = 0

# Obtain new stress tensor

variable tmp equal pe
variable e1 equal ${tmp}
variable e1 equal -1999.87200000059
variable tmp equal press
variable p1 equal ${tmp}
variable p1 equal -1.27210302590224
variable tmp equal pxx
variable pxx1 equal ${tmp}
variable pxx1 equal 0.419299126796154
variable tmp equal pyy
variable pyy1 equal ${tmp}
variable pyy1 equal -4.65490732904678
variable tmp equal pzz
variable pzz1 equal ${tmp}
variable pzz1 equal 0.419299124543906
variable tmp equal pxy
variable pxy1 equal ${tmp}
variable pxy1 equal 1.53677750522373e-11
variable tmp equal pxz
variable pxz1 equal ${tmp}
variable pxz1 equal -4.48580858312221e-12
variable tmp equal pyz
variable pyz1 equal ${tmp}
variable pyz1 equal 1.90233394007985e-11

# Compute elastic constant from pressure tensor

variable C1pos equal ${d1}
variable C1pos equal -41.9299124132714
variable C2pos equal ${d2}
variable C2pos equal 465.490732977669
variable C3pos equal ${d3}
variable C3pos equal -41.9299124277885
variable C4pos equal ${d4}
variable C4pos equal -2.05169167373927e-09
variable C5pos equal ${d5}
variable C5pos equal -5.82264421661359e-10
variable C6pos equal ${d6}
variable C6pos equal -1.43621837645796e-08

# Combine positive and negative

variable C1${dir} equal 0.5*(${C1neg}+${C1pos})
variable C12 equal 0.5*(${C1neg}+${C1pos})
variable C12 equal 0.5*(-41.9293462213838+${C1pos})
variable C12 equal 0.5*(-41.9293462213838+-41.9299124132714)
variable C2${dir} equal 0.5*(${C2neg}+${C2pos})
variable C22 equal 0.5*(${C2neg}+${C2pos})
variable C22 equal 0.5*(465.493352301331+${C2pos})
variable C22 equal 0.5*(465.493352301331+465.490732977669)
variable C3${dir} equal 0.5*(${C3neg}+${C3pos})
variable C32 equal 0.5*(${C3neg}+${C3pos})
variable C32 equal 0.5*(-41.929346197801+${C3pos})
variable C32 equal 0.5*(-41.929346197801+-41.9299124277885)
variable C4${dir} equal 0.5*(${C4neg}+${C4pos})
variable C42 equal 0.5*(${C4neg}+${C4pos})
variable C42 equal 0.5*(1.6097572144158e-09+${C4pos})
variable C42 equal 0.5*(1.6097572144158e-09+-2.05169167373927e-09)
variable C5${dir} equal 0.5*(${C5neg}+${C5pos})
variable C52 equal 0.5*(${C5neg}+${C5pos})
variable C52 equal 0.5*(7.95934977997137e-10+${C5pos})
variable C52 equal 0.5*(7.95934977997137e-10+-5.82264421661359e-10)
variable C6${dir} equal 0.5*(${C6neg}+${C6pos})
variable C62 equal 0.5*(${C6neg}+${C6pos})
variable C62 equal 0.5*(1.2521209295284e-08+${C6pos})
variable C62 equal 0.5*(1.2521209295284e-08+-1.43621837645796e-08)

# Delete dir to make sure it is not reused

variable dir delete

# uzz Perturbation

variable dir equal 3
include displace.mod
# NOTE: This script should not need to be
# modified. See in.elastic for more info.
#
# Find which reference length to use

if "${dir} == 1" then    "variable len0 equal ${lx0}"
if "${dir} == 2" then    "variable len0 equal ${ly0}"
if "${dir} == 3" then    "variable len0 equal ${lz0}"
variable len0 equal ${lz0}
variable len0 equal 24.4334633918523
if "${dir} == 4" then    "variable len0 equal ${lz0}"
if "${dir} == 5" then    "variable len0 equal ${lz0}"
if "${dir} == 6" then    "variable len0 equal ${ly0}"

# Reset box and simulation parameters

clear
  using 1 OpenMP thread(s) per MPI task
Loaded 1 plugins from C:\Program Files\LAMMPS 64-bit 23Jun2022\plugins
Loaded 0 plugins from C:\Program Files\LAMMPS 64-bit 23Jun2022-MPI\plugins
Loaded 1 plugins from C:\Program Files\LAMMPS 64-bit 22Dec2022-MSMPI\plugins
Loaded 1 plugins from C:\Program Files\LAMMPS 64-bit 28Mar2023-MPI\plugins
box tilt large

The 'box' command has been removed and will be ignored

read_restart restart.equil
Reading restart file ...
  restart file = 22 Dec 2022, LAMMPS = 22 Dec 2022
  restoring atom style atomic from restart
  triclinic box = (0.002908538 0.002908538 0.002908538) to (12.21964 18.328006 24.436372) with tilt (0 0 0)
  1 by 2 by 2 MPI processor grid
  pair style meam stores no restart info
  384 atoms
  read_restart CPU = 0.000 seconds
include potential.mod
# NOTE: This script can be modified for different pair styles
# See in.elastic for more info.

# Choose potential
#-----------------------
#pair_style	sw
#pair_coeff * * Si.sw Si
#-----------------------
#pair_style morse	2.83994742	# D0[eV] a[1/A] r0[A] rc[A], 1NN for BCC
#pair_coeff 1 1	2.1173	1.0202	2.4595	2.6497	#	Fe-Fe
#-----------------------
#pair_style smatb # R0(A)   p       q     A(eV)   xi(eV)  Rcs(A)   Rc(A), 4NN: Rcs=4NN, Rc=(4NN+5NN)/2
#pair_coeff 1 1	2.4802	7.0149	2.3779	0.3144	3.0551	4.033	4.176	#	Co	Co
#-----------------------
#pair_style eam/alloy
#pair_coeff * * AlCrFeCoNi_Zhou04.eam.alloy Fe
#-----------------------
pair_style meam
pair_coeff * * ./../../library.meam Ti V N ./../../TiVN.meam Ti V
#-----------------------

# Setup neighbor style
neighbor 1.0 nsq
neigh_modify once no every 1 delay 0 check yes

# Setup minimization style
min_style	     cg
min_modify	     dmax ${dmax} line quadratic
min_modify	     dmax 0.01 line quadratic

# Setup output
thermo		1
thermo_style custom step temp pe press pxx pyy pzz pxy pxz pyz lx ly lz vol
thermo_modify norm no

# Negative deformation

variable delta equal -${up}*${len0}
variable delta equal -1e-06*${len0}
variable delta equal -1e-06*24.4334633918523
variable deltaxy equal -${up}*xy
variable deltaxy equal -1e-06*xy
variable deltaxz equal -${up}*xz
variable deltaxz equal -1e-06*xz
variable deltayz equal -${up}*yz
variable deltayz equal -1e-06*yz
if "${dir} == 1" then    "change_box all x delta 0 ${delta} xy delta ${deltaxy} xz delta ${deltaxz} remap units box"
if "${dir} == 2" then    "change_box all y delta 0 ${delta} yz delta ${deltayz} remap units box"
if "${dir} == 3" then    "change_box all z delta 0 ${delta} remap units box"
change_box all z delta 0 ${delta} remap units box
change_box all z delta 0 -2.44334633918523e-05 remap units box
Changing box ...
  triclinic box = (0.002908538 0.002908538 0.002908538) to (12.21964 18.328006 24.436347) with tilt (0 0 0)
if "${dir} == 4" then    "change_box all yz delta ${delta} remap units box"
if "${dir} == 5" then    "change_box all xz delta ${delta} remap units box"
if "${dir} == 6" then    "change_box all xy delta ${delta} remap units box"

# Relax atoms positions

minimize ${etol} ${ftol} ${maxiter} ${maxeval}
minimize 0 ${ftol} ${maxiter} ${maxeval}
minimize 0 1e-10 ${maxiter} ${maxeval}
minimize 0 1e-10 100 ${maxeval}
minimize 0 1e-10 100 1000
Neighbor list info ...
[...]
         3   0             -1999.872      -1.5530313e-06 -1.0638274e-06  1.1381176e-06 -4.7333841e-06 -0.6310337      1.0013936e-07 -1.0659953e-07  12.216732      18.325098      24.433463      5469.9879    
         4   0             -1999.872      -7.8721806e-07  4.6248597e-08  1.099652e-06  -3.5075548e-06 -0.6310336      3.9854352e-08 -7.2342518e-08  12.216732      18.325098      24.433463      5469.9879    
         5   0             -1999.872      -3.5000755e-07  1.3375775e-06  1.0598963e-06 -3.4474964e-06 -0.63103358     4.8829035e-08 -4.5106062e-08  12.216732      18.325098      24.433463      5469.9879    
         6   0             -1999.872      -2.1106422e-07  1.9756003e-06  1.0522957e-06 -3.6610887e-06 -0.6310336      2.3697142e-08 -2.8398699e-08  12.216732      18.325098      24.433463      5469.9879    
         7   0             -1999.872      -1.4691308e-07  2.224539e-06   1.0588687e-06 -3.7241469e-06 -0.63103361     6.2628322e-09 -1.6051578e-08  12.216732      18.325098      24.433463      5469.9879    
         8   0             -1999.872      -1.2234102e-07  2.3301599e-06  1.0631038e-06 -3.7602867e-06 -0.63103361     2.5235585e-09 -6.8013356e-09  12.216732      18.325098      24.433463      5469.9879    
         9   0             -1999.872      -1.140672e-07   2.3584986e-06  1.0722741e-06 -3.7729742e-06 -0.63103361     1.4912675e-09 -2.7926581e-09  12.216732      18.325098      24.433463      5469.9879    
        10   0             -1999.872      -1.1079625e-07  2.3582452e-06  1.0770392e-06 -3.7676732e-06 -0.63103361     7.6419295e-10 -8.1792254e-10  12.216732      18.325098      24.433463      5469.9879    
        11   0             -1999.872      -1.096283e-07   2.3535534e-06  1.077725e-06  -3.7601633e-06 -0.63103361     3.6207437e-10 -8.9195897e-11  12.216732      18.325098      24.433463      5469.9879    
        12   0             -1999.872      -1.090196e-07   2.3508014e-06  1.0772267e-06 -3.7550868e-06 -0.63103361     9.3477769e-11  4.8874454e-11  12.216732      18.325098      24.433463      5469.9879    
        13   0             -1999.872      -1.0873612e-07  2.3511931e-06  1.0766867e-06 -3.7540882e-06 -0.63103361     3.7880566e-11 -1.193523e-10   12.216732      18.325098      24.433463      5469.9879    
        14   0             -1999.872      -1.0851304e-07  2.3525281e-06  1.0763177e-06 -3.7543849e-06 -0.63103361     3.3296435e-11 -1.6203072e-10  12.216732      18.325098      24.433463      5469.9879    
        15   0             -1999.872      -1.0831606e-07  2.3532668e-06  1.0767161e-06 -3.7549311e-06 -0.63103361     6.1482594e-11 -9.7562242e-11  12.216732      18.325098      24.433463      5469.9879    
        16   0             -1999.872      -1.0820194e-07  2.3534457e-06  1.0770265e-06 -3.755078e-06  -0.63103361     4.1743695e-11 -8.8199819e-11  12.216732      18.325098      24.433463      5469.9879    
        17   0             -1999.872      -1.0815165e-07  2.3535707e-06  1.0771731e-06 -3.7551987e-06 -0.63103361    -1.1014466e-12 -1.4450151e-11  12.216732      18.325098      24.433463      5469.9879    
        18   0             -1999.872      -1.0816374e-07  2.3536019e-06  1.0770554e-06 -3.7551485e-06 -0.63103361     1.9728863e-11  1.1229712e-11  12.216732      18.325098      24.433463      5469.9879    
        19   0             -1999.872      -1.0808158e-07  2.3536057e-06  1.0772008e-06 -3.7550512e-06 -0.63103361    -5.2179937e-12  3.6141002e-11  12.216732      18.325098      24.433463      5469.9879    
        20   0             -1999.872      -1.0809888e-07  2.3536988e-06  1.0770304e-06 -3.7550258e-06 -0.63103361     2.935836e-12  -4.3506569e-11  12.216732      18.325098      24.433463      5469.9879    
        21   0             -1999.872      -1.0808032e-07  2.3537374e-06  1.0771822e-06 -3.7551606e-06 -0.63103361     1.9997143e-11  4.8361203e-11  12.216732      18.325098      24.433463      5469.9879    
        22   0             -1999.872      -1.0806784e-07  2.3536902e-06  1.0771959e-06 -3.7550896e-06 -0.63103361     1.590651e-11  -1.5443879e-11  12.216732      18.325098      24.433463      5469.9879    
        23   0             -1999.872      -1.081095e-07   2.353682e-06   1.0771639e-06 -3.7551744e-06 -0.63103361     2.0947937e-11  1.149361e-11   12.216732      18.325098      24.433463      5469.9879    
        24   0             -1999.872      -1.0807287e-07  2.3536716e-06  1.0771949e-06 -3.7550851e-06 -0.63103361     2.2830469e-11  4.7872787e-11  12.216732      18.325098      24.433463      5469.9879    
        25   0             -1999.872      -1.0810192e-07  2.3537699e-06  1.0771169e-06 -3.7551926e-06 -0.63103361    -4.7585389e-12 -1.1752172e-11  12.216732      18.325098      24.433463      5469.9879    
        26   0             -1999.872      -1.0807603e-07  2.3536585e-06  1.0772892e-06 -3.7551758e-06 -0.63103361     1.1806476e-11 -4.4969088e-11  12.216732      18.325098      24.433463      5469.9879    
        27   0             -1999.872      -1.0810187e-07  2.3537022e-06  1.0771757e-06 -3.7551835e-06 -0.63103361     1.226682e-11  -7.2265364e-13  12.216732      18.325098      24.433463      5469.9879    
        28   0             -1999.872      -1.080521e-07   2.3537585e-06  1.0772022e-06 -3.755117e-06  -0.63103361     2.7512665e-12  1.9864147e-11  12.216732      18.325098      24.433463      5469.9879    
        29   0             -1999.872      -1.0813855e-07  2.3536966e-06  1.0771104e-06 -3.7552226e-06 -0.63103361     1.9703966e-11  1.7575257e-11  12.216732      18.325098      24.433463      5469.9879    
        30   0             -1999.872      -1.0808444e-07  2.3537395e-06  1.0771242e-06 -3.755117e-06  -0.63103361    -3.8252754e-12 -2.6864195e-12  12.216732      18.325098      24.433463      5469.9879    
        31   0             -1999.872      -1.0810222e-07  2.3536586e-06  1.0772778e-06 -3.7552431e-06 -0.63103361    -1.2144366e-11 -1.3763637e-11  12.216732      18.325098      24.433463      5469.9879    
        32   0             -1999.872      -1.0807464e-07  2.3536581e-06  1.0773328e-06 -3.7552148e-06 -0.63103361    -5.2201531e-12 -1.6877373e-11  12.216732      18.325098      24.433463      5469.9879    
        33   0             -1999.872      -1.0806948e-07  2.3535671e-06  1.0773799e-06 -3.7551555e-06 -0.63103361    -1.4369616e-11 -6.8859149e-12  12.216732      18.325098      24.433463      5469.9879    
        34   0             -1999.872      -1.0804143e-07  2.3536525e-06  1.0774798e-06 -3.7552566e-06 -0.63103361     1.7767702e-11 -2.8284922e-11  12.216732      18.325098      24.433463      5469.9879    
        35   0             -1999.872      -1.0805483e-07  2.3536318e-06  1.0773933e-06 -3.7551896e-06 -0.63103361     1.0728783e-11 -1.4523826e-11  12.216732      18.325098      24.433463      5469.9879    
        36   0             -1999.872      -1.0805617e-07  2.353675e-06   1.0774123e-06 -3.7552558e-06 -0.63103361     2.0286129e-12  7.4099626e-12  12.216732      18.325098      24.433463      5469.9879    
        37   0             -1999.872      -1.0808904e-07  2.3536851e-06  1.0773326e-06 -3.7552848e-06 -0.63103361     1.0057957e-11  4.246076e-11   12.216732      18.325098      24.433463      5469.9879    
        38   0             -1999.872      -1.0804793e-07  2.3536942e-06  1.0774496e-06 -3.7552877e-06 -0.63103361    -2.8847713e-12 -2.0102575e-12  12.216732      18.325098      24.433463      5469.9879    
        39   0             -1999.872      -1.0807928e-07  2.3536552e-06  1.0773244e-06 -3.7552174e-06 -0.63103361    -1.6742598e-11  1.0023088e-11  12.216732      18.325098      24.433463      5469.9879    
Loop time of 0.0475 on 4 procs for 38 steps with 384 atoms

74.0% CPU use with 4 MPI tasks x 1 OpenMP threads

Minimization stats:
  Stopping criterion = force tolerance
  Energy initial, next-to-last, final = 
     -1999.87199986624  -1999.87200000746  -1999.87200000746
  Force two-norm initial, final = 0.001639213 8.2406289e-11
  Force max component initial, final = 0.00013669253 9.717057e-12
  Final line search alpha, max atom move = 1 9.717057e-12
  Iterations, force evaluations = 38 76

MPI task timing breakdown:
Section |  min time  |  avg time  |  max time  |%varavg| %total
---------------------------------------------------------------
Pair    | 0.044412   | 0.044546   | 0.044733   |   0.1 | 93.78
Neigh   | 0          | 0          | 0          |   0.0 |  0.00
Comm    | 0.001491   | 0.001586   | 0.001649   |   0.2 |  3.34
Output  | 0.000667   | 0.0007745  | 0.000854   |   0.0 |  1.63
Modify  | 0          | 0          | 0          |   0.0 |  0.00
Other   |            | 0.0005935  |            |       |  1.25

Nlocal:             96 ave          96 max          96 min
Histogram: 4 0 0 0 0 0 0 0 0 0
Nghost:            646 ave         646 max         646 min
Histogram: 4 0 0 0 0 0 0 0 0 0
Neighs:           2784 ave        2800 max        2768 min
Histogram: 2 0 0 0 0 0 0 0 0 2
FullNghs:         5568 ave        5568 max        5568 min
Histogram: 4 0 0 0 0 0 0 0 0 0

Total # of neighbors = 22272
Ave neighs/atom = 58
Neighbor list builds = 0
Dangerous builds = 0

# Obtain new stress tensor

variable tmp equal pe
variable e1 equal ${tmp}
variable e1 equal -1999.87200000746
variable tmp equal press
variable p1 equal ${tmp}
variable p1 equal -1.08079282307227e-07
variable tmp equal pxx
variable pxx1 equal ${tmp}
variable pxx1 equal 2.35365521013638e-06
variable tmp equal pyy
variable pyy1 equal ${tmp}
variable pyy1 equal 1.07732437015233e-06
variable tmp equal pzz
variable pzz1 equal ${tmp}
variable pzz1 equal -3.75521742721039e-06
variable tmp equal pxy
variable pxy1 equal ${tmp}
variable pxy1 equal -0.63103361092194
variable tmp equal pxz
variable pxz1 equal ${tmp}
variable pxz1 equal -1.67425979990189e-11
variable tmp equal pyz
variable pyz1 equal ${tmp}
variable pyz1 equal 1.00230878153287e-11

# Compute elastic constant from pressure tensor

variable C1pos equal ${d1}
variable C1pos equal -0.000235099176982656
variable C2pos equal ${d2}
variable C2pos equal -0.000107659445911118
variable C3pos equal ${d3}
variable C3pos equal 0.000375548344828505
variable C4pos equal ${d4}
variable C4pos equal -1.15166651519229e-09
variable C5pos equal ${d5}
variable C5pos equal 6.4341451992831e-10
variable C6pos equal ${d6}
variable C6pos equal 63.1033610793686

# Combine positive and negative

variable C1${dir} equal 0.5*(${C1neg}+${C1pos})
variable C16 equal 0.5*(${C1neg}+${C1pos})
variable C16 equal 0.5*(0.000235097004728249+${C1pos})
variable C16 equal 0.5*(0.000235097004728249+-0.000235099176982656)
variable C2${dir} equal 0.5*(${C2neg}+${C2pos})
variable C26 equal 0.5*(${C2neg}+${C2pos})
variable C26 equal 0.5*(0.00010766258072137+${C2pos})
variable C26 equal 0.5*(0.00010766258072137+-0.000107659445911118)
variable C3${dir} equal 0.5*(${C3neg}+${C3pos})
variable C36 equal 0.5*(${C3neg}+${C3pos})
variable C36 equal 0.5*(-0.000375551245503552+${C3pos})
variable C36 equal 0.5*(-0.000375551245503552+0.000375548344828505)
variable C4${dir} equal 0.5*(${C4neg}+${C4pos})
variable C46 equal 0.5*(${C4neg}+${C4pos})
variable C46 equal 0.5*(2.20886343817289e-10+${C4pos})
variable C46 equal 0.5*(2.20886343817289e-10+-1.15166651519229e-09)
variable C5${dir} equal 0.5*(${C5neg}+${C5pos})
variable C56 equal 0.5*(${C5neg}+${C5pos})
variable C56 equal 0.5*(-6.5314474819699e-10+${C5pos})
variable C56 equal 0.5*(-6.5314474819699e-10+6.4341451992831e-10)
variable C6${dir} equal 0.5*(${C6neg}+${C6pos})
variable C66 equal 0.5*(${C6neg}+${C6pos})
variable C66 equal 0.5*(63.1033611061648+${C6pos})
variable C66 equal 0.5*(63.1033611061648+63.1033610793686)

# Delete dir to make sure it is not reused

variable dir delete

# Output final values

variable C11all equal ${C11}
variable C11all equal 465.492042661405
variable C22all equal ${C22}
variable C22all equal 465.4920426395
variable C33all equal ${C33}
variable C33all equal 465.492042656214

variable C12all equal 0.5*(${C12}+${C21})
variable C12all equal 0.5*(-41.9296293173276+${C21})
variable C12all equal 0.5*(-41.9296293173276+-41.9296293127296)
variable C13all equal 0.5*(${C13}+${C31})
variable C13all equal 0.5*(-41.9296293139977+${C31})
variable C13all equal 0.5*(-41.9296293139977+-41.9296293129443)
variable C23all equal 0.5*(${C23}+${C32})
variable C23all equal 0.5*(-41.9296293140498+${C32})
variable C23all equal 0.5*(-41.9296293140498+-41.9296293127948)

variable C44all equal ${C44}
variable C44all equal 63.103361091339
variable C55all equal ${C55}
variable C55all equal 63.1033610919278
variable C66all equal ${C66}
variable C66all equal 63.1033610927667

variable C14all equal 0.5*(${C14}+${C41})
variable C14all equal 0.5*(-2.42590087950957e-09+${C41})
variable C14all equal 0.5*(-2.42590087950957e-09+-7.38229759874731e-10)
variable C15all equal 0.5*(${C15}+${C51})
variable C15all equal 0.5*(-5.01439565199914e-09+${C51})
variable C15all equal 0.5*(-5.01439565199914e-09+5.24174533054762e-10)
variable C16all equal 0.5*(${C16}+${C61})
variable C16all equal 0.5*(-1.08612720350226e-09+${C61})
variable C16all equal 0.5*(-1.08612720350226e-09+1.8035407414834e-09)

variable C24all equal 0.5*(${C24}+${C42})
variable C24all equal 0.5*(-4.66969659949467e-09+${C42})
variable C24all equal 0.5*(-4.66969659949467e-09+-2.20967229661735e-10)
variable C25all equal 0.5*(${C25}+${C52})
variable C25all equal 0.5*(5.85338013519079e-10+${C52})
variable C25all equal 0.5*(5.85338013519079e-10+1.06835278167889e-10)
variable C26all equal 0.5*(${C26}+${C62})
variable C26all equal 0.5*(1.56740512599905e-09+${C62})
variable C26all equal 0.5*(1.56740512599905e-09+-9.204872346478e-10)

variable C34all equal 0.5*(${C34}+${C43})
variable C34all equal 0.5*(-1.62593892750275e-09+${C43})
variable C34all equal 0.5*(-1.62593892750275e-09+-2.39585432698209e-09)
variable C35all equal 0.5*(${C35}+${C53})
variable C35all equal 0.5*(7.41428150503127e-10+${C53})
variable C35all equal 0.5*(7.41428150503127e-10+2.39622673997955e-10)
variable C36all equal 0.5*(${C36}+${C63})
variable C36all equal 0.5*(-1.45033752349988e-09+${C63})
variable C36all equal 0.5*(-1.45033752349988e-09+-6.4901675360305e-10)

variable C45all equal 0.5*(${C45}+${C54})
variable C45all equal 0.5*(-6.06506976541045e-10+${C54})
variable C45all equal 0.5*(-6.06506976541045e-10+1.21173733697112e-09)
variable C46all equal 0.5*(${C46}+${C64})
variable C46all equal 0.5*(-4.65390085687501e-10+${C64})
variable C46all equal 0.5*(-4.65390085687501e-10+9.899713347888e-10)
variable C56all equal 0.5*(${C56}+${C65})
variable C56all equal 0.5*(-4.86511413433999e-12+${C65})
variable C56all equal 0.5*(-4.86511413433999e-12+2.011448411958e-09)

# Average moduli for cubic crystals

variable C11cubic equal (${C11all}+${C22all}+${C33all})/3.0
variable C11cubic equal (465.492042661405+${C22all}+${C33all})/3.0
variable C11cubic equal (465.492042661405+465.4920426395+${C33all})/3.0
variable C11cubic equal (465.492042661405+465.4920426395+465.492042656214)/3.0
variable C12cubic equal (${C12all}+${C13all}+${C23all})/3.0
variable C12cubic equal (-41.9296293150286+${C13all}+${C23all})/3.0
variable C12cubic equal (-41.9296293150286+-41.929629313471+${C23all})/3.0
variable C12cubic equal (-41.9296293150286+-41.929629313471+-41.9296293134223)/3.0
variable C44cubic equal (${C44all}+${C55all}+${C66all})/3.0
variable C44cubic equal (63.103361091339+${C55all}+${C66all})/3.0
variable C44cubic equal (63.103361091339+63.1033610919278+${C66all})/3.0
variable C44cubic equal (63.103361091339+63.1033610919278+63.1033610927667)/3.0

variable bulkmodulus equal (${C11cubic}+2*${C12cubic})/3.0
variable bulkmodulus equal (465.492042652373+2*${C12cubic})/3.0
variable bulkmodulus equal (465.492042652373+2*-41.929629313974)/3.0
variable shearmodulus1 equal ${C44cubic}
variable shearmodulus1 equal 63.1033610920112
variable shearmodulus2 equal (${C11cubic}-${C12cubic})/2.0
variable shearmodulus2 equal (465.492042652373-${C12cubic})/2.0
variable shearmodulus2 equal (465.492042652373--41.929629313974)/2.0
variable poissonratio equal 1.0/(1.0+${C11cubic}/${C12cubic})
variable poissonratio equal 1.0/(1.0+465.492042652373/${C12cubic})
variable poissonratio equal 1.0/(1.0+465.492042652373/-41.929629313974)

# For Stillinger-Weber silicon, the analytical results
# are known to be (E. R. Cowley, 1988):
#               C11 = 151.4 GPa
#               C12 = 76.4 GPa
#               C44 = 56.4 GPa

print "========================================="
=========================================
print "Components of the Elastic Constant Tensor"
Components of the Elastic Constant Tensor
print "========================================="
=========================================

print "Elastic Constant C11all = ${C11all} ${cunits}"
Elastic Constant C11all = 465.492042661405 GPa
print "Elastic Constant C22all = ${C22all} ${cunits}"
Elastic Constant C22all = 465.4920426395 GPa
print "Elastic Constant C33all = ${C33all} ${cunits}"
Elastic Constant C33all = 465.492042656214 GPa

print "Elastic Constant C12all = ${C12all} ${cunits}"
Elastic Constant C12all = -41.9296293150286 GPa
print "Elastic Constant C13all = ${C13all} ${cunits}"
Elastic Constant C13all = -41.929629313471 GPa
print "Elastic Constant C23all = ${C23all} ${cunits}"
Elastic Constant C23all = -41.9296293134223 GPa

print "Elastic Constant C44all = ${C44all} ${cunits}"
Elastic Constant C44all = 63.103361091339 GPa
print "Elastic Constant C55all = ${C55all} ${cunits}"
Elastic Constant C55all = 63.1033610919278 GPa
print "Elastic Constant C66all = ${C66all} ${cunits}"
Elastic Constant C66all = 63.1033610927667 GPa

print "Elastic Constant C14all = ${C14all} ${cunits}"
Elastic Constant C14all = -1.58206531969215e-09 GPa
print "Elastic Constant C15all = ${C15all} ${cunits}"
Elastic Constant C15all = -2.24511055947219e-09 GPa
print "Elastic Constant C16all = ${C16all} ${cunits}"
Elastic Constant C16all = 3.5870676899057e-10 GPa

print "Elastic Constant C24all = ${C24all} ${cunits}"
Elastic Constant C24all = -2.4453319145782e-09 GPa
print "Elastic Constant C25all = ${C25all} ${cunits}"
Elastic Constant C25all = 3.46086645843484e-10 GPa
print "Elastic Constant C26all = ${C26all} ${cunits}"
Elastic Constant C26all = 3.23458945675625e-10 GPa

print "Elastic Constant C34all = ${C34all} ${cunits}"
Elastic Constant C34all = -2.01089662724242e-09 GPa
print "Elastic Constant C35all = ${C35all} ${cunits}"
Elastic Constant C35all = 4.90525412250541e-10 GPa
print "Elastic Constant C36all = ${C36all} ${cunits}"
Elastic Constant C36all = -1.04967713855147e-09 GPa

print "Elastic Constant C45all = ${C45all} ${cunits}"
Elastic Constant C45all = 3.02615180215037e-10 GPa
print "Elastic Constant C46all = ${C46all} ${cunits}"
Elastic Constant C46all = 2.6229062455065e-10 GPa
print "Elastic Constant C56all = ${C56all} ${cunits}"
Elastic Constant C56all = 1.00329164891183e-09 GPa

print "========================================="
=========================================
print "Average properties for a cubic crystal"
Average properties for a cubic crystal
print "========================================="
=========================================

print "Bulk Modulus = ${bulkmodulus} ${cunits}"
Bulk Modulus = 127.210928008142 GPa
print "Shear Modulus 1 = ${shearmodulus1} ${cunits}"
Shear Modulus 1 = 63.1033610920112 GPa
print "Shear Modulus 2 = ${shearmodulus2} ${cunits}"
Shear Modulus 2 = 253.710835983173 GPa
print "Poisson Ratio = ${poissonratio}"
Poisson Ratio = -0.0989928001011623
Total wall time: 0:00:00
