LAMMPS (22 Dec 2022)
  using 1 OpenMP thread(s) per MPI task
Loaded 1 plugins from C:\Program Files\LAMMPS 64-bit 23Jun2022\plugins
Loaded 0 plugins from C:\Program Files\LAMMPS 64-bit 23Jun2022-MPI\plugins
Loaded 1 plugins from C:\Program Files\LAMMPS 64-bit 22Dec2022-MSMPI\plugins
Loaded 1 plugins from C:\Program Files\LAMMPS 64-bit 28Mar2023-MPI\plugins
# Compute elastic constant tensor for a crystal
#
# Written by Aidan Thompson (Sandia, athomps@sandia.gov)
#
#  This script uses the following three include files.
#
#   init.mod      (must be modified for different crystal structures)
# 	       	  Define units, deformation parameters and initial
#		  configuration of the atoms and simulation cell.
#
#
#   potential.mod    (must be modified for different pair styles)
# 		     Define pair style and other attributes
#		     not stored in restart file
#
#
#   displace.mod    (displace.mod should not need to be modified)
# 		    Perform positive and negative box displacements
# 		    in direction ${dir} and size ${up}.
# 		    It uses the resultant changes
#		    in stress to compute one
# 		    row of the elastic stiffness tensor
#
#		    Inputs variables:
#		    	   dir = the Voigt deformation component
#		    		    (1,2,3,4,5,6)
#		    Global constants:
#       	    	   up = the deformation magnitude (strain units)
#       		   cfac = conversion from LAMMPS pressure units to
#               	   output units for elastic constants
#
#
#  To run this on a different system, it should only be necessary to
#  modify the files init.mod and potential.mod. In order to calculate
#  the elastic constants correctly, care must be taken to specify
#  the correct units in init.mod (units, cfac and cunits). It is also
#  important to verify that the minimization of energy w.r.t atom
#  positions in the deformed cell is fully converged.
#  One indication of this is that the elastic constants are insensitive
#  to the choice of the variable ${up} in init.mod. Another is to check
#  the final max and two-norm forces reported in the log file. If you know
#  that minimization is not required, you can set maxiter = 0.0 in
#  init.mod.
#

include init.mod
# NOTE: This script can be modified for different atomic structures,
# units, etc. See in.elastic for more info.
#

# Define the finite deformation size. Try several values of this
# variable to verify that results do not depend on it.
variable up equal 1.0e-6

# Define the amount of random jiggle for atoms
# This prevents atoms from staying on saddle points
variable atomjiggle equal 1.0e-5

# Uncomment one of these blocks, depending on what units
# you are using in LAMMPS and for output

# metal units, elastic constants in eV/A^3
#units		metal
#variable cfac equal 6.2414e-7
#variable cunits string eV/A^3

# metal units, elastic constants in GPa
units		metal
variable cfac equal 1.0e-4
variable cunits string GPa

# real units, elastic constants in GPa
#units		real
#variable cfac equal 1.01325e-4
#variable cunits string GPa

# Define minimization parameters
variable etol equal 0.0
variable ftol equal 1.0e-10
variable maxiter equal 100
variable maxeval equal 1000
variable dmax equal 1.0e-2

# generate the box and atom positions using a diamond lattice

dimension    3
boundary     p p p
read_data    data.in
Reading data file ...
  orthogonal box = (-0.90387446 -0.90387446 -0.90387446) to (4.0038745 4.0038745 4.0038745)
  1 by 2 by 2 MPI processor grid
  reading atoms ...
  8 atoms
  reading velocities ...
  8 velocities
  read_data CPU = 0.001 seconds
replicate    2 3 4
Replication is creating a 2x3x4 = 24 times larger system...
  orthogonal box = (-0.90387446 -0.90387446 -0.90387446) to (8.9116234 13.819372 18.727121)
  1 by 2 by 2 MPI processor grid
  192 atoms
  replicate CPU = 0.000 seconds
change_box   all triclinic
Changing box ...
  triclinic box = (-0.90387446 -0.90387446 -0.90387446) to (8.9116234 13.819372 18.727121) with tilt (0 0 0)

# Need to set mass to something, just to satisfy LAMMPS
mass 1 1.0e-20

include potential.mod
# NOTE: This script can be modified for different pair styles
# See in.elastic for more info.

# Choose potential
#-----------------------
#pair_style	sw
#pair_coeff * * Si.sw Si
#-----------------------
#pair_style morse	2.83994742	# D0[eV] a[1/A] r0[A] rc[A], 1NN for BCC
#pair_coeff 1 1	2.1173	1.0202	2.4595	2.6497	#	Fe-Fe
#-----------------------
#pair_style smatb # R0(A)   p       q     A(eV)   xi(eV)  Rcs(A)   Rc(A), 4NN: Rcs=4NN, Rc=(4NN+5NN)/2
#pair_coeff 1 1	2.4802	7.0149	2.3779	0.3144	3.0551	4.033	4.176	#	Co	Co
#-----------------------
#pair_style eam/alloy
#pair_coeff * * AlCrFeCoNi_Zhou04.eam.alloy Fe
#-----------------------
pair_style meam
pair_coeff * * ./../../library.meam Ti V N ./../../TiVN.meam Ti V
#-----------------------

# Setup neighbor style
neighbor 1.0 nsq
neigh_modify once no every 1 delay 0 check yes

# Setup minimization style
min_style	     cg
min_modify	     dmax ${dmax} line quadratic
min_modify	     dmax 0.01 line quadratic

# Setup output
thermo		1
thermo_style custom step temp pe press pxx pyy pzz pxy pxz pyz lx ly lz vol
thermo_modify norm no

# Compute initial state
fix 3 all box/relax  aniso 0.0
minimize ${etol} ${ftol} ${maxiter} ${maxeval}
minimize 0 ${ftol} ${maxiter} ${maxeval}
minimize 0 1e-10 ${maxiter} ${maxeval}
minimize 0 1e-10 100 ${maxeval}
minimize 0 1e-10 100 1000
Neighbor list info ...
  update: every = 1 steps, delay = 0 steps, check = yes
  max neighbors/atom: 2000, page size: 100000
  master list distance cutoff = 6
  ghost atom cutoff = 6
  2 neighbor lists, perpetual/occasional/extra = 2 0 0
  (1) pair meam, perpetual
      attributes: full, newton on
      pair build: full/nsq
      stencil: none
      bin: none
  (2) pair meam, perpetual, half/full from (1)
      attributes: half, newton on
      pair build: halffull/newton
      stencil: none
      bin: none
Per MPI rank memory allocation (min/avg/max) = 9.869 | 9.872 | 9.875 Mbytes
   Step          Temp          PotEng         Press           Pxx            Pyy            Pzz            Pxy            Pxz            Pyz             Lx             Ly             Lz           Volume    
         0   0             -892.75749     -1.7642164e-11  8.9851953e-11 -1.7662679e-10  3.3848339e-11  5.1734263e-25  5.8361149e-25  5.146696e-25   9.8154979      14.723247      19.630996      2836.9929    
         1   0             -892.75749      4.1643714e-11  1.2000775e-11  6.5542692e-11  4.7387674e-11  7.4956209e-25  6.7538551e-25  8.924578e-25   9.8154979      14.723247      19.630996      2836.9929    
Loop time of 0.00087225 on 4 procs for 1 steps with 192 atoms

0.0% CPU use with 4 MPI tasks x 1 OpenMP threads

Minimization stats:
  Stopping criterion = force tolerance
  Energy initial, next-to-last, final = 
     -892.757488040061  -892.757488040061  -892.757488040061
  Force two-norm initial, final = 3.6191009e-13 1.6340201e-13
  Force max component initial, final = 3.1275514e-13 1.1605722e-13
  Final line search alpha, max atom move = 1 1.1605722e-13
  Iterations, force evaluations = 1 2

MPI task timing breakdown:
Section |  min time  |  avg time  |  max time  |%varavg| %total
---------------------------------------------------------------
Pair    | 0.000655   | 0.00065975 | 0.000665   |   0.0 | 75.64
Neigh   | 0          | 0          | 0          |   0.0 |  0.00
Comm    | 8.3e-05    | 8.8e-05    | 9.5e-05    |   0.0 | 10.09
Output  | 0          | 0          | 0          |   0.0 |  0.00
Modify  | 0          | 0          | 0          |   0.0 |  0.00
Other   |            | 0.0001245  |            |       | 14.27

Nlocal:             48 ave          54 max          42 min
Histogram: 2 0 0 0 0 0 0 0 0 2
Nghost:            600 ave         606 max         594 min
Histogram: 2 0 0 0 0 0 0 0 0 2
Neighs:           1344 ave        1476 max        1212 min
Histogram: 2 0 0 0 0 0 0 0 0 2
FullNghs:         2688 ave        3024 max        2352 min
Histogram: 2 0 0 0 0 0 0 0 0 2

Total # of neighbors = 10752
Ave neighs/atom = 56
Neighbor list builds = 0
Dangerous builds = 0

variable tmp equal pxx
variable pxx0 equal ${tmp}
variable pxx0 equal 1.20007745991556e-11
variable tmp equal pyy
variable pyy0 equal ${tmp}
variable pyy0 equal 6.55426920415405e-11
variable tmp equal pzz
variable pzz0 equal ${tmp}
variable pzz0 equal 4.7387674058203e-11
variable tmp equal pyz
variable pyz0 equal ${tmp}
variable pyz0 equal 8.92457801135564e-25
variable tmp equal pxz
variable pxz0 equal ${tmp}
variable pxz0 equal 6.75385511804076e-25
variable tmp equal pxy
variable pxy0 equal ${tmp}
variable pxy0 equal 7.4956208681422e-25

variable tmp equal lx
variable lx0 equal ${tmp}
variable lx0 equal 9.81549785585311
variable tmp equal ly
variable ly0 equal ${tmp}
variable ly0 equal 14.7232467837797
variable tmp equal lz
variable lz0 equal ${tmp}
variable lz0 equal 19.6309957117062

# These formulas define the derivatives w.r.t. strain components
# Constants uses $, variables use v_
variable d1 equal -(v_pxx1-${pxx0})/(v_delta/v_len0)*${cfac}
variable d1 equal -(v_pxx1-1.20007745991556e-11)/(v_delta/v_len0)*${cfac}
variable d1 equal -(v_pxx1-1.20007745991556e-11)/(v_delta/v_len0)*0.0001
variable d2 equal -(v_pyy1-${pyy0})/(v_delta/v_len0)*${cfac}
variable d2 equal -(v_pyy1-6.55426920415405e-11)/(v_delta/v_len0)*${cfac}
variable d2 equal -(v_pyy1-6.55426920415405e-11)/(v_delta/v_len0)*0.0001
variable d3 equal -(v_pzz1-${pzz0})/(v_delta/v_len0)*${cfac}
variable d3 equal -(v_pzz1-4.7387674058203e-11)/(v_delta/v_len0)*${cfac}
variable d3 equal -(v_pzz1-4.7387674058203e-11)/(v_delta/v_len0)*0.0001
variable d4 equal -(v_pyz1-${pyz0})/(v_delta/v_len0)*${cfac}
variable d4 equal -(v_pyz1-8.92457801135564e-25)/(v_delta/v_len0)*${cfac}
variable d4 equal -(v_pyz1-8.92457801135564e-25)/(v_delta/v_len0)*0.0001
variable d5 equal -(v_pxz1-${pxz0})/(v_delta/v_len0)*${cfac}
variable d5 equal -(v_pxz1-6.75385511804076e-25)/(v_delta/v_len0)*${cfac}
variable d5 equal -(v_pxz1-6.75385511804076e-25)/(v_delta/v_len0)*0.0001
variable d6 equal -(v_pxy1-${pxy0})/(v_delta/v_len0)*${cfac}
variable d6 equal -(v_pxy1-7.4956208681422e-25)/(v_delta/v_len0)*${cfac}
variable d6 equal -(v_pxy1-7.4956208681422e-25)/(v_delta/v_len0)*0.0001

displace_atoms all random ${atomjiggle} ${atomjiggle} ${atomjiggle} 87287 units box
displace_atoms all random 1e-05 ${atomjiggle} ${atomjiggle} 87287 units box
displace_atoms all random 1e-05 1e-05 ${atomjiggle} 87287 units box
displace_atoms all random 1e-05 1e-05 1e-05 87287 units box
Displacing atoms ...

# Write restart
unfix 3
write_restart restart.equil
System init for write_restart ...

# uxx Perturbation

variable dir equal 1
include displace.mod
# NOTE: This script should not need to be
# modified. See in.elastic for more info.
#
# Find which reference length to use

if "${dir} == 1" then    "variable len0 equal ${lx0}"
variable len0 equal ${lx0}
variable len0 equal 9.81549785585311
if "${dir} == 2" then    "variable len0 equal ${ly0}"
if "${dir} == 3" then    "variable len0 equal ${lz0}"
if "${dir} == 4" then    "variable len0 equal ${lz0}"
if "${dir} == 5" then    "variable len0 equal ${lz0}"
if "${dir} == 6" then    "variable len0 equal ${ly0}"

# Reset box and simulation parameters

clear
  using 1 OpenMP thread(s) per MPI task
Loaded 1 plugins from C:\Program Files\LAMMPS 64-bit 23Jun2022\plugins
Loaded 0 plugins from C:\Program Files\LAMMPS 64-bit 23Jun2022-MPI\plugins
Loaded 1 plugins from C:\Program Files\LAMMPS 64-bit 22Dec2022-MSMPI\plugins
Loaded 1 plugins from C:\Program Files\LAMMPS 64-bit 28Mar2023-MPI\plugins
box tilt large

The 'box' command has been removed and will be ignored

read_restart restart.equil
Reading restart file ...
  restart file = 22 Dec 2022, LAMMPS = 22 Dec 2022
  restoring atom style atomic from restart
  triclinic box = (-0.90387446 -0.90387446 -0.90387446) to (8.9116234 13.819372 18.727121) with tilt (0 0 0)
  1 by 2 by 2 MPI processor grid
  pair style meam stores no restart info
  192 atoms
  read_restart CPU = 0.000 seconds
include potential.mod
# NOTE: This script can be modified for different pair styles
# See in.elastic for more info.

# Choose potential
#-----------------------
#pair_style	sw
#pair_coeff * * Si.sw Si
#-----------------------
#pair_style morse	2.83994742	# D0[eV] a[1/A] r0[A] rc[A], 1NN for BCC
#pair_coeff 1 1	2.1173	1.0202	2.4595	2.6497	#	Fe-Fe
#-----------------------
#pair_style smatb # R0(A)   p       q     A(eV)   xi(eV)  Rcs(A)   Rc(A), 4NN: Rcs=4NN, Rc=(4NN+5NN)/2
#pair_coeff 1 1	2.4802	7.0149	2.3779	0.3144	3.0551	4.033	4.176	#	Co	Co
#-----------------------
#pair_style eam/alloy
#pair_coeff * * AlCrFeCoNi_Zhou04.eam.alloy Fe
#-----------------------
pair_style meam
pair_coeff * * ./../../library.meam Ti V N ./../../TiVN.meam Ti V
#-----------------------

# Setup neighbor style
neighbor 1.0 nsq
neigh_modify once no every 1 delay 0 check yes

# Setup minimization style
min_style	     cg
min_modify	     dmax ${dmax} line quadratic
min_modify	     dmax 0.01 line quadratic

# Setup output
thermo		1
thermo_style custom step temp pe press pxx pyy pzz pxy pxz pyz lx ly lz vol
thermo_modify norm no

# Negative deformation

variable delta equal -${up}*${len0}
variable delta equal -1e-06*${len0}
variable delta equal -1e-06*9.81549785585311
variable deltaxy equal -${up}*xy
variable deltaxy equal -1e-06*xy
variable deltaxz equal -${up}*xz
variable deltaxz equal -1e-06*xz
variable deltayz equal -${up}*yz
variable deltayz equal -1e-06*yz
if "${dir} == 1" then    "change_box all x delta 0 ${delta} xy delta ${deltaxy} xz delta ${deltaxz} remap units box"
change_box all x delta 0 ${delta} xy delta ${deltaxy} xz delta ${deltaxz} remap units box
change_box all x delta 0 -9.81549785585311e-06 xy delta ${deltaxy} xz delta ${deltaxz} remap units box
change_box all x delta 0 -9.81549785585311e-06 xy delta -0 xz delta ${deltaxz} remap units box
change_box all x delta 0 -9.81549785585311e-06 xy delta -0 xz delta -0 remap units box
Changing box ...
  triclinic box = (-0.90387446 -0.90387446 -0.90387446) to (8.9116136 13.819372 18.727121) with tilt (0 0 0)
  triclinic box = (-0.90387446 -0.90387446 -0.90387446) to (8.9116136 13.819372 18.727121) with tilt (0 0 0)
  triclinic box = (-0.90387446 -0.90387446 -0.90387446) to (8.9116136 13.819372 18.727121) with tilt (0 0 0)
if "${dir} == 2" then    "change_box all y delta 0 ${delta} yz delta ${deltayz} remap units box"
if "${dir} == 3" then    "change_box all z delta 0 ${delta} remap units box"
if "${dir} == 4" then    "change_box all yz delta ${delta} remap units box"
if "${dir} == 5" then    "change_box all xz delta ${delta} remap units box"
if "${dir} == 6" then    "change_box all xy delta ${delta} remap units box"

# Relax atoms positions

minimize ${etol} ${ftol} ${maxiter} ${maxeval}
minimize 0 ${ftol} ${maxiter} ${maxeval}
minimize 0 1e-10 ${maxiter} ${maxeval}
minimize 0 1e-10 100 ${maxeval}
minimize 0 1e-10 100 1000
Neighbor list info ...
  update: every = 1 steps, delay = 0 steps, check = yes
  max neighbors/atom: 2000, page size: 100000
  master list distance cutoff = 6
  ghost atom cutoff = 6
  2 neighbor lists, perpetual/occasional/extra = 2 0 0
  (1) pair meam, perpetual
      attributes: full, newton on
      pair build: full/nsq
      stencil: none
      bin: none
  (2) pair meam, perpetual, half/full from (1)
      attributes: half, newton on
      pair build: halffull/newton
      stencil: none
      bin: none
Per MPI rank memory allocation (min/avg/max) = 9.861 | 9.862 | 9.863 Mbytes
   Step          Temp          PotEng         Press           Pxx            Pyy            Pzz            Pxy            Pxz            Pyz             Lx             Ly             Lz           Volume    
         1   0             -892.75749      0.88603453     2.3313352      0.16337575     0.16339266    -1.1859537e-06  1.3263023e-06 -2.9727818e-07  9.815488       14.723247      19.630996      2836.9901    
         2   0             -892.75749      0.8860171      2.3313132      0.16336476     0.16337332    -1.0971736e-06 -5.4597694e-08 -3.305839e-08   9.815488       14.723247      19.630996      2836.9901    
         3   0             -892.75749      0.88601336     2.331313       0.1633606      0.16336652    -2.7559933e-06 -4.2773723e-07 -2.8058284e-07  9.815488       14.723247      19.630996      2836.9901    
         4   0             -892.75749      0.88596049     2.3313091      0.16330343     0.16326895    -2.9916709e-05 -4.8980194e-06 -3.0703652e-06  9.815488       14.723247      19.630996      2836.9901    
         5   0             -892.75749      0.88268035     2.3311168      0.15982493     0.15709927    -0.0019005255  -0.00014572778 -0.00029612082  9.815488       14.723247      19.630996      2836.9901    
         6   0             -892.75837     -3.6443686      2.1122948     -4.5402163     -8.5051844     -2.6773269     -0.15071173    -0.46988321     9.815488       14.723247      19.630996      2836.9901    
         7   0             -892.76238     -24.361012      1.1464333     -26.040066     -48.189402     -14.947965     -0.83281498    -2.6220483      9.815488       14.723247      19.630996      2836.9901    
         8   0             -892.7696      -61.785122     -0.50173631    -64.890211     -119.96342     -37.157759     -2.0598901     -6.5034523      9.815488       14.723247      19.630996      2836.9901    
         9   0             -892.77995     -115.79445     -2.6716637     -120.9834      -223.72828     -69.292994     -3.8256115     -12.100795      9.815488       14.723247      19.630996      2836.9901    
        10   0             -892.79337     -186.31018     -5.1330454     -194.22188     -359.5756      -111.40921     -6.1174412     -19.434048      9.815488       14.723247      19.630996      2836.9901    
        11   0             -892.81012     -273.79292     -7.5781516     -284.82578     -528.97481     -164.04125     -8.889725      -28.717678      9.815488       14.723247      19.630996      2836.9901    
        12   0             -892.83244     -382.38841     -9.5971829     -395.30938     -742.25867     -230.79289     -11.897562     -41.377348      9.815488       14.723247      19.630996      2836.9901    
        13   0             -892.87142     -529.36073     -10.773955     -533.08223     -1044.226      -327.88209     -13.528757     -64.81735       9.815488       14.723247      19.630996      2836.9901    
        14   0             -892.93108     -711.95576     -14.63958      -677.00023     -1444.2275     -462.19052     -10.193221     -107.33283      9.815488       14.723247      19.630996      2836.9901    
        15   0             -893.00029     -930.10608     -33.891889     -822.92699     -1933.4994     -628.82377     -2.1134754     -167.63887      9.815488       14.723247      19.630996      2836.9901    
        16   0             -893.0799      -1192.7831     -82.218731     -970.67594     -2525.4545     -829.16941      10.694344     -248.88782      9.815488       14.723247      19.630996      2836.9901    
        17   0             -893.17312     -1510.4732     -175.89724     -1113.9468     -3241.5757     -1067.6009      28.787302     -358.58017      9.815488       14.723247      19.630996      2836.9901    
        18   0             -893.28188     -1891.5073     -337.59203     -1240.0186     -4096.9113     -1344.6383      52.200738     -505.93571      9.815488       14.723247      19.630996      2836.9901    
        19   0             -893.40603     -2338.8269     -596.70348     -1330.3266     -5089.4506     -1652.4895      79.643734     -700.43677      9.815488       14.723247      19.630996      2836.9901    
        20   0             -893.54366     -2849.7448     -988.53744     -1364.3007     -6196.3964     -1973.817       108.10495     -951.03744      9.815488       14.723247      19.630996      2836.9901    
        21   0             -893.6882      -3402.4628     -1537.0346     -1326.4691     -7343.8847     -2275.2402      132.56213     -1257.084       9.815488       14.723247      19.630996      2836.9901    
        22   0             -893.82974     -3957.81       -2230.8265     -1220.6044     -8421.9992     -2519.7933      148.49728     -1602.2676      9.815488       14.723247      19.630996      2836.9901    
        23   0             -893.95663     -4464.8657     -2999.0954     -1074.8389     -9320.6627     -2685.7169      155.16741     -1951.0623      9.815488       14.723247      19.630996      2836.9901    
        24   0             -894.07265     -4934.9366     -3827.1461     -907.21744     -10070.446     -2791.3306      156.02972     -2301.9742      9.815488       14.723247      19.630996      2836.9901    
        25   0             -894.18054     -5377.5494     -4706.0936     -728.64754     -10697.907     -2852.0008      154.24818     -2654.9085      9.815488       14.723247      19.630996      2836.9901    
        26   0             -894.28227     -5800.2515     -5631.2612     -546.4119      -11223.081     -2879.5258      152.4831      -3010.1984      9.815488       14.723247      19.630996      2836.9901    
        27   0             -894.37929     -6209.3467     -6601.3027     -366.23644     -11660.501     -2882.8646      152.99088     -3367.9932      9.815488       14.723247      19.630996      2836.9901    
        28   0             -894.47281     -6610.3415     -7617.6534     -193.74668     -12019.624     -2868.7438      157.73517     -3729.594       9.815488       14.723247      19.630996      2836.9901    
        29   0             -894.56389     -7008.5308     -8684.5819     -35.283993     -12305.726     -2843.0402      168.67163     -4095.9061      9.815488       14.723247      19.630996      2836.9901    
        30   0             -894.65372     -7409.7258     -9810.2666      101.53966     -12520.45      -2815.7198      188.12707     -4467.7916      9.815488       14.723247      19.630996      2836.9901    
        31   0             -894.74379     -7821.3441     -11006.973      205.17984     -12662.239     -2786.4071      218.51221     -4845.512       9.815488       14.723247      19.630996      2836.9901    
        32   0             -894.83603     -8253.0289     -12293.159      259.03461     -12724.963     -2766.9146      263.48237     -5228.5609      9.815488       14.723247      19.630996      2836.9901    
        33   0             -894.92239     -8664.5301     -13531.7        240.80722     -12702.698     -2770.9645      320.89991     -5569.0422      9.815488       14.723247      19.630996      2836.9901    
        34   0             -895.00426     -9059.1668     -14708.421      147.09655     -12616.176     -2793.2459      389.06324     -5856.989       9.815488       14.723247      19.630996      2836.9901    
        35   0             -895.08421     -9446.7246     -15830.604     -24.177421     -12485.392     -2831.8741      466.63949     -6091.0431      9.815488       14.723247      19.630996      2836.9901    
        36   0             -895.16416     -9834.2243     -16899.398     -272.57107     -12330.704     -2887.4306      552.10385     -6266.6253      9.815488       14.723247      19.630996      2836.9901    
        37   0             -895.24642     -10230.17      -17921.548     -596.05049     -12172.911     -2965.771       644.53891     -6377.0171      9.815488       14.723247      19.630996      2836.9901    
        38   0             -895.33436     -10646.811     -18912.074     -994.74347     -12033.617     -3070.783       744.38289     -6411.7704      9.815488       14.723247      19.630996      2836.9901    
        39   0             -895.43269     -11099.519     -19889.676     -1470.399      -11938.482     -3217.7491      852.38151     -6352.5739      9.815488       14.723247      19.630996      2836.9901    
        40   0             -895.52701     -11514.001     -20698.647     -1921.3656     -11921.989     -3370.4692      949.2707      -6204.8344      9.815488       14.723247      19.630996      2836.9901    
        41   0             -895.61712     -11882.501     -21362.334     -2315.2934     -11969.875     -3509.4475      1036.746      -5998.57        9.815488       14.723247      19.630996      2836.9901    
        42   0             -895.70466     -12206.588     -21918.843     -2640.9958     -12059.924     -3593.3687      1121.7498     -5757.4815      9.815488       14.723247      19.630996      2836.9901    
        43   0             -895.79396     -12498.195     -22405.934     -2912.0833     -12176.567     -3666.614       1204.7956     -5496.8444      9.815488       14.723247      19.630996      2836.9901    
        44   0             -895.88786     -12764.87      -22844.553     -3137.7138     -12312.342     -3735.3467      1287.6382     -5225.3911      9.815488       14.723247      19.630996      2836.9901    
        45   0             -895.98877     -13011.783     -23246.393     -3325.3658     -12463.591     -3804.684       1371.0228     -4949.8306      9.815488       14.723247      19.630996      2836.9901    
        46   0             -896.09878     -13242.465     -23617.367     -3480.9897     -12629.038     -3879.781       1454.9659     -4675.3485      9.815488       14.723247      19.630996      2836.9901    
        47   0             -896.2197      -13459.201     -23959.389     -3609.3385     -12808.877     -3966.6525      1538.8822     -4404.977       9.815488       14.723247      19.630996      2836.9901    
        48   0             -896.35313     -13663.297     -24271.417     -3714.081      -13004.394     -4071.8791      1621.6859     -4140.6611      9.815488       14.723247      19.630996      2836.9901    
        49   0             -896.50041     -13855.23      -24550.035     -3797.782      -13217.873     -4202.5279      1701.744      -3884.1662      9.815488       14.723247      19.630996      2836.9901    
        50   0             -896.66267     -14034.739     -24789.758     -3861.9803     -13452.477     -4364.8181      1777.0954     -3636.5029      9.815488       14.723247      19.630996      2836.9901    
        51   0             -896.84086     -14200.843     -24983.018     -3907.0937     -13712.418     -4563.8169      1845.4386     -3398.3032      9.815488       14.723247      19.630996      2836.9901    
        52   0             -897.03569     -14351.783     -25119.714     -3932.457      -14003.178     -4804.6842      1903.9556     -3169.8309      9.815488       14.723247      19.630996      2836.9901    
        53   0             -897.24144     -14481.569     -25185.695     -3936.829      -14322.182     -5084.5392      1948.0778     -2955.9988      9.815488       14.723247      19.630996      2836.9901    
        54   0             -897.44575     -14584.126     -25174.094     -3921.869      -14656.415     -5387.7034      1973.9827     -2763.3538      9.815488       14.723247      19.630996      2836.9901    
        55   0             -897.64452     -14661.398     -25088.321     -3891.1728     -15004.702     -5704.6329      1980.9928     -2590.5247      9.815488       14.723247      19.630996      2836.9901    
        56   0             -897.8324      -14716.641     -24937.122     -3850.4437     -15362.357     -6016.0691      1969.9712     -2435.8805      9.815488       14.723247      19.630996      2836.9901    
        57   0             -898.0069      -14756.149     -24733.506     -3807.684      -15727.256     -6298.1567      1943.4727     -2293.9078      9.815488       14.723247      19.630996      2836.9901    
        58   0             -898.16716     -14788.462     -24494.104     -3773.5754     -16097.706     -6522.9826      1903.5453     -2157.8653      9.815488       14.723247      19.630996      2836.9901    
        59   0             -898.31281     -14824.007     -24240.748     -3761.4263     -16469.846     -6661.8122      1852.5739     -2025.0331      9.815488       14.723247      19.630996      2836.9901    
        60   0             -898.44647     -14874.584     -23994.323     -3785.408      -16844.02      -6695.423       1792.6709     -1893.9495      9.815488       14.723247      19.630996      2836.9901    
        61   0             -898.57294     -14952.679     -23771.827     -3863.5772     -17222.632     -6644.2729      1724.5231     -1742.0689      9.815488       14.723247      19.630996      2836.9901    
        62   0             -898.69948     -15072.559     -23585.422     -4015.1292     -17617.125     -6541.8578      1637.2432     -1569.9529      9.815488       14.723247      19.630996      2836.9901    
        63   0             -898.83772     -15252.129     -23444.293     -4262.2425     -18049.85      -6449.3585      1511.8436     -1404.1747      9.815488       14.723247      19.630996      2836.9901    
        64   0             -899.00818     -15512.811     -23360.343     -4623.6003     -18554.491     -6363.1365      1355.9608     -1262.4832      9.815488       14.723247      19.630996      2836.9901    
        65   0             -899.15842     -15747.393     -23344.592     -4935.514      -18962.073     -6367.4602      1233.9201     -1267.0545      9.815488       14.723247      19.630996      2836.9901    
        66   0             -899.30101     -15950.017     -23348.088     -5186.5557     -19315.406     -6448.0141      1126.9806     -1398.3082      9.815488       14.723247      19.630996      2836.9901    
        67   0             -899.44398     -16126.344     -23353.235     -5387.967      -19637.829     -6597.7347      1027.8682     -1577.037       9.815488       14.723247      19.630996      2836.9901    
        68   0             -899.59069     -16281.458     -23355.045     -5547.2644     -19942.066     -6804.8446      933.86527     -1798.0452      9.815488       14.723247      19.630996      2836.9901    
        69   0             -899.74283     -16418.883     -23349.812     -5669.8615     -20236.975     -7059.6193      836.90755     -2056.8695      9.815488       14.723247      19.630996      2836.9901    
        70   0             -899.90114     -16540.906     -23332.557     -5759.9474     -20530.213     -7352.7539      718.36432     -2346.4389      9.815488       14.723247      19.630996      2836.9901    
        71   0             -900.06589     -16649.012     -23301.293     -5819.7523     -20825.991     -7676.8488      579.08902     -2662.8635      9.815488       14.723247      19.630996      2836.9901    
        72   0             -900.23687     -16744.021     -23256.203     -5850.1381     -21125.722     -8024.9487      444.99215     -3005.5796      9.815488       14.723247      19.630996      2836.9901    
        73   0             -900.41362     -16826.394     -23196.395     -5852.4952     -21430.291     -8389.7411      308.03516     -3372.3447      9.815488       14.723247      19.630996      2836.9901    
        74   0             -900.59546     -16896.506     -23118.74      -5828.2165     -21742.563     -8761.7045      166.6028      -3760.2547      9.815488       14.723247      19.630996      2836.9901    
        75   0             -900.7817      -16954.754     -23022.918     -5778.3553     -22062.99      -9134.2331      7.215073      -4172.1237      9.815488       14.723247      19.630996      2836.9901    
        76   0             -900.97158     -17001.751     -22909.109     -5704.2857     -22391.859     -9498.4832     -162.76689     -4606.8191      9.815488       14.723247      19.630996      2836.9901    
        77   0             -901.16442     -17038.283     -22775.447     -5608.4328     -22730.969     -9842.6174     -340.55243     -5055.6956      9.815488       14.723247      19.630996      2836.9901    
        78   0             -901.35973     -17065.542     -22622.046     -5493.4456     -23081.135     -10155.427     -544.00992     -5521.906       9.815488       14.723247      19.630996      2836.9901    
        79   0             -901.55673     -17085.03      -22449.585     -5362.5123     -23442.993     -10423.756     -778.84371     -5998.7842      9.815488       14.723247      19.630996      2836.9901    
        80   0             -901.75052     -17098.684     -22265.193     -5223.5959     -23807.264     -10638.418     -1038.0845     -6466.4567      9.815488       14.723247      19.630996      2836.9901    
        81   0             -901.94171     -17109.377     -22071.966     -5081.7504     -24174.416     -10797.367     -1322.471      -6919.7205      9.815488       14.723247      19.630996      2836.9901    
        82   0             -902.13138     -17120.017     -21872.34      -4941.7609     -24545.95      -10891.746     -1636.566      -7353.5297      9.815488       14.723247      19.630996      2836.9901    
        83   0             -902.3211      -17133.598     -21668.436     -4808.7072     -24923.65      -10925.063     -1984.6096     -7762.9391      9.815488       14.723247      19.630996      2836.9901    
        84   0             -902.51284     -17153.291     -21462.442     -4687.3491     -25310.082     -10903.648     -2372.4944     -8145.1047      9.815488       14.723247      19.630996      2836.9901    
        85   0             -902.70892     -17182.346     -21255.985     -4583.0326     -25708.021     -10830.775     -2806.4513     -8492.2681      9.815488       14.723247      19.630996      2836.9901    
        86   0             -902.91277     -17224.36      -21049.381     -4501.9357     -26121.764     -10706.205     -3293.8194     -8799.9966      9.815488       14.723247      19.630996      2836.9901    
        87   0             -903.12894     -17283.322     -20842.319     -4451.0678     -26556.577     -10532.798     -3841.838      -9060.0918      9.815488       14.723247      19.630996      2836.9901    
        88   0             -903.36347     -17363.629     -20633.237     -4438.5823     -27019.068     -10312.754     -4461.083      -9265.1087      9.815488       14.723247      19.630996      2836.9901    
        89   0             -903.62249     -17469.684     -20420.861     -4474.3259     -27513.864     -10047.6       -5157.978      -9423.9181      9.815488       14.723247      19.630996      2836.9901    
        90   0             -903.87294     -17587.181     -20232.842     -4556.1267     -27972.573     -9787.192      -5831.4722     -9510.8308      9.815488       14.723247      19.630996      2836.9901    
        91   0             -904.11973     -17712.261     -20060.311     -4673.1534     -28403.32      -9537.5946     -6485.715      -9552.8677      9.815488       14.723247      19.630996      2836.9901    
        92   0             -904.36642     -17841.974     -19896.304     -4818.1298     -28811.49      -9299.4996     -7123.1378     -9583.3463      9.815488       14.723247      19.630996      2836.9901    
        93   0             -904.61585     -17974.227     -19735.281     -4985.955      -29201.447     -9075.5555     -7738.7674     -9599.129       9.815488       14.723247      19.630996      2836.9901    
        94   0             -904.8704      -18107.534     -19572.744     -5173.0194     -29576.839     -8867.9153     -8343.8779     -9600.3168      9.815488       14.723247      19.630996      2836.9901    
        95   0             -905.13218     -18240.81      -19404.832     -5376.017      -29941.58      -8677.0636     -8948.8468     -9595.4508      9.815488       14.723247      19.630996      2836.9901    
        96   0             -905.40336     -18373.278     -19228.036     -5592.8477     -30298.95      -8502.988      -9558.2947     -9583.3694      9.815488       14.723247      19.630996      2836.9901    
        97   0             -905.68629     -18504.378     -19038.898     -5821.1633     -30653.073     -8343.3858     -10162.133     -9566.2655      9.815488       14.723247      19.630996      2836.9901    
        98   0             -905.9838      -18633.67      -18833.884     -6058.8864     -31008.239     -8199.5843     -10769.413     -9547.649       9.815488       14.723247      19.630996      2836.9901    
        99   0             -906.29908     -18760.557     -18608.961     -6304.125      -31368.585     -8072.8007     -11382.183     -9530.0742      9.815488       14.723247      19.630996      2836.9901    
       100   0             -906.63245     -18882.963     -18365.055     -6549.2874     -31734.545     -7982.5731     -11990.235     -9513.7016      9.815488       14.723247      19.630996      2836.9901    
       101   0             -906.98662     -18999.394     -18098.108     -6791.8283     -32108.247     -7922.2388     -12584.05      -9501.6327      9.815488       14.723247      19.630996      2836.9901    
Loop time of 0.027416 on 4 procs for 100 steps with 192 atoms

57.0% CPU use with 4 MPI tasks x 1 OpenMP threads

Minimization stats:
  Stopping criterion = max iterations
  Energy initial, next-to-last, final = 
     -892.757488017505  -906.632453568592  -906.986619732445
  Force two-norm initial, final = 0.00040211653 6.2030434
  Force max component initial, final = 5.0828481e-05 1.0426622
  Final line search alpha, max atom move = 0.0092755692 0.0096712856
  Iterations, force evaluations = 100 102

MPI task timing breakdown:
Section |  min time  |  avg time  |  max time  |%varavg| %total
---------------------------------------------------------------
Pair    | 0.022818   | 0.022954   | 0.023204   |   0.1 | 83.72
Neigh   | 8e-05      | 8.5e-05    | 9e-05      |   0.0 |  0.31
Comm    | 0.001851   | 0.0021665  | 0.002327   |   0.4 |  7.90
Output  | 0.001224   | 0.0012878  | 0.001436   |   0.2 |  4.70
Modify  | 0          | 0          | 0          |   0.0 |  0.00
Other   |            | 0.0009232  |            |       |  3.37

Nlocal:             48 ave          50 max          46 min
Histogram: 2 0 0 0 0 0 0 0 0 2
Nghost:            600 ave         602 max         598 min
Histogram: 2 0 0 0 0 0 0 0 0 2
Neighs:        1605.75 ave        1749 max        1499 min
Histogram: 2 0 0 0 0 0 0 1 0 1
FullNghs:       3211.5 ave        3380 max        3048 min
Histogram: 1 0 1 0 0 0 0 1 0 1

Total # of neighbors = 12846
Ave neighs/atom = 66.90625
Neighbor list builds = 1
Dangerous builds = 0

# Obtain new stress tensor

variable tmp equal pxx
variable pxx1 equal ${tmp}
variable pxx1 equal -18098.1080164055
variable tmp equal pyy
variable pyy1 equal ${tmp}
variable pyy1 equal -6791.82827070011
variable tmp equal pzz
variable pzz1 equal ${tmp}
variable pzz1 equal -32108.2466530185
variable tmp equal pxy
variable pxy1 equal ${tmp}
variable pxy1 equal -7922.23882002944
variable tmp equal pxz
variable pxz1 equal ${tmp}
variable pxz1 equal -12584.050453387
variable tmp equal pyz
variable pyz1 equal ${tmp}
variable pyz1 equal -9501.63272983588

# Compute elastic constant from pressure tensor

variable C1neg equal ${d1}
variable C1neg equal -1809810.80164055
variable C2neg equal ${d2}
variable C2neg equal -679182.827070018
variable C3neg equal ${d3}
variable C3neg equal -3210824.66530186
variable C4neg equal ${d4}
variable C4neg equal -950163.272983588
variable C5neg equal ${d5}
variable C5neg equal -1258405.0453387
variable C6neg equal ${d6}
variable C6neg equal -792223.882002944

# Reset box and simulation parameters

clear
  using 1 OpenMP thread(s) per MPI task
Loaded 1 plugins from C:\Program Files\LAMMPS 64-bit 23Jun2022\plugins
Loaded 0 plugins from C:\Program Files\LAMMPS 64-bit 23Jun2022-MPI\plugins
Loaded 1 plugins from C:\Program Files\LAMMPS 64-bit 22Dec2022-MSMPI\plugins
Loaded 1 plugins from C:\Program Files\LAMMPS 64-bit 28Mar2023-MPI\plugins
box tilt large

The 'box' command has been removed and will be ignored

read_restart restart.equil
Reading restart file ...
  restart file = 22 Dec 2022, LAMMPS = 22 Dec 2022
  restoring atom style atomic from restart
  triclinic box = (-0.90387446 -0.90387446 -0.90387446) to (8.9116234 13.819372 18.727121) with tilt (0 0 0)
  1 by 2 by 2 MPI processor grid
  pair style meam stores no restart info
  192 atoms
  read_restart CPU = 0.000 seconds
include potential.mod
# NOTE: This script can be modified for different pair styles
# See in.elastic for more info.

# Choose potential
#-----------------------
#pair_style	sw
#pair_coeff * * Si.sw Si
#-----------------------
#pair_style morse	2.83994742	# D0[eV] a[1/A] r0[A] rc[A], 1NN for BCC
#pair_coeff 1 1	2.1173	1.0202	2.4595	2.6497	#	Fe-Fe
#-----------------------
#pair_style smatb # R0(A)   p       q     A(eV)   xi(eV)  Rcs(A)   Rc(A), 4NN: Rcs=4NN, Rc=(4NN+5NN)/2
#pair_coeff 1 1	2.4802	7.0149	2.3779	0.3144	3.0551	4.033	4.176	#	Co	Co
#-----------------------
#pair_style eam/alloy
#pair_coeff * * AlCrFeCoNi_Zhou04.eam.alloy Fe
#-----------------------
pair_style meam
pair_coeff * * ./../../library.meam Ti V N ./../../TiVN.meam Ti V
#-----------------------

# Setup neighbor style
neighbor 1.0 nsq
neigh_modify once no every 1 delay 0 check yes

# Setup minimization style
min_style	     cg
min_modify	     dmax ${dmax} line quadratic
min_modify	     dmax 0.01 line quadratic

# Setup output
thermo		1
thermo_style custom step temp pe press pxx pyy pzz pxy pxz pyz lx ly lz vol
thermo_modify norm no

# Positive deformation

variable delta equal ${up}*${len0}
variable delta equal 1e-06*${len0}
variable delta equal 1e-06*9.81549785585311
variable deltaxy equal ${up}*xy
variable deltaxy equal 1e-06*xy
variable deltaxz equal ${up}*xz
variable deltaxz equal 1e-06*xz
variable deltayz equal ${up}*yz
variable deltayz equal 1e-06*yz
if "${dir} == 1" then    "change_box all x delta 0 ${delta} xy delta ${deltaxy} xz delta ${deltaxz} remap units box"
change_box all x delta 0 ${delta} xy delta ${deltaxy} xz delta ${deltaxz} remap units box
change_box all x delta 0 9.81549785585311e-06 xy delta ${deltaxy} xz delta ${deltaxz} remap units box
change_box all x delta 0 9.81549785585311e-06 xy delta 0 xz delta ${deltaxz} remap units box
change_box all x delta 0 9.81549785585311e-06 xy delta 0 xz delta 0 remap units box
Changing box ...
  triclinic box = (-0.90387446 -0.90387446 -0.90387446) to (8.9116332 13.819372 18.727121) with tilt (0 0 0)
  triclinic box = (-0.90387446 -0.90387446 -0.90387446) to (8.9116332 13.819372 18.727121) with tilt (0 0 0)
  triclinic box = (-0.90387446 -0.90387446 -0.90387446) to (8.9116332 13.819372 18.727121) with tilt (0 0 0)
if "${dir} == 2" then    "change_box all y delta 0 ${delta} yz delta ${deltayz} remap units box"
if "${dir} == 3" then    "change_box all z delta 0 ${delta} remap units box"
if "${dir} == 4" then    "change_box all yz delta ${delta} remap units box"
if "${dir} == 5" then    "change_box all xz delta ${delta} remap units box"
if "${dir} == 6" then    "change_box all xy delta ${delta} remap units box"

# Relax atoms positions

minimize ${etol} ${ftol} ${maxiter} ${maxeval}
minimize 0 ${ftol} ${maxiter} ${maxeval}
minimize 0 1e-10 ${maxiter} ${maxeval}
minimize 0 1e-10 100 ${maxeval}
minimize 0 1e-10 100 1000
Neighbor list info ...
  update: every = 1 steps, delay = 0 steps, check = yes
  max neighbors/atom: 2000, page size: 100000
  master list distance cutoff = 6
  ghost atom cutoff = 6
  2 neighbor lists, perpetual/occasional/extra = 2 0 0
  (1) pair meam, perpetual
      attributes: full, newton on
      pair build: full/nsq
      stencil: none
      bin: none
  (2) pair meam, perpetual, half/full from (1)
      attributes: half, newton on
      pair build: halffull/newton
      stencil: none
      bin: none
Per MPI rank memory allocation (min/avg/max) = 9.861 | 9.862 | 9.863 Mbytes
   Step          Temp          PotEng         Press           Pxx            Pyy            Pzz            Pxy            Pxz            Pyz             Lx             Ly             Lz           Volume    
         1   0             -892.75749     -0.8860176     -2.3312937     -0.163388      -0.16337109    -1.1859447e-06  1.3263122e-06 -2.972698e-07   9.8155077      14.723247      19.630996      2836.9958    
         2   0             -892.75749     -0.88603503    -2.3313157     -0.16339899    -0.16339042    -1.0971606e-06 -5.4596879e-08 -3.304487e-08   9.8155077      14.723247      19.630996      2836.9958    
         3   0             -892.75749     -0.88603876    -2.3313159     -0.16340315    -0.16339723    -2.7559802e-06 -4.2774436e-07 -2.8056259e-07  9.8155077      14.723247      19.630996      2836.9958    
         4   0             -892.75749     -0.88609163    -2.3313198     -0.16346033    -0.1634948     -2.9916388e-05 -4.8980161e-06 -3.0700215e-06  9.8155077      14.723247      19.630996      2836.9958    
         5   0             -892.75749     -0.88937165    -2.3315102     -0.16693979    -0.1696649     -0.0019004975  -0.00014572838 -0.0002960825   9.8155077      14.723247      19.630996      2836.9958    
         6   0             -892.75837     -5.416266      -2.5478714     -4.8684012     -8.8325255     -2.6772857     -0.15071255    -0.46982008     9.8155077      14.723247      19.630996      2836.9958    
         7   0             -892.76238     -26.133948     -3.502514      -26.376588     -48.522741     -14.948773     -0.83287784    -2.6218775      9.8155077      14.723247      19.630996      2836.9958    
         8   0             -892.7696      -63.560522     -5.1303796     -65.24244      -120.30875     -37.160457     -2.0600852     -6.5031478      9.8155077      14.723247      19.630996      2836.9958    
         9   0             -892.77995     -117.5737      -7.2708763     -121.35869     -224.09155     -69.298617     -3.8260088     -12.100328      9.8155077      14.723247      19.630996      2836.9958    
        10   0             -892.79338     -188.09463     -9.6935703     -194.6276      -359.96273     -111.41878     -6.1181092     -19.433384      9.8155077      14.723247      19.630996      2836.9958    
        11   0             -892.81012     -275.58389     -12.090131     -285.26968     -529.39187     -164.05582     -8.8907292     -28.716752      9.8155077      14.723247      19.630996      2836.9958    
        12   0             -892.83245     -384.18741     -14.047316     -395.80195     -742.71296     -230.8137      -11.898954     -41.375933      9.8155077      14.723247      19.630996      2836.9958    
        13   0             -892.87143     -531.17217     -15.133816     -533.64809     -1044.7346     -327.91274     -13.530431     -64.814878      9.8155077      14.723247      19.630996      2836.9958    
        14   0             -892.9311      -713.78565     -18.87342      -677.67012     -1444.8134     -462.23767     -10.194193     -107.32942      9.8155077      14.723247      19.630996      2836.9958    
        15   0             -893.00032     -931.95732     -37.96716      -823.72623     -1934.1786     -628.89193     -2.1127543     -167.63418      9.8155077      14.723247      19.630996      2836.9958    
        16   0             -893.07994     -1194.6581     -86.100899     -971.63146     -2526.242      -829.26209      10.697617     -248.88099      9.8155077      14.723247      19.630996      2836.9958    
        17   0             -893.17316     -1512.3743     -179.54613     -1115.0892     -3242.4878     -1067.7213      28.794037     -358.57004      9.8155077      14.723247      19.630996      2836.9958    
        18   0             -893.28192     -1893.4344     -340.96412     -1241.3792     -4097.96       -1344.7876      52.211671     -505.92038      9.8155077      14.723247      19.630996      2836.9958    
        19   0             -893.40608     -2340.7821     -599.76146     -1331.9332     -5090.6517     -1652.6688      79.659428     -700.41578      9.8155077      14.723247      19.630996      2836.9958    
        20   0             -893.54372     -2851.7284     -991.25912     -1366.1696     -6197.7565     -1974.0226      108.12517     -951.01102      9.8155077      14.723247      19.630996      2836.9958    
        21   0             -893.68825     -3404.4715     -1539.4296     -1328.5937     -7345.3911     -2275.4614      132.58542     -1257.053       9.8155077      14.723247      19.630996      2836.9958    
        22   0             -893.82979     -3959.7931     -2232.885      -1222.9611     -8423.5332     -2519.9954      148.52046     -1602.2049      9.8155077      14.723247      19.630996      2836.9958    
        23   0             -893.95667     -4466.8223     -3000.8785     -1077.3803     -9322.2081     -2685.8984      155.1905      -1950.9675      9.8155077      14.723247      19.630996      2836.9958    
        24   0             -894.07267     -4936.8683     -3828.7049     -909.90347     -10071.996     -2791.493       156.05331     -2301.8482      9.8155077      14.723247      19.630996      2836.9958    
        25   0             -894.18056     -5379.4588     -4707.4707     -731.44594     -10699.46      -2852.1464      154.27303     -2654.7527      9.8155077      14.723247      19.630996      2836.9958    
        26   0             -894.28227     -5802.1415     -5632.4923     -549.29677     -11224.635     -2879.6568      152.51005     -3010.014       9.8155077      14.723247      19.630996      2836.9958    
        27   0             -894.37929     -6211.2208     -6602.4186     -369.18736     -11662.056     -2882.9833      153.02083     -3367.7818      9.8155077      14.723247      19.630996      2836.9958    
        28   0             -894.4728      -6612.2036     -7618.6816     -196.74775     -12021.182     -2868.8519      157.76907     -3729.3571      9.8155077      14.723247      19.630996      2836.9958    
        29   0             -894.56388     -7010.3855     -8685.5476     -38.323951     -12307.285     -2843.133       168.71035     -4095.6442      9.8155077      14.723247      19.630996      2836.9958    
        30   0             -894.65371     -7411.5785     -9811.1947      98.46902      -12522.01      -2815.8033      188.17213     -4467.5052      9.8155077      14.723247      19.630996      2836.9958    
        31   0             -894.74378     -7823.2024     -11007.891      202.08303     -12663.799     -2786.4834      218.56565     -4845.2021      9.8155077      14.723247      19.630996      2836.9958    
        32   0             -894.83602     -8254.9031     -12294.094      255.90889     -12726.524     -2766.9692      263.54608     -5228.2237      9.8155077      14.723247      19.630996      2836.9958    
        33   0             -894.92238     -8666.3997     -13532.584      237.64924     -12704.264     -2771.001       320.97079     -5568.6501      9.8155077      14.723247      19.630996      2836.9958    
        34   0             -895.00425     -9061.0424     -14709.276      143.91039     -12617.761     -2793.2725      389.14198     -5856.5364      9.8155077      14.723247      19.630996      2836.9958    
        35   0             -895.0842      -9448.6175     -15831.447     -27.390955     -12487.015     -2831.8855      466.7257      -6090.533       9.8155077      14.723247      19.630996      2836.9958    
        36   0             -895.16415     -9836.1327     -16900.206     -275.80289     -12332.389     -2887.4215      552.19426     -6266.0465      9.8155077      14.723247      19.630996      2836.9958    
        37   0             -895.24642     -10232.108     -17922.34      -599.30046     -12174.682     -2965.7335      644.63425     -6376.3643      9.8155077      14.723247      19.630996      2836.9958    
        38   0             -895.33437     -10648.794     -18912.865     -998.01534     -12035.502     -3070.703       744.48406     -6411.0306      9.8155077      14.723247      19.630996      2836.9958    
        39   0             -895.43272     -11101.565     -19890.48      -1473.7001     -11940.515     -3217.6186      852.48799     -6351.7218      9.8155077      14.723247      19.630996      2836.9958    
        40   0             -895.52704     -11516.078     -20699.395     -1924.6596     -11924.18      -3370.2906      949.37099     -6203.8747      9.8155077      14.723247      19.630996      2836.9958    
        41   0             -895.61716     -11884.624     -21363.06      -2318.5982     -11972.213     -3509.2643      1036.8382     -5997.5044      9.8155077      14.723247      19.630996      2836.9958    
        42   0             -895.70471     -12208.752     -21919.553     -2644.3106     -12062.393     -3593.1722      1121.8334     -5756.3131      9.8155077      14.723247      19.630996      2836.9958    
        43   0             -895.79402     -12500.395     -22406.63      -2915.4068     -12179.147     -3666.3905      1204.8717     -5495.5705      9.8155077      14.723247      19.630996      2836.9958    
        44   0             -895.88793     -12767.101     -22845.239     -3141.0472     -12315.016     -3735.0976      1287.707      -5224.0159      9.8155077      14.723247      19.630996      2836.9958    
        45   0             -895.98884     -13014.042     -23247.072     -3328.7084     -12466.345     -3804.407       1371.0843     -4948.3753      9.8155077      14.723247      19.630996      2836.9958    
        46   0             -896.09885     -13244.748     -23618.045     -3484.3412     -12631.857     -3879.4687      1455.0211     -4673.823       9.8155077      14.723247      19.630996      2836.9958    
        47   0             -896.21977     -13461.507     -23960.072     -3612.6991     -12811.75      -3966.2985      1538.9321     -4403.3894      9.8155077      14.723247      19.630996      2836.9958    
        48   0             -896.3532      -13665.624     -24272.113     -3717.451      -13007.309     -4071.4756      1621.7315     -4139.021       9.8155077      14.723247      19.630996      2836.9958    
        49   0             -896.50047     -13857.578     -24550.752     -3801.1618     -13220.82      -4202.0679      1701.7861     -3882.4861      9.8155077      14.723247      19.630996      2836.9958    
        50   0             -896.66273     -14037.108     -24790.508     -3865.371      -13455.446     -4364.2916      1777.1351     -3634.793       9.8155077      14.723247      19.630996      2836.9958    
        51   0             -896.84091     -14203.237     -24983.813     -3910.4971     -13715.4       -4563.2121      1845.4773     -3396.5732      9.8155077      14.723247      19.630996      2836.9958    
        52   0             -897.03574     -14354.203     -25120.569     -3935.8789     -14006.163     -4803.9894      1903.9955     -3168.0729      9.8155077      14.723247      19.630996      2836.9958    
        53   0             -897.24149     -14484.024     -25186.625     -3940.2715     -14325.174     -5083.7573      1948.1201     -2954.2203      9.8155077      14.723247      19.630996      2836.9958    
        54   0             -897.44581     -14586.615     -25175.104     -3925.3393     -14659.401     -5386.8289      1974.0276     -2761.5232      9.8155077      14.723247      19.630996      2836.9958    
        55   0             -897.64459     -14663.922     -25089.41      -3894.6663     -15007.69      -5703.6836      1981.031      -2588.6972      9.8155077      14.723247      19.630996      2836.9958    
        56   0             -897.8325      -14719.199     -24938.278     -3853.9548     -15365.363     -6015.0772      1970          -2434.056       9.8155077      14.723247      19.630996      2836.9958    
        57   0             -898.00701     -14758.734     -24734.713     -3811.206      -15730.284     -6297.1488      1943.4932     -2292.091       9.8155077      14.723247      19.630996      2836.9958    
        58   0             -898.1673      -14791.068     -24495.346     -3777.0992     -16100.76      -6521.9838      1903.551      -2156.056       9.8155077      14.723247      19.630996      2836.9958    
        59   0             -898.31297     -14826.626     -24242.005     -3764.9248     -16472.949     -6660.8309      1852.5578     -2023.3351      9.8155077      14.723247      19.630996      2836.9958    
        60   0             -898.44666     -14877.206     -23995.566     -3788.8706     -16847.18      -6694.4798      1792.6327     -1892.2753      9.8155077      14.723247      19.630996      2836.9958    
        61   0             -898.57314     -14955.293     -23773.031     -3866.986      -17225.862     -6643.5383      1724.4594     -1740.4064      9.8155077      14.723247      19.630996      2836.9958    
        62   0             -898.6997      -15075.156     -23586.548     -4018.4419     -17620.477     -6541.5223      1637.1085     -1568.6253      9.8155077      14.723247      19.630996      2836.9958    
        63   0             -898.83797     -15254.695     -23445.308     -4265.4209     -18053.356     -6449.3017      1511.6842     -1403.2059      9.8155077      14.723247      19.630996      2836.9958    
        64   0             -899.00849     -15515.314     -23361.198     -4626.5536     -18558.189     -6363.3158      1355.7897     -1262.0533      9.8155077      14.723247      19.630996      2836.9958    
        65   0             -899.15869     -15749.673     -23345.317     -4938.0345     -18965.669     -6367.8331      1233.8612     -1267.3934      9.8155077      14.723247      19.630996      2836.9958    
        66   0             -899.30126     -15952.134     -23348.664     -5188.7699     -19318.968     -6448.5337      1126.9666     -1398.9658      9.8155077      14.723247      19.630996      2836.9958    
        67   0             -899.44423     -16128.339     -23353.684     -5389.9479     -19641.385     -6598.347       1027.9017     -1577.9633      9.8155077      14.723247      19.630996      2836.9958    
        68   0             -899.59096     -16283.359     -23355.386     -5549.0614     -19945.629     -6805.5138      933.94864     -1799.1992      9.8155077      14.723247      19.630996      2836.9958    
        69   0             -899.7431      -16420.706     -23350.06      -5671.5069     -20240.551     -7060.3195      837.04542     -2058.2244      9.8155077      14.723247      19.630996      2836.9958    
        70   0             -899.90143     -16542.665     -23332.719     -5761.4639     -20533.811     -7353.4613      718.53348     -2347.9746      9.8155077      14.723247      19.630996      2836.9958    
        71   0             -900.06618     -16650.713     -23301.376     -5821.1555     -20829.608     -7677.5455      579.30227     -2664.5639      9.8155077      14.723247      19.630996      2836.9958    
        72   0             -900.23718     -16745.67      -23256.206     -5851.4405     -21129.365     -8025.6152      445.22283     -3007.4241      9.8155077      14.723247      19.630996      2836.9958    
        73   0             -900.41394     -16827.995     -23196.319     -5853.7066     -21433.96      -8390.359       308.28082     -3374.3266      9.8155077      14.723247      19.630996      2836.9958    
        74   0             -900.59579     -16898.063     -23118.586     -5829.3447     -21746.259     -8762.2565      166.86807     -3762.368       9.8155077      14.723247      19.630996      2836.9958    
        75   0             -900.78203     -16956.269     -23022.683     -5779.4095     -22066.716     -9134.6611      7.4915448     -4174.4693      9.8155077      14.723247      19.630996      2836.9958    
        76   0             -900.97192     -17003.227     -22908.79      -5705.2718     -22395.618     -9498.8032     -162.46921     -4609.2903      9.8155077      14.723247      19.630996      2836.9958    
        77   0             -901.16477     -17039.721     -22775.045     -5609.358      -22734.761     -9842.8092     -340.25994     -5058.2894      9.8155077      14.723247      19.630996      2836.9958    
        78   0             -901.36009     -17066.946     -22621.559     -5494.3168     -23084.964     -10155.493     -543.72549     -5524.7169      9.8155077      14.723247      19.630996      2836.9958    
        79   0             -901.55709     -17086.402     -22449.034     -5363.3541     -23446.819     -10423.678     -778.52333     -6001.6729      9.8155077      14.723247      19.630996      2836.9958    
        80   0             -901.75086     -17100.03      -22264.581     -5224.4204     -23811.088     -10638.144     -1037.7417     -6469.4155      9.8155077      14.723247      19.630996      2836.9958    
        81   0             -901.94205     -17110.702     -22071.297     -5082.5683     -24178.24      -10796.887     -1322.1038     -6922.7241      9.8155077      14.723247      19.630996      2836.9958    
        82   0             -902.13173     -17121.328     -21871.614     -4942.5944     -24549.775     -10891.267     -1636.1923     -7356.6015      9.8155077      14.723247      19.630996      2836.9958    
        83   0             -902.32144     -17134.899     -21667.662     -4809.5622     -24927.473     -10924.397     -1984.2006     -7766.0401      9.8155077      14.723247      19.630996      2836.9958    
        84   0             -902.51318     -17154.588     -21461.623     -4688.2428     -25313.9       -10902.76      -2372.0476     -8148.2942      9.8155077      14.723247      19.630996      2836.9958    
        85   0             -902.70927     -17183.644     -21255.126     -4583.9804     -25711.825     -10829.688     -2805.9563     -8495.4677      9.8155077      14.723247      19.630996      2836.9958    
        86   0             -902.91313     -17225.664     -21048.49      -4502.9554     -26125.547     -10704.904     -3293.2531     -8803.2506      9.8155077      14.723247      19.630996      2836.9958    
        87   0             -903.12932     -17284.637     -20841.401     -4452.1839     -26560.326     -10531.279     -3841.1755     -9063.3136      9.8155077      14.723247      19.630996      2836.9958    
        88   0             -903.36387     -17364.963     -20632.298     -4439.8182     -27022.771     -10310.977     -4460.3247     -9268.4145      9.8155077      14.723247      19.630996      2836.9958    
        89   0             -903.62295     -17471.055     -20419.9       -4475.7234     -27517.541     -10045.517     -5157.1448     -9427.203       9.8155077      14.723247      19.630996      2836.9958    
        90   0             -903.87346     -17588.594     -20231.879     -4557.7039     -27976.199     -9784.8094     -5830.5522     -9514.1473      9.8155077      14.723247      19.630996      2836.9958    
        91   0             -904.1203      -17713.722     -20059.368     -4674.9291     -28406.87      -9534.9011     -6484.7127     -9556.2984      9.8155077      14.723247      19.630996      2836.9958    
        92   0             -904.36705     -17843.488     -19895.394     -4820.1147     -28814.954     -9296.4859     -7122.0584     -9586.9862      9.8155077      14.723247      19.630996      2836.9958    
        93   0             -904.61654     -17975.801     -19734.427     -4988.1856     -29204.79      -9072.2566     -7737.6232     -9602.6926      9.8155077      14.723247      19.630996      2836.9958    
        94   0             -904.87114     -18109.177     -19571.969     -5175.5089     -29580.054     -8864.2906     -8342.7319     -9603.9723      9.8155077      14.723247      19.630996      2836.9958    
        95   0             -905.13298     -18242.536     -19404.157     -5378.7997     -29944.65      -8673.1195     -8947.7208     -9599.0583      9.8155077      14.723247      19.630996      2836.9958    
        96   0             -905.40422     -18375.103     -19227.487     -5595.9527     -30301.869     -8498.6762     -9557.1413     -9586.9294      9.8155077      14.723247      19.630996      2836.9958    
        97   0             -905.68722     -18506.325     -19038.507     -5824.6247     -30655.842     -8338.6622     -10160.973     -9569.7834      9.8155077      14.723247      19.630996      2836.9958    
        98   0             -905.98481     -18635.764     -18833.689     -6062.7465     -31010.857     -8194.405      -10768.307     -9551.1347      9.8155077      14.723247      19.630996      2836.9958    
        99   0             -906.30019     -18762.829     -18609.004     -6308.4299     -31371.054     -8067.1106     -11381.141     -9533.5381      9.8155077      14.723247      19.630996      2836.9958    
       100   0             -906.63373     -18885.458     -18365.35      -6554.1163     -31736.908     -7976.3282     -11989.319     -9517.1419      9.8155077      14.723247      19.630996      2836.9958    
       101   0             -906.98811     -19002.141     -18098.69      -6797.2262     -32110.506     -7915.412      -12583.217     -9505.0592      9.8155077      14.723247      19.630996      2836.9958    
Loop time of 0.0286318 on 4 procs for 100 steps with 192 atoms

54.6% CPU use with 4 MPI tasks x 1 OpenMP threads

Minimization stats:
  Stopping criterion = max iterations
  Energy initial, next-to-last, final = 
     -892.757488017505   -906.63373463105  -906.988109825246
  Force two-norm initial, final = 0.00040211434 6.2037764
  Force max component initial, final = 5.0827658e-05 1.0425435
  Final line search alpha, max atom move = 0.0092792345 0.0096740056
  Iterations, force evaluations = 100 102

MPI task timing breakdown:
Section |  min time  |  avg time  |  max time  |%varavg| %total
---------------------------------------------------------------
Pair    | 0.023606   | 0.023784   | 0.0239     |   0.1 | 83.07
Neigh   | 7.8e-05    | 8.35e-05   | 8.8e-05    |   0.0 |  0.29
Comm    | 0.00215    | 0.0023072  | 0.002551   |   0.3 |  8.06
Output  | 0.001311   | 0.001365   | 0.001453   |   0.2 |  4.77
Modify  | 0          | 0          | 0          |   0.0 |  0.00
Other   |            | 0.001092   |            |       |  3.81

Nlocal:             48 ave          50 max          46 min
Histogram: 2 0 0 0 0 0 0 0 0 2
Nghost:            600 ave         602 max         598 min
Histogram: 2 0 0 0 0 0 0 0 0 2
Neighs:        1605.75 ave        1749 max        1499 min
Histogram: 2 0 0 0 0 0 0 1 0 1
FullNghs:       3211.5 ave        3380 max        3048 min
Histogram: 1 0 1 0 0 0 0 1 0 1

Total # of neighbors = 12846
Ave neighs/atom = 66.90625
Neighbor list builds = 1
Dangerous builds = 0

# Obtain new stress tensor

variable tmp equal pe
variable e1 equal ${tmp}
variable e1 equal -906.988109825246
variable tmp equal press
variable p1 equal ${tmp}
variable p1 equal -19002.1406352482
variable tmp equal pxx
variable pxx1 equal ${tmp}
variable pxx1 equal -18098.6897555569
variable tmp equal pyy
variable pyy1 equal ${tmp}
variable pyy1 equal -6797.22615950475
variable tmp equal pzz
variable pzz1 equal ${tmp}
variable pzz1 equal -32110.505990683
variable tmp equal pxy
variable pxy1 equal ${tmp}
variable pxy1 equal -7915.41200115339
variable tmp equal pxz
variable pxz1 equal ${tmp}
variable pxz1 equal -12583.2171837867
variable tmp equal pyz
variable pyz1 equal ${tmp}
variable pyz1 equal -9505.05919392087

# Compute elastic constant from pressure tensor

variable C1pos equal ${d1}
variable C1pos equal 1809868.97555569
variable C2pos equal ${d2}
variable C2pos equal 679722.615950482
variable C3pos equal ${d3}
variable C3pos equal 3211050.5990683
variable C4pos equal ${d4}
variable C4pos equal 950505.919392087
variable C5pos equal ${d5}
variable C5pos equal 1258321.71837867
variable C6pos equal ${d6}
variable C6pos equal 791541.200115339

# Combine positive and negative

variable C1${dir} equal 0.5*(${C1neg}+${C1pos})
variable C11 equal 0.5*(${C1neg}+${C1pos})
variable C11 equal 0.5*(-1809810.80164055+${C1pos})
variable C11 equal 0.5*(-1809810.80164055+1809868.97555569)
variable C2${dir} equal 0.5*(${C2neg}+${C2pos})
variable C21 equal 0.5*(${C2neg}+${C2pos})
variable C21 equal 0.5*(-679182.827070018+${C2pos})
variable C21 equal 0.5*(-679182.827070018+679722.615950482)
variable C3${dir} equal 0.5*(${C3neg}+${C3pos})
variable C31 equal 0.5*(${C3neg}+${C3pos})
variable C31 equal 0.5*(-3210824.66530186+${C3pos})
variable C31 equal 0.5*(-3210824.66530186+3211050.5990683)
variable C4${dir} equal 0.5*(${C4neg}+${C4pos})
variable C41 equal 0.5*(${C4neg}+${C4pos})
variable C41 equal 0.5*(-950163.272983588+${C4pos})
variable C41 equal 0.5*(-950163.272983588+950505.919392087)
variable C5${dir} equal 0.5*(${C5neg}+${C5pos})
variable C51 equal 0.5*(${C5neg}+${C5pos})
variable C51 equal 0.5*(-1258405.0453387+${C5pos})
variable C51 equal 0.5*(-1258405.0453387+1258321.71837867)
variable C6${dir} equal 0.5*(${C6neg}+${C6pos})
variable C61 equal 0.5*(${C6neg}+${C6pos})
variable C61 equal 0.5*(-792223.882002944+${C6pos})
variable C61 equal 0.5*(-792223.882002944+791541.200115339)

# Delete dir to make sure it is not reused

variable dir delete

# uyy Perturbation

variable dir equal 2
include displace.mod
# NOTE: This script should not need to be
# modified. See in.elastic for more info.
#
# Find which reference length to use

if "${dir} == 1" then    "variable len0 equal ${lx0}"
if "${dir} == 2" then    "variable len0 equal ${ly0}"
variable len0 equal ${ly0}
variable len0 equal 14.7232467837797
if "${dir} == 3" then    "variable len0 equal ${lz0}"
if "${dir} == 4" then    "variable len0 equal ${lz0}"
if "${dir} == 5" then    "variable len0 equal ${lz0}"
if "${dir} == 6" then    "variable len0 equal ${ly0}"

# Reset box and simulation parameters

clear
  using 1 OpenMP thread(s) per MPI task
Loaded 1 plugins from C:\Program Files\LAMMPS 64-bit 23Jun2022\plugins
Loaded 0 plugins from C:\Program Files\LAMMPS 64-bit 23Jun2022-MPI\plugins
Loaded 1 plugins from C:\Program Files\LAMMPS 64-bit 22Dec2022-MSMPI\plugins
Loaded 1 plugins from C:\Program Files\LAMMPS 64-bit 28Mar2023-MPI\plugins
box tilt large

The 'box' command has been removed and will be ignored

read_restart restart.equil
Reading restart file ...
  restart file = 22 Dec 2022, LAMMPS = 22 Dec 2022
  restoring atom style atomic from restart
  triclinic box = (-0.90387446 -0.90387446 -0.90387446) to (8.9116234 13.819372 18.727121) with tilt (0 0 0)
  1 by 2 by 2 MPI processor grid
  pair style meam stores no restart info
  192 atoms
  read_restart CPU = 0.000 seconds
include potential.mod
# NOTE: This script can be modified for different pair styles
# See in.elastic for more info.

# Choose potential
#-----------------------
#pair_style	sw
#pair_coeff * * Si.sw Si
#-----------------------
#pair_style morse	2.83994742	# D0[eV] a[1/A] r0[A] rc[A], 1NN for BCC
#pair_coeff 1 1	2.1173	1.0202	2.4595	2.6497	#	Fe-Fe
#-----------------------
#pair_style smatb # R0(A)   p       q     A(eV)   xi(eV)  Rcs(A)   Rc(A), 4NN: Rcs=4NN, Rc=(4NN+5NN)/2
#pair_coeff 1 1	2.4802	7.0149	2.3779	0.3144	3.0551	4.033	4.176	#	Co	Co
#-----------------------
#pair_style eam/alloy
#pair_coeff * * AlCrFeCoNi_Zhou04.eam.alloy Fe
#-----------------------
pair_style meam
pair_coeff * * ./../../library.meam Ti V N ./../../TiVN.meam Ti V
#-----------------------

# Setup neighbor style
neighbor 1.0 nsq
neigh_modify once no every 1 delay 0 check yes

# Setup minimization style
min_style	     cg
min_modify	     dmax ${dmax} line quadratic
min_modify	     dmax 0.01 line quadratic

# Setup output
thermo		1
thermo_style custom step temp pe press pxx pyy pzz pxy pxz pyz lx ly lz vol
thermo_modify norm no

# Negative deformation

variable delta equal -${up}*${len0}
variable delta equal -1e-06*${len0}
variable delta equal -1e-06*14.7232467837797
variable deltaxy equal -${up}*xy
variable deltaxy equal -1e-06*xy
variable deltaxz equal -${up}*xz
variable deltaxz equal -1e-06*xz
variable deltayz equal -${up}*yz
variable deltayz equal -1e-06*yz
if "${dir} == 1" then    "change_box all x delta 0 ${delta} xy delta ${deltaxy} xz delta ${deltaxz} remap units box"
if "${dir} == 2" then    "change_box all y delta 0 ${delta} yz delta ${deltayz} remap units box"
change_box all y delta 0 ${delta} yz delta ${deltayz} remap units box
change_box all y delta 0 -1.47232467837797e-05 yz delta ${deltayz} remap units box
change_box all y delta 0 -1.47232467837797e-05 yz delta -0 remap units box
Changing box ...
  triclinic box = (-0.90387446 -0.90387446 -0.90387446) to (8.9116234 13.819358 18.727121) with tilt (0 0 0)
  triclinic box = (-0.90387446 -0.90387446 -0.90387446) to (8.9116234 13.819358 18.727121) with tilt (0 0 0)
if "${dir} == 3" then    "change_box all z delta 0 ${delta} remap units box"
if "${dir} == 4" then    "change_box all yz delta ${delta} remap units box"
if "${dir} == 5" then    "change_box all xz delta ${delta} remap units box"
if "${dir} == 6" then    "change_box all xy delta ${delta} remap units box"

# Relax atoms positions

minimize ${etol} ${ftol} ${maxiter} ${maxeval}
minimize 0 ${ftol} ${maxiter} ${maxeval}
minimize 0 1e-10 ${maxiter} ${maxeval}
minimize 0 1e-10 100 ${maxeval}
minimize 0 1e-10 100 1000
Neighbor list info ...
  update: every = 1 steps, delay = 0 steps, check = yes
  max neighbors/atom: 2000, page size: 100000
  master list distance cutoff = 6
  ghost atom cutoff = 6
  2 neighbor lists, perpetual/occasional/extra = 2 0 0
  (1) pair meam, perpetual
      attributes: full, newton on
      pair build: full/nsq
      stencil: none
      bin: none
  (2) pair meam, perpetual, half/full from (1)
      attributes: half, newton on
      pair build: halffull/newton
      stencil: none
      bin: none
Per MPI rank memory allocation (min/avg/max) = 9.861 | 9.862 | 9.863 Mbytes
   Step          Temp          PotEng         Press           Pxx            Pyy            Pzz            Pxy            Pxz            Pyz             Lx             Ly             Lz           Volume    
         1   0             -892.75749      0.88603453     0.16339339     2.3313175      0.16339266    -1.1859427e-06  1.3263183e-06 -2.9726624e-07  9.8154979      14.723232      19.630996      2836.9901    
         2   0             -892.75749      0.8860171      0.16337142     2.3313065      0.16337332    -1.0971616e-06 -5.459626e-08  -3.3057032e-08  9.8154979      14.723232      19.630996      2836.9901    
         3   0             -892.75749      0.88601336     0.16337117     2.3313024      0.16336652    -2.75598e-06   -4.2775145e-07 -2.8058436e-07  9.8154979      14.723232      19.630996      2836.9901    
         4   0             -892.75749      0.88596049     0.16336733     2.3312452      0.16326895    -2.9916727e-05 -4.8981923e-06 -3.0703089e-06  9.8154979      14.723232      19.630996      2836.9901    
         5   0             -892.75749      0.88268027     0.16317644     2.3277655      0.15709889    -0.0019005376  -0.00014573473 -0.00029611179  9.8154979      14.723232      19.630996      2836.9901    
         6   0             -892.75837     -3.6445589     -0.053696685   -2.3741232     -8.5058567     -2.6773912     -0.15072166    -0.46987457     9.8154979      14.723232      19.630996      2836.9901    
         7   0             -892.76238     -24.362905     -1.0106463     -23.883319     -48.194749     -14.948819     -0.83289771    -2.6220864      9.8154979      14.723232      19.630996      2836.9901    
         8   0             -892.7696      -61.790368     -2.6426721     -62.750675     -119.97776     -37.160209     -2.0601137     -6.5036035      9.8154979      14.723232      19.630996      2836.9901    
         9   0             -892.77995     -115.80467     -4.7891837     -118.86892     -223.75589     -69.297843     -3.8260435     -12.101123      9.8154979      14.723232      19.630996      2836.9901    
        10   0             -892.79338     -186.32695     -7.2197582     -192.14035     -359.62074     -111.41725     -6.1181476     -19.434615      9.8154979      14.723232      19.630996      2836.9901    
        11   0             -892.81012     -273.81784     -9.6261372     -282.78552     -529.04187     -164.05331     -8.8907663     -28.718534      9.8154979      14.723232      19.630996      2836.9901    
        12   0             -892.83245     -382.42352     -11.595524     -393.32179     -742.35324     -230.81008     -11.898968     -41.378517      9.8154979      14.723232      19.630996      2836.9901    
        13   0             -892.87143     -529.41188     -12.698328     -531.17427     -1044.363      -327.90815     -13.530305     -64.819154      9.8154979      14.723232      19.630996      2836.9901    
        14   0             -892.9311      -712.02795     -16.457929     -675.2043      -1444.4216     -462.23021     -10.19374      -107.33614      9.8154979      14.723232      19.630996      2836.9901    
        15   0             -893.00032     -930.20453     -35.575537     -821.27343     -1933.7646     -628.88196     -2.1116449     -167.64492      9.8154979      14.723232      19.630996      2836.9901    
        16   0             -893.07994     -1192.912      -83.738018     -969.19681     -2525.8013     -829.24953      10.699861     -248.89764      9.8154979      14.723232      19.630996      2836.9901    
        17   0             -893.17317     -1510.6375     -177.21859     -1112.6796     -3242.0144     -1067.7063      28.798065     -358.59533      9.8154979      14.723232      19.630996      2836.9901    
        18   0             -893.28193     -1891.7105     -338.68076     -1239.0038     -4097.447      -1344.7704      52.218306     -505.95822      9.8154979      14.723232      19.630996      2836.9901    
        19   0             -893.40609     -2339.0717     -597.53127     -1329.6027     -5090.081      -1652.6472      79.669326     -700.46955      9.8154979      14.723232      19.630996      2836.9901    
        20   0             -893.54373     -2850.0372     -989.09542     -1363.8986     -6197.1178     -1973.9977      108.13923     -951.08705      9.8154979      14.723232      19.630996      2836.9901    
        21   0             -893.68827     -3402.8032     -1537.3449     -1326.3964     -7344.6685     -2275.4328      132.60413     -1257.1568      9.8154979      14.723232      19.630996      2836.9901    
        22   0             -893.82981     -3958.1372     -2230.8714     -1220.8519     -8422.6884     -2519.9576      148.54358     -1602.3323      9.8154979      14.723232      19.630996      2836.9901    
        23   0             -893.95669     -4465.1806     -2998.9335     -1075.3632     -9321.2451     -2685.8552      155.21816     -1951.1189      9.8154979      14.723232      19.630996      2836.9901    
        24   0             -894.0727      -4935.2421     -3826.8271     -907.98186     -10070.917     -2791.4471      156.0857      -2302.0236      9.8154979      14.723232      19.630996      2836.9901    
        25   0             -894.18059     -5377.8491     -4705.6593     -729.62273     -10698.265     -2852.0998      154.31041     -2654.9519      9.8154979      14.723232      19.630996      2836.9901    
        26   0             -894.28231     -5800.5489     -5630.7473     -547.57545     -11223.324     -2879.6108      152.55287     -3010.2353      9.8154979      14.723232      19.630996      2836.9901    
[...]
        63   0             -898.83786     -15253.461     -23444.881     -4263.929      -18051.572     -6449.5026      1511.6544     -1403.7122      9.8154979      14.723247      19.630996      2836.9929    
        64   0             -899.00837     -15514.105     -23360.819     -4625.1785     -18556.318     -6363.4418      1355.7679     -1262.3275      9.8154979      14.723247      19.630996      2836.9929    
        65   0             -899.15858     -15748.542     -23344.977     -4936.839      -18963.809     -6367.9122      1233.8037     -1267.328       9.8154979      14.723247      19.630996      2836.9929    
        66   0             -899.30116     -15951.058     -23348.373     -5187.7029     -19317.098     -6448.5844      1126.9144     -1398.754       9.8154979      14.723247      19.630996      2836.9929    
        67   0             -899.44413     -16127.304     -23353.431     -5388.9793     -19639.502     -6598.3902      1027.842      -1577.6245      9.8154979      14.723247      19.630996      2836.9929    
        68   0             -899.59086     -16282.355     -23355.165     -5548.17       -19943.73      -6805.5653      933.8887      -1798.7476      9.8154979      14.723247      19.630996      2836.9929    
        69   0             -899.743       -16419.726     -23349.865     -5670.6775     -20238.635     -7060.3906      836.99206     -2057.6722      9.8154979      14.723247      19.630996      2836.9929    
        70   0             -899.90132     -16541.703     -23332.548     -5760.6842     -20531.876     -7353.5604      718.4984      -2347.3344      9.8154979      14.723247      19.630996      2836.9929    
        71   0             -900.06608     -16649.766     -23301.224     -5820.4171     -20827.658     -7677.6766      579.27416     -2663.8425      9.8154979      14.723247      19.630996      2836.9929    
        72   0             -900.23707     -16744.735     -23256.07      -5850.7361     -21127.4       -8025.7815      445.2014      -3006.6307      9.8154979      14.723247      19.630996      2836.9929    
        73   0             -900.41383     -16827.07      -23196.199     -5853.0295     -21431.981     -8390.5627      308.26625     -3373.4661      9.8154979      14.723247      19.630996      2836.9929    
        74   0             -900.59567     -16897.145     -23118.479     -5828.6894     -21744.267     -8762.4979      166.8584      -3761.4456      9.8154979      14.723247      19.630996      2836.9929    
        75   0             -900.78191     -16955.358     -23022.592     -5778.7714     -22064.71      -9134.9523      7.4858874     -4173.4161      9.8154979      14.723247      19.630996      2836.9929    
        76   0             -900.97179     -17002.32      -22908.716     -5704.646      -22393.598     -9499.1315     -162.47296     -4608.1809      9.8154979      14.723247      19.630996      2836.9929    
        77   0             -901.16463     -17038.819     -22774.991     -5608.7406     -22732.726     -9843.1738     -340.25317     -5057.128       9.8154979      14.723247      19.630996      2836.9929    
        78   0             -901.35994     -17066.048     -22621.527     -5493.7051     -23082.913     -10155.892     -543.70728     -5523.4372      9.8154979      14.723247      19.630996      2836.9929    
        79   0             -901.55693     -17085.508     -22449.024     -5362.7393     -23444.761     -10424.11      -778.49115     -6000.3567      9.8154979      14.723247      19.630996      2836.9929    
        80   0             -901.7507      -17099.139     -22264.593     -5223.798      -23809.026     -10638.616     -1037.7075     -6468.0715      9.8154979      14.723247      19.630996      2836.9929    
        81   0             -901.94188     -17109.813     -22071.332     -5081.9348     -24176.172     -10797.399     -1322.0685     -6921.3655      9.8154979      14.723247      19.630996      2836.9929    
        82   0             -902.13154     -17120.44      -21871.677     -4941.9424     -24547.699     -10891.759     -1636.1478     -7355.2222      9.8154979      14.723247      19.630996      2836.9929    
        83   0             -902.32125     -17134.011     -21667.753     -4808.889      -24925.391     -10924.922     -1984.1589     -7764.6562      9.8154979      14.723247      19.630996      2836.9929    
        84   0             -902.51298     -17153.699     -21461.743     -4687.5425     -25311.811     -10903.327     -2372.0084     -8146.859       9.8154979      14.723247      19.630996      2836.9929    
        85   0             -902.70905     -17182.752     -21255.278     -4583.2448     -25709.733     -10830.294     -2805.9257     -8494.0356      9.8154979      14.723247      19.630996      2836.9929    
        86   0             -902.9129      -17224.768     -21048.674     -4502.1766     -26123.454     -10705.561     -3293.2429     -8801.7808      9.8154979      14.723247      19.630996      2836.9929    
        87   0             -903.12906     -17283.735     -20841.619     -4451.349      -26558.237     -10531.988     -3841.1994     -9061.8626      9.8154979      14.723247      19.630996      2836.9929    
        88   0             -903.36359     -17364.053     -20632.551     -4438.915      -27020.692     -10311.758     -4460.3817     -9266.9153      9.8154979      14.723247      19.630996      2836.9929    
        89   0             -903.62265     -17470.134     -20420.18      -4474.7324     -27515.49      -10046.378     -5157.272      -9425.6994      9.8154979      14.723247      19.630996      2836.9929    
        90   0             -903.87312     -17587.662     -20232.181     -4556.6217     -27974.182     -9785.7521     -5830.7514     -9512.6071      9.8154979      14.723247      19.630996      2836.9929    
        91   0             -904.11993     -17712.776     -20059.683     -4673.7497     -28404.896     -9535.9384     -6484.9797     -9554.6678      9.8154979      14.723247      19.630996      2836.9929    
        92   0             -904.36664     -17842.527     -19895.72      -4818.836      -28813.024     -9297.6236     -7122.3774     -9585.223       9.8154979      14.723247      19.630996      2836.9929    
        93   0             -904.6161      -17974.821     -19734.755     -4986.792      -29202.917     -9073.4746     -7737.9877     -9600.9428      9.8154979      14.723247      19.630996      2836.9929    
        94   0             -904.87067     -18108.175     -19572.289     -5173.996      -29578.239     -8865.6127     -8343.1176     -9602.155       9.8154979      14.723247      19.630996      2836.9929    
        95   0             -905.13247     -18241.505     -19404.462     -5377.1543     -29942.899     -8674.5376     -8948.1157     -9597.2426      9.8154979      14.723247      19.630996      2836.9929    
        96   0             -905.40367     -18374.039     -19227.769     -5594.1636     -30300.183     -8500.2143     -9557.5682     -9585.115       9.8154979      14.723247      19.630996      2836.9929    
        97   0             -905.68663     -18505.218     -19038.754     -5822.6795     -30654.22      -8340.338      -10161.424     -9567.9676      9.8154979      14.723247      19.630996      2836.9929    
        98   0             -905.98416     -18634.605     -18833.888     -6060.6303     -31009.297     -8196.2356     -10768.768     -9549.3138      9.8154979      14.723247      19.630996      2836.9929    
        99   0             -906.29949     -18761.608     -18609.141     -6306.1265     -31369.556     -8069.1164     -11381.602     -9531.7059      9.8154979      14.723247      19.630996      2836.9929    
       100   0             -906.63294     -18884.161     -18365.428     -6551.5911     -31735.463     -7978.5868     -11989.769     -9515.2902      9.8154979      14.723247      19.630996      2836.9929    
       101   0             -906.98722     -19000.758     -18098.689     -6794.4732     -32109.113     -7917.8798     -12583.68      -9503.1913      9.8154979      14.723247      19.630996      2836.9929    
Loop time of 0.027449 on 4 procs for 100 steps with 192 atoms

56.9% CPU use with 4 MPI tasks x 1 OpenMP threads

Minimization stats:
  Stopping criterion = max iterations
  Energy initial, next-to-last, final = 
      -892.75748801922  -906.632944754282  -906.987221000411
  Force two-norm initial, final = 0.00040211543 6.2033187
  Force max component initial, final = 5.0828083e-05 1.0425181
  Final line search alpha, max atom move = 0.0092778821 0.0096723602
  Iterations, force evaluations = 100 102

MPI task timing breakdown:
Section |  min time  |  avg time  |  max time  |%varavg| %total
---------------------------------------------------------------
Pair    | 0.02315    | 0.023292   | 0.023447   |   0.1 | 84.86
Neigh   | 7.4e-05    | 7.9e-05    | 8.4e-05    |   0.0 |  0.29
Comm    | 0.001936   | 0.0021172  | 0.002227   |   0.2 |  7.71
Output  | 0.000995   | 0.0010527  | 0.001214   |   0.3 |  3.84
Modify  | 0          | 0          | 0          |   0.0 |  0.00
Other   |            | 0.000908   |            |       |  3.31

Nlocal:             48 ave          50 max          46 min
Histogram: 2 0 0 0 0 0 0 0 0 2
Nghost:            600 ave         602 max         598 min
Histogram: 2 0 0 0 0 0 0 0 0 2
Neighs:        1605.75 ave        1749 max        1499 min
Histogram: 2 0 0 0 0 0 0 1 0 1
FullNghs:       3211.5 ave        3380 max        3048 min
Histogram: 1 0 1 0 0 0 0 1 0 1

Total # of neighbors = 12846
Ave neighs/atom = 66.90625
Neighbor list builds = 1
Dangerous builds = 0

# Obtain new stress tensor

variable tmp equal pe
variable e1 equal ${tmp}
variable e1 equal -906.987221000411
variable tmp equal press
variable p1 equal ${tmp}
variable p1 equal -19000.7584178629
variable tmp equal pxx
variable pxx1 equal ${tmp}
variable pxx1 equal -18098.6888419369
variable tmp equal pyy
variable pyy1 equal ${tmp}
variable pyy1 equal -6794.47322265192
variable tmp equal pzz
variable pzz1 equal ${tmp}
variable pzz1 equal -32109.113189
variable tmp equal pxy
variable pxy1 equal ${tmp}
variable pxy1 equal -7917.87975570228
variable tmp equal pxz
variable pxz1 equal ${tmp}
variable pxz1 equal -12583.6797321374
variable tmp equal pyz
variable pyz1 equal ${tmp}
variable pyz1 equal -9503.19126273927

# Compute elastic constant from pressure tensor

variable C1pos equal ${d1}
variable C1pos equal 1809868.88419369
variable C2pos equal ${d2}
variable C2pos equal 679447.322265199
variable C3pos equal ${d3}
variable C3pos equal 3210911.3189
variable C4pos equal ${d4}
variable C4pos equal 950319.126273927
variable C5pos equal ${d5}
variable C5pos equal 1258367.97321374
variable C6pos equal ${d6}
variable C6pos equal 791787.975570228

# Combine positive and negative

variable C1${dir} equal 0.5*(${C1neg}+${C1pos})
variable C16 equal 0.5*(${C1neg}+${C1pos})
variable C16 equal 0.5*(-1809810.95461893+${C1pos})
variable C16 equal 0.5*(-1809810.95461893+1809868.88419369)
variable C2${dir} equal 0.5*(${C2neg}+${C2pos})
variable C26 equal 0.5*(${C2neg}+${C2pos})
variable C26 equal 0.5*(-679458.08743692+${C2pos})
variable C26 equal 0.5*(-679458.08743692+679447.322265199)
variable C3${dir} equal 0.5*(${C3neg}+${C3pos})
variable C36 equal 0.5*(${C3neg}+${C3pos})
variable C36 equal 0.5*(-3210964.01999598+${C3pos})
variable C36 equal 0.5*(-3210964.01999598+3210911.3189)
variable C4${dir} equal 0.5*(${C4neg}+${C4pos})
variable C46 equal 0.5*(${C4neg}+${C4pos})
variable C46 equal 0.5*(-950350.282244793+${C4pos})
variable C46 equal 0.5*(-950350.282244793+950319.126273927)
variable C5${dir} equal 0.5*(${C5neg}+${C5pos})
variable C56 equal 0.5*(${C5neg}+${C5pos})
variable C56 equal 0.5*(-1258358.58964795+${C5pos})
variable C56 equal 0.5*(-1258358.58964795+1258367.97321374)
variable C6${dir} equal 0.5*(${C6neg}+${C6pos})
variable C66 equal 0.5*(${C6neg}+${C6pos})
variable C66 equal 0.5*(-791976.956865287+${C6pos})
variable C66 equal 0.5*(-791976.956865287+791787.975570228)

# Delete dir to make sure it is not reused

variable dir delete

# Output final values

variable C11all equal ${C11}
variable C11all equal 29.086957570049
variable C22all equal ${C22}
variable C22all equal 168.921272762003
variable C33all equal ${C33}
variable C33all equal -13.7767189750448

variable C12all equal 0.5*(${C12}+${C21})
variable C12all equal 0.5*(-175.729788639932+${C21})
variable C12all equal 0.5*(-175.729788639932+269.894440231961)
variable C13all equal 0.5*(${C13}+${C31})
variable C13all equal 0.5*(348.056534855044+${C31})
variable C13all equal 0.5*(348.056534855044+112.966883220011)
variable C23all equal 0.5*(${C23}+${C32})
variable C23all equal 0.5*(-138.05323081254+${C32})
variable C23all equal 0.5*(-138.05323081254+125.78641517018)

variable C44all equal ${C44}
variable C44all equal 100.708177067514
variable C55all equal ${C55}
variable C55all equal -36.8584339600056
variable C66all equal ${C66}
variable C66all equal -94.4906475295429

variable C14all equal 0.5*(${C14}+${C41})
variable C14all equal 0.5*(1.45718266500626+${C41})
variable C14all equal 0.5*(1.45718266500626+171.323204249493)
variable C15all equal 0.5*(${C15}+${C51})
variable C15all equal 0.5*(23.7108845099574+${C51})
variable C15all equal 0.5*(23.7108845099574+-41.6634800150059)
variable C16all equal 0.5*(${C16}+${C61})
variable C16all equal 0.5*(28.9647873800714+${C61})
variable C16all equal 0.5*(28.9647873800714+-341.340943802497)

variable C24all equal 0.5*(${C24}+${C42})
variable C24all equal 0.5*(67.9066072134883+${C42})
variable C24all equal 0.5*(67.9066072134883+26.3942566759652)
variable C25all equal 0.5*(${C25}+${C52})
variable C25all equal 0.5*(-5.13698889949592+${C52})
variable C25all equal 0.5*(-5.13698889949592+-21.2305007850518)
variable C26all equal 0.5*(${C26}+${C62})
variable C26all equal 0.5*(-5.38258586049778+${C62})
variable C26all equal 0.5*(-5.38258586049778+-27.5416614459828)

variable C34all equal 0.5*(${C34}+${C43})
variable C34all equal 0.5*(-60.879581724992+${C43})
variable C34all equal 0.5*(-60.879581724992+-144.967769337003)
variable C35all equal 0.5*(${C35}+${C53})
variable C35all equal 0.5*(-49.4594177301042+${C53})
variable C35all equal 0.5*(-49.4594177301042+40.2736222749809)
variable C36all equal 0.5*(${C36}+${C63})
variable C36all equal 0.5*(-26.3505479900632+${C63})
variable C36all equal 0.5*(-26.3505479900632+238.942552783003)

variable C45all equal 0.5*(${C45}+${C54})
variable C45all equal 0.5*(33.4903440279886+${C54})
variable C45all equal 0.5*(33.4903440279886+-112.840432005003)
variable C46all equal 0.5*(${C46}+${C64})
variable C46all equal 0.5*(-15.5779854329885+${C64})
variable C46all equal 0.5*(-15.5779854329885+-71.6161874704994)
variable C56all equal 0.5*(${C56}+${C65})
variable C56all equal 0.5*(4.69178289500996+${C65})
variable C56all equal 0.5*(4.69178289500996+1.00581194949336)

# Average moduli for cubic crystals

variable C11cubic equal (${C11all}+${C22all}+${C33all})/3.0
variable C11cubic equal (29.086957570049+${C22all}+${C33all})/3.0
variable C11cubic equal (29.086957570049+168.921272762003+${C33all})/3.0
variable C11cubic equal (29.086957570049+168.921272762003+-13.7767189750448)/3.0
variable C12cubic equal (${C12all}+${C13all}+${C23all})/3.0
variable C12cubic equal (47.0823257960145+${C13all}+${C23all})/3.0
variable C12cubic equal (47.0823257960145+230.511709037528+${C23all})/3.0
variable C12cubic equal (47.0823257960145+230.511709037528+-6.13340782117999)/3.0
variable C44cubic equal (${C44all}+${C55all}+${C66all})/3.0
variable C44cubic equal (100.708177067514+${C55all}+${C66all})/3.0
variable C44cubic equal (100.708177067514+-36.8584339600056+${C66all})/3.0
variable C44cubic equal (100.708177067514+-36.8584339600056+-94.4906475295429)/3.0

variable bulkmodulus equal (${C11cubic}+2*${C12cubic})/3.0
variable bulkmodulus equal (61.4105037856691+2*${C12cubic})/3.0
variable bulkmodulus equal (61.4105037856691+2*90.4868756707875)/3.0
variable shearmodulus1 equal ${C44cubic}
variable shearmodulus1 equal -10.2136348073448
variable shearmodulus2 equal (${C11cubic}-${C12cubic})/2.0
variable shearmodulus2 equal (61.4105037856691-${C12cubic})/2.0
variable shearmodulus2 equal (61.4105037856691-90.4868756707875)/2.0
variable poissonratio equal 1.0/(1.0+${C11cubic}/${C12cubic})
variable poissonratio equal 1.0/(1.0+61.4105037856691/${C12cubic})
variable poissonratio equal 1.0/(1.0+61.4105037856691/90.4868756707875)

# For Stillinger-Weber silicon, the analytical results
# are known to be (E. R. Cowley, 1988):
#               C11 = 151.4 GPa
#               C12 = 76.4 GPa
#               C44 = 56.4 GPa

print "========================================="
=========================================
print "Components of the Elastic Constant Tensor"
Components of the Elastic Constant Tensor
print "========================================="
=========================================

print "Elastic Constant C11all = ${C11all} ${cunits}"
Elastic Constant C11all = 29.086957570049 GPa
print "Elastic Constant C22all = ${C22all} ${cunits}"
Elastic Constant C22all = 168.921272762003 GPa
print "Elastic Constant C33all = ${C33all} ${cunits}"
Elastic Constant C33all = -13.7767189750448 GPa

print "Elastic Constant C12all = ${C12all} ${cunits}"
Elastic Constant C12all = 47.0823257960145 GPa
print "Elastic Constant C13all = ${C13all} ${cunits}"
Elastic Constant C13all = 230.511709037528 GPa
print "Elastic Constant C23all = ${C23all} ${cunits}"
Elastic Constant C23all = -6.13340782117999 GPa

print "Elastic Constant C44all = ${C44all} ${cunits}"
Elastic Constant C44all = 100.708177067514 GPa
print "Elastic Constant C55all = ${C55all} ${cunits}"
Elastic Constant C55all = -36.8584339600056 GPa
print "Elastic Constant C66all = ${C66all} ${cunits}"
Elastic Constant C66all = -94.4906475295429 GPa

print "Elastic Constant C14all = ${C14all} ${cunits}"
Elastic Constant C14all = 86.3901934572496 GPa
print "Elastic Constant C15all = ${C15all} ${cunits}"
Elastic Constant C15all = -8.97629775252425 GPa
print "Elastic Constant C16all = ${C16all} ${cunits}"
Elastic Constant C16all = -156.188078211213 GPa

print "Elastic Constant C24all = ${C24all} ${cunits}"
Elastic Constant C24all = 47.1504319447267 GPa
print "Elastic Constant C25all = ${C25all} ${cunits}"
Elastic Constant C25all = -13.1837448422739 GPa
print "Elastic Constant C26all = ${C26all} ${cunits}"
Elastic Constant C26all = -16.4621236532403 GPa

print "Elastic Constant C34all = ${C34all} ${cunits}"
Elastic Constant C34all = -102.923675530997 GPa
print "Elastic Constant C35all = ${C35all} ${cunits}"
Elastic Constant C35all = -4.59289772756165 GPa
print "Elastic Constant C36all = ${C36all} ${cunits}"
Elastic Constant C36all = 106.29600239647 GPa

print "Elastic Constant C45all = ${C45all} ${cunits}"
Elastic Constant C45all = -39.6750439885072 GPa
print "Elastic Constant C46all = ${C46all} ${cunits}"
Elastic Constant C46all = -43.5970864517439 GPa
print "Elastic Constant C56all = ${C56all} ${cunits}"
Elastic Constant C56all = 2.84879742225166 GPa

print "========================================="
=========================================
print "Average properties for a cubic crystal"
Average properties for a cubic crystal
print "========================================="
=========================================

print "Bulk Modulus = ${bulkmodulus} ${cunits}"
Bulk Modulus = 80.7947517090814 GPa
print "Shear Modulus 1 = ${shearmodulus1} ${cunits}"
Shear Modulus 1 = -10.2136348073448 GPa
print "Shear Modulus 2 = ${shearmodulus2} ${cunits}"
Shear Modulus 2 = -14.5381859425592 GPa
print "Poisson Ratio = ${poissonratio}"
Poisson Ratio = 0.595710577724132
Total wall time: 0:00:00
