LAMMPS (22 Dec 2022)
  using 1 OpenMP thread(s) per MPI task
Loaded 1 plugins from C:\Program Files\LAMMPS 64-bit 23Jun2022\plugins
Loaded 0 plugins from C:\Program Files\LAMMPS 64-bit 23Jun2022-MPI\plugins
Loaded 1 plugins from C:\Program Files\LAMMPS 64-bit 22Dec2022-MSMPI\plugins
Loaded 1 plugins from C:\Program Files\LAMMPS 64-bit 28Mar2023-MPI\plugins
# Compute elastic constant tensor for a crystal
#
# Written by Aidan Thompson (Sandia, athomps@sandia.gov)
#
#  This script uses the following three include files.
#
#   init.mod      (must be modified for different crystal structures)
# 	       	  Define units, deformation parameters and initial
#		  configuration of the atoms and simulation cell.
#
#
#   potential.mod    (must be modified for different pair styles)
# 		     Define pair style and other attributes
#		     not stored in restart file
#
#
#   displace.mod    (displace.mod should not need to be modified)
# 		    Perform positive and negative box displacements
# 		    in direction ${dir} and size ${up}.
# 		    It uses the resultant changes
#		    in stress to compute one
# 		    row of the elastic stiffness tensor
#
#		    Inputs variables:
#		    	   dir = the Voigt deformation component
#		    		    (1,2,3,4,5,6)
#		    Global constants:
#       	    	   up = the deformation magnitude (strain units)
#       		   cfac = conversion from LAMMPS pressure units to
#               	   output units for elastic constants
#
#
#  To run this on a different system, it should only be necessary to
#  modify the files init.mod and potential.mod. In order to calculate
#  the elastic constants correctly, care must be taken to specify
#  the correct units in init.mod (units, cfac and cunits). It is also
#  important to verify that the minimization of energy w.r.t atom
#  positions in the deformed cell is fully converged.
#  One indication of this is that the elastic constants are insensitive
#  to the choice of the variable ${up} in init.mod. Another is to check
#  the final max and two-norm forces reported in the log file. If you know
#  that minimization is not required, you can set maxiter = 0.0 in
#  init.mod.
#

include init.mod
# NOTE: This script can be modified for different atomic structures,
# units, etc. See in.elastic for more info.
#

# Define the finite deformation size. Try several values of this
# variable to verify that results do not depend on it.
variable up equal 1.0e-6

# Define the amount of random jiggle for atoms
# This prevents atoms from staying on saddle points
variable atomjiggle equal 1.0e-5

# Uncomment one of these blocks, depending on what units
# you are using in LAMMPS and for output

# metal units, elastic constants in eV/A^3
#units		metal
#variable cfac equal 6.2414e-7
#variable cunits string eV/A^3

# metal units, elastic constants in GPa
units		metal
variable cfac equal 1.0e-4
variable cunits string GPa

# real units, elastic constants in GPa
#units		real
#variable cfac equal 1.01325e-4
#variable cunits string GPa

# Define minimization parameters
variable etol equal 0.0
variable ftol equal 1.0e-10
variable maxiter equal 100
variable maxeval equal 1000
variable dmax equal 1.0e-2

# generate the box and atom positions using a diamond lattice

dimension    3
boundary     p p p
read_data    data.in
Reading data file ...
  orthogonal box = (-0.017091462 -0.017091462 -0.017091462) to (3.0370915 3.0370915 3.0370915)
  1 by 2 by 2 MPI processor grid
  reading atoms ...
  2 atoms
  reading velocities ...
  2 velocities
  read_data CPU = 0.001 seconds
#replicate    2 3 4
replicate    2 3 4
Replication is creating a 2x3x4 = 24 times larger system...
  orthogonal box = (-0.017091462 -0.017091462 -0.017091462) to (6.0912744 9.1454573 12.19964)
  1 by 2 by 2 MPI processor grid
  48 atoms
  replicate CPU = 0.000 seconds
change_box   all triclinic
Changing box ...
  triclinic box = (-0.017091462 -0.017091462 -0.017091462) to (6.0912744 9.1454573 12.19964) with tilt (0 0 0)

# Need to set mass to something, just to satisfy LAMMPS
mass 1 1.0e-20

include potential.mod
# NOTE: This script can be modified for different pair styles
# See in.elastic for more info.

# Choose potential
#-----------------------
#pair_style	sw
#pair_coeff * * Si.sw Si
#-----------------------
#pair_style morse	2.83994742	# D0[eV] a[1/A] r0[A] rc[A], 1NN for BCC
#pair_coeff 1 1	2.1173	1.0202	2.4595	2.6497	#	Fe-Fe
#-----------------------
#pair_style smatb # R0(A)   p       q     A(eV)   xi(eV)  Rcs(A)   Rc(A), 4NN: Rcs=4NN, Rc=(4NN+5NN)/2
#pair_coeff 1 1	2.4802	7.0149	2.3779	0.3144	3.0551	4.033	4.176	#	Co	Co
#-----------------------
#pair_style eam/alloy
#pair_coeff * * AlCrFeCoNi_Zhou04.eam.alloy Fe
#-----------------------
pair_style meam
pair_coeff * * ./../../library.meam Ti V N ./../../TiVN.meam Ti V
#-----------------------

# Setup neighbor style
neighbor 1.0 nsq
neigh_modify once no every 1 delay 0 check yes

# Setup minimization style
min_style	     cg
min_modify	     dmax ${dmax} line quadratic
min_modify	     dmax 0.01 line quadratic

# Setup output
thermo		1
thermo_style custom step temp pe press pxx pyy pzz pxy pxz pyz lx ly lz vol
thermo_modify norm no

# Compute initial state
fix 3 all box/relax  aniso 0.0
minimize ${etol} ${ftol} ${maxiter} ${maxeval}
minimize 0 ${ftol} ${maxiter} ${maxeval}
minimize 0 1e-10 ${maxiter} ${maxeval}
minimize 0 1e-10 100 ${maxeval}
minimize 0 1e-10 100 1000
Neighbor list info ...
  update: every = 1 steps, delay = 0 steps, check = yes
  max neighbors/atom: 2000, page size: 100000
  master list distance cutoff = 6
  ghost atom cutoff = 6
  2 neighbor lists, perpetual/occasional/extra = 2 0 0
  (1) pair meam, perpetual
      attributes: full, newton on
      pair build: full/nsq
      stencil: none
      bin: none
  (2) pair meam, perpetual, half/full from (1)
      attributes: half, newton on
      pair build: halffull/newton
      stencil: none
      bin: none
Per MPI rank memory allocation (min/avg/max) = 9.767 | 9.771 | 9.776 Mbytes
   Step          Temp          PotEng         Press           Pxx            Pyy            Pzz            Pxy            Pxz            Pyz             Lx             Ly             Lz           Volume    
         0   0             -249.984       -5.4948064e-10 -3.8372159e-10 -7.5794769e-10 -5.0677265e-10 -3.6079585e-11 -5.9867071e-11 -2.2665589e-11  6.1083658      9.1625488      12.216732      683.74848    
         1   0             -249.984       -1.9641342e-10 -3.752667e-10   4.1350879e-10 -6.2748235e-10  2.0324237e-12  3.2291147e-11  1.2487211e-11  6.1083658      9.1625488      12.216732      683.74848    
Loop time of 0.000598 on 4 procs for 1 steps with 48 atoms

0.0% CPU use with 4 MPI tasks x 1 OpenMP threads

Minimization stats:
  Stopping criterion = force tolerance
  Energy initial, next-to-last, final = 
     -249.984000000685  -249.984000000685  -249.984000000685
  Force two-norm initial, final = 4.2553356e-13 3.6472071e-13
  Force max component initial, final = 3.2346348e-13 2.6778579e-13
  Final line search alpha, max atom move = 1 2.6778579e-13
  Iterations, force evaluations = 1 2

MPI task timing breakdown:
Section |  min time  |  avg time  |  max time  |%varavg| %total
---------------------------------------------------------------
Pair    | 0.000396   | 0.00042975 | 0.000471   |   0.0 | 71.86
Neigh   | 0          | 0          | 0          |   0.0 |  0.00
Comm    | 3.5e-05    | 7.4e-05    | 0.000105   |   0.0 | 12.37
Output  | 0          | 0          | 0          |   0.0 |  0.00
Modify  | 0          | 0          | 0          |   0.0 |  0.00
Other   |            | 9.425e-05  |            |       | 15.76

Nlocal:             12 ave          20 max           6 min
Histogram: 1 0 1 0 1 0 0 0 0 1
Nghost:            293 ave         299 max         285 min
Histogram: 1 0 0 0 0 1 0 1 0 1
Neighs:            348 ave         580 max         174 min
Histogram: 1 0 1 0 1 0 0 0 0 1
FullNghs:          696 ave        1160 max         348 min
Histogram: 1 0 1 0 1 0 0 0 0 1

Total # of neighbors = 2784
Ave neighs/atom = 58
Neighbor list builds = 0
Dangerous builds = 0

variable tmp equal pxx
variable pxx0 equal ${tmp}
variable pxx0 equal -3.75266704689251e-10
variable tmp equal pyy
variable pyy0 equal ${tmp}
variable pyy0 equal 4.135087882867e-10
variable tmp equal pzz
variable pzz0 equal ${tmp}
variable pzz0 equal -6.27482351272425e-10
variable tmp equal pyz
variable pyz0 equal ${tmp}
variable pyz0 equal 1.24872109705955e-11
variable tmp equal pxz
variable pxz0 equal ${tmp}
variable pxz0 equal 3.22911471192743e-11
variable tmp equal pxy
variable pxy0 equal ${tmp}
variable pxy0 equal 2.0324236605787e-12

variable tmp equal lx
variable lx0 equal ${tmp}
variable lx0 equal 6.10836584663587
variable tmp equal ly
variable ly0 equal ${tmp}
variable ly0 equal 9.1625487699538
variable tmp equal lz
variable lz0 equal ${tmp}
variable lz0 equal 12.2167316932717

# These formulas define the derivatives w.r.t. strain components
# Constants uses $, variables use v_
variable d1 equal -(v_pxx1-${pxx0})/(v_delta/v_len0)*${cfac}
variable d1 equal -(v_pxx1--3.75266704689251e-10)/(v_delta/v_len0)*${cfac}
variable d1 equal -(v_pxx1--3.75266704689251e-10)/(v_delta/v_len0)*0.0001
variable d2 equal -(v_pyy1-${pyy0})/(v_delta/v_len0)*${cfac}
variable d2 equal -(v_pyy1-4.135087882867e-10)/(v_delta/v_len0)*${cfac}
variable d2 equal -(v_pyy1-4.135087882867e-10)/(v_delta/v_len0)*0.0001
variable d3 equal -(v_pzz1-${pzz0})/(v_delta/v_len0)*${cfac}
variable d3 equal -(v_pzz1--6.27482351272425e-10)/(v_delta/v_len0)*${cfac}
variable d3 equal -(v_pzz1--6.27482351272425e-10)/(v_delta/v_len0)*0.0001
variable d4 equal -(v_pyz1-${pyz0})/(v_delta/v_len0)*${cfac}
variable d4 equal -(v_pyz1-1.24872109705955e-11)/(v_delta/v_len0)*${cfac}
variable d4 equal -(v_pyz1-1.24872109705955e-11)/(v_delta/v_len0)*0.0001
variable d5 equal -(v_pxz1-${pxz0})/(v_delta/v_len0)*${cfac}
variable d5 equal -(v_pxz1-3.22911471192743e-11)/(v_delta/v_len0)*${cfac}
variable d5 equal -(v_pxz1-3.22911471192743e-11)/(v_delta/v_len0)*0.0001
variable d6 equal -(v_pxy1-${pxy0})/(v_delta/v_len0)*${cfac}
variable d6 equal -(v_pxy1-2.0324236605787e-12)/(v_delta/v_len0)*${cfac}
variable d6 equal -(v_pxy1-2.0324236605787e-12)/(v_delta/v_len0)*0.0001

displace_atoms all random ${atomjiggle} ${atomjiggle} ${atomjiggle} 87287 units box
displace_atoms all random 1e-05 ${atomjiggle} ${atomjiggle} 87287 units box
displace_atoms all random 1e-05 1e-05 ${atomjiggle} 87287 units box
displace_atoms all random 1e-05 1e-05 1e-05 87287 units box
Displacing atoms ...

# Write restart
unfix 3
write_restart restart.equil
System init for write_restart ...

# uxx Perturbation

variable dir equal 1
include displace.mod
# NOTE: This script should not need to be
# modified. See in.elastic for more info.
#
# Find which reference length to use

if "${dir} == 1" then    "variable len0 equal ${lx0}"
variable len0 equal ${lx0}
variable len0 equal 6.10836584663587
if "${dir} == 2" then    "variable len0 equal ${ly0}"
if "${dir} == 3" then    "variable len0 equal ${lz0}"
if "${dir} == 4" then    "variable len0 equal ${lz0}"
if "${dir} == 5" then    "variable len0 equal ${lz0}"
if "${dir} == 6" then    "variable len0 equal ${ly0}"

# Reset box and simulation parameters

clear
  using 1 OpenMP thread(s) per MPI task
Loaded 1 plugins from C:\Program Files\LAMMPS 64-bit 23Jun2022\plugins
Loaded 0 plugins from C:\Program Files\LAMMPS 64-bit 23Jun2022-MPI\plugins
Loaded 1 plugins from C:\Program Files\LAMMPS 64-bit 22Dec2022-MSMPI\plugins
Loaded 1 plugins from C:\Program Files\LAMMPS 64-bit 28Mar2023-MPI\plugins
box tilt large

The 'box' command has been removed and will be ignored

read_restart restart.equil
Reading restart file ...
  restart file = 22 Dec 2022, LAMMPS = 22 Dec 2022
  restoring atom style atomic from restart
  triclinic box = (-0.017091462 -0.017091462 -0.017091462) to (6.0912744 9.1454573 12.19964) with tilt (0 0 0)
  1 by 2 by 2 MPI processor grid
  pair style meam stores no restart info
  48 atoms
  read_restart CPU = 0.000 seconds
include potential.mod
# NOTE: This script can be modified for different pair styles
# See in.elastic for more info.

# Choose potential
#-----------------------
#pair_style	sw
#pair_coeff * * Si.sw Si
#-----------------------
#pair_style morse	2.83994742	# D0[eV] a[1/A] r0[A] rc[A], 1NN for BCC
#pair_coeff 1 1	2.1173	1.0202	2.4595	2.6497	#	Fe-Fe
#-----------------------
#pair_style smatb # R0(A)   p       q     A(eV)   xi(eV)  Rcs(A)   Rc(A), 4NN: Rcs=4NN, Rc=(4NN+5NN)/2
#pair_coeff 1 1	2.4802	7.0149	2.3779	0.3144	3.0551	4.033	4.176	#	Co	Co
#-----------------------
#pair_style eam/alloy
#pair_coeff * * AlCrFeCoNi_Zhou04.eam.alloy Fe
#-----------------------
pair_style meam
pair_coeff * * ./../../library.meam Ti V N ./../../TiVN.meam Ti V
#-----------------------

# Setup neighbor style
neighbor 1.0 nsq
neigh_modify once no every 1 delay 0 check yes

# Setup minimization style
min_style	     cg
min_modify	     dmax ${dmax} line quadratic
min_modify	     dmax 0.01 line quadratic

# Setup output
thermo		1
thermo_style custom step temp pe press pxx pyy pzz pxy pxz pyz lx ly lz vol
thermo_modify norm no

# Negative deformation

variable delta equal -${up}*${len0}
variable delta equal -1e-06*${len0}
variable delta equal -1e-06*6.10836584663587
variable deltaxy equal -${up}*xy
variable deltaxy equal -1e-06*xy
variable deltaxz equal -${up}*xz
variable deltaxz equal -1e-06*xz
variable deltayz equal -${up}*yz
variable deltayz equal -1e-06*yz
if "${dir} == 1" then    "change_box all x delta 0 ${delta} xy delta ${deltaxy} xz delta ${deltaxz} remap units box"
change_box all x delta 0 ${delta} xy delta ${deltaxy} xz delta ${deltaxz} remap units box
change_box all x delta 0 -6.10836584663587e-06 xy delta ${deltaxy} xz delta ${deltaxz} remap units box
change_box all x delta 0 -6.10836584663587e-06 xy delta -0 xz delta ${deltaxz} remap units box
change_box all x delta 0 -6.10836584663587e-06 xy delta -0 xz delta -0 remap units box
Changing box ...
  triclinic box = (-0.017091462 -0.017091462 -0.017091462) to (6.0912683 9.1454573 12.19964) with tilt (0 0 0)
  triclinic box = (-0.017091462 -0.017091462 -0.017091462) to (6.0912683 9.1454573 12.19964) with tilt (0 0 0)
  triclinic box = (-0.017091462 -0.017091462 -0.017091462) to (6.0912683 9.1454573 12.19964) with tilt (0 0 0)
if "${dir} == 2" then    "change_box all y delta 0 ${delta} yz delta ${deltayz} remap units box"
if "${dir} == 3" then    "change_box all z delta 0 ${delta} remap units box"
if "${dir} == 4" then    "change_box all yz delta ${delta} remap units box"
if "${dir} == 5" then    "change_box all xz delta ${delta} remap units box"
if "${dir} == 6" then    "change_box all xy delta ${delta} remap units box"

# Relax atoms positions

minimize ${etol} ${ftol} ${maxiter} ${maxeval}
minimize 0 ${ftol} ${maxiter} ${maxeval}
minimize 0 1e-10 ${maxiter} ${maxeval}
minimize 0 1e-10 100 ${maxeval}
minimize 0 1e-10 100 1000
Neighbor list info ...
  update: every = 1 steps, delay = 0 steps, check = yes
  max neighbors/atom: 2000, page size: 100000
  master list distance cutoff = 6
  ghost atom cutoff = 6
  2 neighbor lists, perpetual/occasional/extra = 2 0 0
  (1) pair meam, perpetual
      attributes: full, newton on
      pair build: full/nsq
      stencil: none
      bin: none
  (2) pair meam, perpetual, half/full from (1)
      attributes: half, newton on
      pair build: halffull/newton
      stencil: none
      bin: none
Per MPI rank memory allocation (min/avg/max) = 9.769 | 9.77 | 9.772 Mbytes
   Step          Temp          PotEng         Press           Pxx            Pyy            Pzz            Pxy            Pxz            Pyz             Lx             Ly             Lz           Volume    
         1   0             -249.984        1.2721027      4.5926138     -0.38811387    -0.38819184     5.3335513e-06  2.2687867e-06 -2.218936e-06   6.1083597      9.1625488      12.216732      683.7478     
         2   0             -249.984        1.272092       4.5925918     -0.38811736    -0.38819845     4.164319e-06   6.1407922e-07 -1.1818044e-06  6.1083597      9.1625488      12.216732      683.7478     
         3   0             -249.984        1.2720772      4.5926292     -0.38806465    -0.38833277    -1.1830138e-06 -2.5740207e-06 -1.7758005e-07  6.1083597      9.1625488      12.216732      683.7478     
         4   0             -249.984        1.2691454      4.6000004     -0.38738853    -0.40517561    -0.00033179877 -0.00032645629  2.4607894e-05  6.1083597      9.1625488      12.216732      683.7478     
         5   0             -249.98494     -8.473511       28.904641      1.7751518     -56.100326     -1.2721712     -1.1093364      0.15076471     6.1083597      9.1625488      12.216732      683.7478     
         6   0             -249.98776     -37.908858      101.60848      8.0285259     -223.36358     -5.4409023     -4.5306657      0.63055872     6.1083597      9.1625488      12.216732      683.7478     
         7   0             -249.99243     -86.608901      219.34816      16.413757     -495.58862     -12.971702     -10.330305      1.4826809      6.1083597      9.1625488      12.216732      683.7478     
         8   0             -249.99886     -153.71405      376.20921      23.162909     -860.51425     -24.258487     -18.533969      2.7754095      6.1083597      9.1625488      12.216732      683.7478     
         9   0             -250.00695     -237.93461      564.02036      23.499296     -1301.3235     -39.547625     -29.126656      4.6312775      6.1083597      9.1625488      12.216732      683.7478     
        10   0             -250.01691     -337.47662      771.97457      14.850135     -1799.2546     -58.807642     -42.089233      7.3786361      6.1083597      9.1625488      12.216732      683.7478     
        11   0             -250.03087     -449.60951      981.37384      14.347767     -2344.5501     -81.150764     -57.639646      12.444117      6.1083597      9.1625488      12.216732      683.7478     
        12   0             -250.05467     -559.8444       1137.8067      101.25935     -2918.5993     -99.229731     -74.884429      22.798295      6.1083597      9.1625488      12.216732      683.7478     
        13   0             -250.08226     -661.60243      1242.31        237.42825     -3464.5455     -107.1582      -92.570623      33.853798      6.1083597      9.1625488      12.216732      683.7478     
        14   0             -250.11194     -779.0103       1331.8165      357.31305     -4026.1604     -111.26355     -115.2169       44.891385      6.1083597      9.1625488      12.216732      683.7478     
        15   0             -250.14469     -915.49404      1387.1571      458.23189     -4591.8711     -112.85453     -145.01689      57.489176      6.1083597      9.1625488      12.216732      683.7478     
        16   0             -250.18163     -1073.6455      1383.6955      547.04337     -5151.6753     -112.31209     -184.53689      73.352181      6.1083597      9.1625488      12.216732      683.7478     
        17   0             -250.2242      -1258.26        1291.2536      634.91912     -5700.9527     -109.91861     -237.36362      94.674656      6.1083597      9.1625488      12.216732      683.7478     
        18   0             -250.27455     -1477.8818      1068.702       738.85406     -6241.2014     -106.02113     -308.76486      124.75419      6.1083597      9.1625488      12.216732      683.7478     
        19   0             -250.32828     -1712.8377      714.5264       869.57954     -6722.6191     -101.91785     -393.69617      163.04045      6.1083597      9.1625488      12.216732      683.7478     
        20   0             -250.38086     -1942.7026      276.75126      1027.8115     -7132.6707     -98.836937     -482.73069      206.36626      6.1083597      9.1625488      12.216732      683.7478     
        21   0             -250.43179     -2164.3372     -202.64582      1207.8112     -7498.1768     -97.091511     -571.5915       252.80556      6.1083597      9.1625488      12.216732      683.7478     
        22   0             -250.48219     -2381.4119     -698.69857      1403.8105     -7849.3475     -96.633373     -659.53242      301.6456       6.1083597      9.1625488      12.216732      683.7478     
        23   0             -250.53267     -2595.27       -1188.7128      1609.6187     -8206.7159     -97.405591     -745.66933      351.82859      6.1083597      9.1625488      12.216732      683.7478     
        24   0             -250.58116     -2796.1189     -1633.2807      1812.0222     -8567.0982     -99.283069     -825.12999      399.49435      6.1083597      9.1625488      12.216732      683.7478     
        25   0             -250.62808     -2985.0314     -2025.5368      2008.666      -8938.2233     -102.11988     -897.9955       443.01867      6.1083597      9.1625488      12.216732      683.7478     
        26   0             -250.6738      -3162.7576     -2364.4564      2199.8632     -9323.6796     -105.82986     -964.36361      480.21457      6.1083597      9.1625488      12.216732      683.7478     
        27   0             -250.71851     -3329.369      -2655.0807      2390.0249     -9723.0512     -110.3877      -1023.8304      507.74433      6.1083597      9.1625488      12.216732      683.7478     
        28   0             -250.76123     -3480.791      -2905.5022      2584.0947     -10120.965     -115.66599     -1074.0923      520.46373      6.1083597      9.1625488      12.216732      683.7478     
        29   0             -250.80029     -3611.6017     -3131.6109      2786.6147     -10489.809     -121.34422     -1112.3217      513.89664      6.1083597      9.1625488      12.216732      683.7478     
        30   0             -250.83289     -3714.3146     -3342.1099      2989.1246     -10789.959     -126.69717     -1136.2792      489.2444       6.1083597      9.1625488      12.216732      683.7478     
        31   0             -250.86145     -3798.7694     -3558.2517      3197.5788     -11035.635     -131.66885     -1149.8472      450.46169      6.1083597      9.1625488      12.216732      683.7478     
        32   0             -250.88764     -3871.2325     -3792.6196      3416.2864     -11237.364     -136.20915     -1155.352       400.52959      6.1083597      9.1625488      12.216732      683.7478     
        33   0             -250.9127      -3936.0438     -4055.5634      3649.7828     -11402.351     -140.23804     -1154.2088      341.72035      6.1083597      9.1625488      12.216732      683.7478     
        34   0             -250.9377      -3996.5835     -4359.3795      3904.245      -11534.616     -143.61739     -1147.241       275.79988      6.1083597      9.1625488      12.216732      683.7478     
        35   0             -250.96371     -4055.8892     -4721.2215      4188.4515     -11634.898     -146.1166      -1134.8396      204.24739      6.1083597      9.1625488      12.216732      683.7478     
        36   0             -250.99171     -4116.5012     -5160.8574      4511.4074     -11700.054     -147.35633     -1117.2067      129.25158      6.1083597      9.1625488      12.216732      683.7478     
        37   0             -251.01854     -4172.1069     -5625.7106      4833.4489     -11724.059     -146.89339     -1097.6336      63.520699      6.1083597      9.1625488      12.216732      683.7478     
        38   0             -251.04509     -4225.0002     -6112.5608      5155.3378     -11717.778     -144.88774     -1077.0021      7.080162       6.1083597      9.1625488      12.216732      683.7478     
        39   0             -251.07037     -4273.1421     -6584.9382      5457.4165     -11691.905     -141.66185     -1056.8497     -37.613931      6.1083597      9.1625488      12.216732      683.7478     
        40   0             -251.09462     -4316.8029     -7031.1547      5736.7333     -11655.987     -137.51624     -1037.2291     -72.093013      6.1083597      9.1625488      12.216732      683.7478     
        41   0             -251.11803     -4356.0264     -7443.685       5992.1081     -11616.502     -132.65002     -1017.8618     -97.969086      6.1083597      9.1625488      12.216732      683.7478     
        42   0             -251.1407      -4390.6564     -7817.5206      6223.0268     -11577.475     -127.18152     -998.34017     -116.64797      6.1083597      9.1625488      12.216732      683.7478     
        43   0             -251.16269     -4420.4776     -8150.7278      6430.0798     -11540.785     -121.15215     -978.15612     -129.31107      6.1083597      9.1625488      12.216732      683.7478     
        44   0             -251.18404     -4445.3369     -8444.8618      6615.1398     -11506.289     -114.53513     -956.67321     -136.92795      6.1083597      9.1625488      12.216732      683.7478     
        45   0             -251.2048      -4465.2398     -8705.3222      6781.4348     -11471.832     -107.23232     -933.05786     -140.26189      6.1083597      9.1625488      12.216732      683.7478     
        46   0             -251.22504     -4480.4615     -8941.7974      6933.5612     -11433.148     -99.054275     -906.14501     -139.8644       6.1083597      9.1625488      12.216732      683.7478     
        47   0             -251.24494     -4491.7423     -9169.0363      7077.2848     -11383.476     -89.676678     -874.1652      -136.06054      6.1083597      9.1625488      12.216732      683.7478     
        48   0             -251.26481     -4500.7394     -9408.7348      7218.7613     -11312.245     -78.534592     -834.13411     -128.89061      6.1083597      9.1625488      12.216732      683.7478     
        49   0             -251.28351     -4510.7234     -9672.0168      7351.2977     -11211.451     -65.802446     -785.0629      -118.96456      6.1083597      9.1625488      12.216732      683.7478     
        50   0             -251.2983      -4525.4526     -9931.7214      7449.1717     -11093.808     -53.665393     -734.01575     -108.86201      6.1083597      9.1625488      12.216732      683.7478     
        51   0             -251.31017     -4546.9089     -10181.718      7501.6002     -10960.608     -42.354149     -682.33099     -99.240782      6.1083597      9.1625488      12.216732      683.7478     
        52   0             -251.31977     -4575.7423     -10410.937      7495.5037     -10811.793     -32.013964     -631.5486      -90.127096      6.1083597      9.1625488      12.216732      683.7478     
        53   0             -251.32765     -4612.0144     -10604.901      7415.7897     -10646.932     -22.750333     -583.35048     -81.257861      6.1083597      9.1625488      12.216732      683.7478     
        54   0             -251.33439     -4655.4614     -10744.537      7243.1144     -10464.962     -14.87128      -539.87751     -72.595452      6.1083597      9.1625488      12.216732      683.7478     
        55   0             -251.34025     -4700.005      -10799.116      6981.1207     -10282.02      -9.2657539     -506.44511     -64.384159      6.1083597      9.1625488      12.216732      683.7478     
        56   0             -251.34486     -4731.1005     -10774.966      6723.4971     -10141.833     -6.2525814     -482.02168     -57.493608      6.1083597      9.1625488      12.216732      683.7478     
        57   0             -251.3491      -4754.165      -10721.707      6471.918      -10012.706     -4.2428512     -454.54289     -51.334793      6.1083597      9.1625488      12.216732      683.7478     
        58   0             -251.35313     -4773.3936     -10664.733      6218.5422     -9873.9896     -2.7028934     -415.96586     -45.824722      6.1083597      9.1625488      12.216732      683.7478     
        59   0             -251.35688     -4791.7597     -10618.239      5956.4372     -9713.4774     -1.4773104     -360.0647      -40.725511      6.1083597      9.1625488      12.216732      683.7478     
        60   0             -251.36016     -4811.9721     -10591.105      5682.2138     -9527.0251     -0.53149038    -280.43279     -35.683316      6.1083597      9.1625488      12.216732      683.7478     
        61   0             -251.36269     -4837.6106     -10590.919      5399.0517     -9320.9647      0.091313524   -168.90388     -30.114138      6.1083597      9.1625488      12.216732      683.7478     
        62   0             -251.364       -4875.5127     -10628.031      5125.1731     -9123.6801      0.21842368    -6.4868478     -22.359444      6.1083597      9.1625488      12.216732      683.7478     
        63   0             -251.36404     -4876.2645     -10635.633      5159.3275     -9152.4884      0.098479578   -1.0181237     -19.343044      6.1083597      9.1625488      12.216732      683.7478     
        64   0             -251.36406     -4874.9724     -10630.441      5155.4226     -9149.8984      0.039500157    6.9710432     -17.016089      6.1083597      9.1625488      12.216732      683.7478     
        65   0             -251.36408     -4871.2921     -10610.074      5099.0712     -9102.8736     -0.012499815    0.98992338    -12.757255      6.1083597      9.1625488      12.216732      683.7478     
        66   0             -251.36417     -4892.6815     -10579.987      5037.4525     -9135.5105     -0.21318905    -26.309085      1.792279       6.1083597      9.1625488      12.216732      683.7478     
        67   0             -251.36454     -4930.879      -10487.769      4713.5773     -9018.4458     -0.35019163    -29.08701       33.105222      6.1083597      9.1625488      12.216732      683.7478     
        68   0             -251.36528     -4958.3008     -10318.184      4083.9507     -8640.6695     -0.66121467    -8.1267169      67.284834      6.1083597      9.1625488      12.216732      683.7478     
        69   0             -251.36622     -5017.1318     -10087.764      3452.2284     -8415.8601     -0.7682406      13.816933      105.7062       6.1083597      9.1625488      12.216732      683.7478     
        70   0             -251.36729     -5114.2288     -9843.0398      2676.5584     -8176.205      -0.72880076     5.795204       153.775        6.1083597      9.1625488      12.216732      683.7478     
        71   0             -251.3685      -5209.3077     -9526.3284      1657.0746     -7758.6692     -0.5771981      10.808277      204.47001      6.1083597      9.1625488      12.216732      683.7478     
        72   0             -251.36912     -5241.3437     -9238.6866      758.03208     -7243.3765     -0.9585332     -5.370696       242.52948      6.1083597      9.1625488      12.216732      683.7478     
        73   0             -251.37004     -5344.6388     -8886.1633     -454.84305     -6692.91       -0.89397175    -22.068082      308.50034      6.1083597      9.1625488      12.216732      683.7478     
        74   0             -251.37117     -5490.0822     -8802.1687     -986.39891     -6681.679       0.74234722     0.64018494     359.17117      6.1083597      9.1625488      12.216732      683.7478     
        75   0             -251.37191     -5641.5205     -8516.7819     -2122.5825     -6285.1972      0.43360117     0.86810811     420.05759      6.1083597      9.1625488      12.216732      683.7478     
        76   0             -251.37301     -5750.4581     -8078.8049     -3603.646      -5568.9235     -0.55870495    -12.555866      482.89505      6.1083597      9.1625488      12.216732      683.7478     
        77   0             -251.37336     -5764.2618     -8018.0693     -3840.9588     -5433.7573      0.59180474     16.030556      493.45932      6.1083597      9.1625488      12.216732      683.7478     
        78   0             -251.37359     -5808.0479     -7986.8797     -4109.6784     -5327.5856      0.23057395     4.5602062      501.10716      6.1083597      9.1625488      12.216732      683.7478     
        79   0             -251.37425     -5950.4622     -7924.2896     -4792.846      -5134.2509     -0.0052635218  -26.298721      518.37199      6.1083597      9.1625488      12.216732      683.7478     
        80   0             -251.37543     -6088.4969     -7862.1969     -5565.1106     -4838.1834      0.75269636    -16.660762      535.8765       6.1083597      9.1625488      12.216732      683.7478     
        81   0             -251.37625     -6108.031      -7876.9995     -5782.2217     -4664.8718     -1.4587013      2.7806343      523.3338       6.1083597      9.1625488      12.216732      683.7478     
        82   0             -251.37743     -6166.3706     -7996.2886     -5830.3666     -4672.4567     -1.7182389      7.3910521      491.80949      6.1083597      9.1625488      12.216732      683.7478     
        83   0             -251.37868     -6264.1509     -8223.4355     -5635.6893     -4933.328       2.3240911      8.3330557      429.74366      6.1083597      9.1625488      12.216732      683.7478     
        84   0             -251.38022     -6342.8515     -8409.3099     -5662.5465     -4956.6982      0.85014747    -0.8854852      367.91437      6.1083597      9.1625488      12.216732      683.7478     
        85   0             -251.38145     -6383.4091     -8516.3193     -5753.7635     -4880.1444     -0.43488467     5.9752777      330.74742      6.1083597      9.1625488      12.216732      683.7478     
        86   0             -251.3829      -6482.8983     -8734.6803     -5717.6135     -4996.4011     -1.0950417     -13.383185      269.92478      6.1083597      9.1625488      12.216732      683.7478     
        87   0             -251.38418     -6601.0938     -8978.8938     -5671.2426     -5153.1451      1.1894121      26.677876      208.03663      6.1083597      9.1625488      12.216732      683.7478     
        88   0             -251.38553     -6720.1469     -9222.2705     -5678.5928     -5259.5773      1.2018124      5.0497114      156.07827      6.1083597      9.1625488      12.216732      683.7478     
        89   0             -251.38603     -6759.7192     -9331.2929     -5749.1003     -5198.7644     -2.3856459     -11.515573      153.73574      6.1083597      9.1625488      12.216732      683.7478     
        90   0             -251.38693     -6873.3547     -9546.9278     -5780.7009     -5292.4353     -0.94226637    -0.71355372     131.64596      6.1083597      9.1625488      12.216732      683.7478     
        91   0             -251.38739     -6962.0644     -9700.104      -5687.3129     -5498.7764      0.71959795    -5.9099505      109.15295      6.1083597      9.1625488      12.216732      683.7478     
        92   0             -251.38769     -7075.7994     -9898.2215     -5698.7189     -5630.4576     -0.98686989     24.223316      84.024742      6.1083597      9.1625488      12.216732      683.7478     
        93   0             -251.38807     -7204.1373     -10158.561     -5727.0249     -5726.8263     -0.94984519    -0.20609197     65.324295      6.1083597      9.1625488      12.216732      683.7478     
        94   0             -251.38814     -7216.6121     -10172.297     -5728.2909     -5749.2481      0.67236753     1.7600453      72.121824      6.1083597      9.1625488      12.216732      683.7478     
        95   0             -251.38815     -7218.9528     -10168.025     -5722.38       -5766.453       0.28386943    -1.586479       70.843709      6.1083597      9.1625488      12.216732      683.7478     
        96   0             -251.38816     -7220.8865     -10157.575     -5722.9023     -5782.1819     -0.23963151     1.6729294      74.100924      6.1083597      9.1625488      12.216732      683.7478     
        97   0             -251.38816     -7220.5434     -10140.546     -5732.5485     -5788.5355     -0.45100811    -2.426188       72.170664      6.1083597      9.1625488      12.216732      683.7478     
        98   0             -251.38817     -7223.377      -10126.65      -5743.1155     -5800.3658     -0.33868244     0.066970847    66.803348      6.1083597      9.1625488      12.216732      683.7478     
        99   0             -251.38818     -7231.6185     -10120.021     -5759.1259     -5815.7081      0.06848163     0.20881294     60.914113      6.1083597      9.1625488      12.216732      683.7478     
       100   0             -251.38818     -7237.4157     -10121.398     -5774.4986     -5816.3507      0.12384857     0.299484       54.883947      6.1083597      9.1625488      12.216732      683.7478     
       101   0             -251.38818     -7240.467      -10121.559     -5786.356      -5813.4864      0.024810383    0.36853044     49.381812      6.1083597      9.1625488      12.216732      683.7478     
Loop time of 0.015797 on 4 procs for 100 steps with 48 atoms

49.5% CPU use with 4 MPI tasks x 1 OpenMP threads

Minimization stats:
  Stopping criterion = max iterations
  Energy initial, next-to-last, final = 
     -249.983999990681  -251.388178075218  -251.388179540265
  Force two-norm initial, final = 0.00037093665 0.0028353294
  Force max component initial, final = 8.614116e-05 0.0007972138
  Final line search alpha, max atom move = 1 0.0007972138
  Iterations, force evaluations = 100 120

MPI task timing breakdown:
Section |  min time  |  avg time  |  max time  |%varavg| %total
---------------------------------------------------------------
Pair    | 0.012331   | 0.012798   | 0.013185   |   0.3 | 81.02
Neigh   | 0          | 0          | 0          |   0.0 |  0.00
Comm    | 0.0009     | 0.0012958  | 0.001772   |   0.9 |  8.20
Output  | 0.00091    | 0.000961   | 0.001106   |   0.0 |  6.08
Modify  | 0          | 0          | 0          |   0.0 |  0.00
Other   |            | 0.0007418  |            |       |  4.70

Nlocal:             12 ave          14 max          10 min
Histogram: 1 0 0 0 0 2 0 0 0 1
Nghost:            293 ave         295 max         291 min
Histogram: 1 0 0 0 0 2 0 0 0 1
Neighs:            348 ave         402 max         279 min
Histogram: 1 0 0 0 0 1 1 0 0 1
FullNghs:          696 ave         812 max         580 min
Histogram: 1 0 0 0 0 2 0 0 0 1

Total # of neighbors = 2784
Ave neighs/atom = 58
Neighbor list builds = 0
Dangerous builds = 0

# Obtain new stress tensor

variable tmp equal pxx
variable pxx1 equal ${tmp}
variable pxx1 equal -10121.5585356027
variable tmp equal pyy
variable pyy1 equal ${tmp}
variable pyy1 equal -5786.35604562983
variable tmp equal pzz
variable pzz1 equal ${tmp}
variable pzz1 equal -5813.48641017835
variable tmp equal pxy
variable pxy1 equal ${tmp}
variable pxy1 equal 0.0248103826348645
variable tmp equal pxz
variable pxz1 equal ${tmp}
variable pxz1 equal 0.368530435465769
variable tmp equal pyz
variable pyz1 equal ${tmp}
variable pyz1 equal 49.3818122166694

# Compute elastic constant from pressure tensor

variable C1neg equal ${d1}
variable C1neg equal -1012155.85356023
variable C2neg equal ${d2}
variable C2neg equal -578635.604563024
variable C3neg equal ${d3}
variable C3neg equal -581348.641017772
variable C4neg equal ${d4}
variable C4neg equal 4938.18122166569
variable C5neg equal ${d5}
variable C5neg equal 36.8530435433478
variable C6neg equal ${d6}
variable C6neg equal 2.48103826328321

# Reset box and simulation parameters

clear
  using 1 OpenMP thread(s) per MPI task
Loaded 1 plugins from C:\Program Files\LAMMPS 64-bit 23Jun2022\plugins
Loaded 0 plugins from C:\Program Files\LAMMPS 64-bit 23Jun2022-MPI\plugins
Loaded 1 plugins from C:\Program Files\LAMMPS 64-bit 22Dec2022-MSMPI\plugins
Loaded 1 plugins from C:\Program Files\LAMMPS 64-bit 28Mar2023-MPI\plugins
box tilt large

The 'box' command has been removed and will be ignored

read_restart restart.equil
Reading restart file ...
  restart file = 22 Dec 2022, LAMMPS = 22 Dec 2022
  restoring atom style atomic from restart
  triclinic box = (-0.017091462 -0.017091462 -0.017091462) to (6.0912744 9.1454573 12.19964) with tilt (0 0 0)
  1 by 2 by 2 MPI processor grid
  pair style meam stores no restart info
  48 atoms
  read_restart CPU = 0.000 seconds
include potential.mod
# NOTE: This script can be modified for different pair styles
# See in.elastic for more info.

# Choose potential
#-----------------------
#pair_style	sw
#pair_coeff * * Si.sw Si
#-----------------------
#pair_style morse	2.83994742	# D0[eV] a[1/A] r0[A] rc[A], 1NN for BCC
#pair_coeff 1 1	2.1173	1.0202	2.4595	2.6497	#	Fe-Fe
#-----------------------
#pair_style smatb # R0(A)   p       q     A(eV)   xi(eV)  Rcs(A)   Rc(A), 4NN: Rcs=4NN, Rc=(4NN+5NN)/2
#pair_coeff 1 1	2.4802	7.0149	2.3779	0.3144	3.0551	4.033	4.176	#	Co	Co
#-----------------------
#pair_style eam/alloy
#pair_coeff * * AlCrFeCoNi_Zhou04.eam.alloy Fe
#-----------------------
pair_style meam
pair_coeff * * ./../../library.meam Ti V N ./../../TiVN.meam Ti V
#-----------------------

# Setup neighbor style
neighbor 1.0 nsq
neigh_modify once no every 1 delay 0 check yes

# Setup minimization style
min_style	     cg
min_modify	     dmax ${dmax} line quadratic
min_modify	     dmax 0.01 line quadratic

# Setup output
thermo		1
thermo_style custom step temp pe press pxx pyy pzz pxy pxz pyz lx ly lz vol
thermo_modify norm no

# Positive deformation

variable delta equal ${up}*${len0}
variable delta equal 1e-06*${len0}
variable delta equal 1e-06*6.10836584663587
variable deltaxy equal ${up}*xy
variable deltaxy equal 1e-06*xy
variable deltaxz equal ${up}*xz
variable deltaxz equal 1e-06*xz
variable deltayz equal ${up}*yz
variable deltayz equal 1e-06*yz
if "${dir} == 1" then    "change_box all x delta 0 ${delta} xy delta ${deltaxy} xz delta ${deltaxz} remap units box"
change_box all x delta 0 ${delta} xy delta ${deltaxy} xz delta ${deltaxz} remap units box
change_box all x delta 0 6.10836584663587e-06 xy delta ${deltaxy} xz delta ${deltaxz} remap units box
change_box all x delta 0 6.10836584663587e-06 xy delta 0 xz delta ${deltaxz} remap units box
change_box all x delta 0 6.10836584663587e-06 xy delta 0 xz delta 0 remap units box
Changing box ...
  triclinic box = (-0.017091462 -0.017091462 -0.017091462) to (6.0912805 9.1454573 12.19964) with tilt (0 0 0)
  triclinic box = (-0.017091462 -0.017091462 -0.017091462) to (6.0912805 9.1454573 12.19964) with tilt (0 0 0)
  triclinic box = (-0.017091462 -0.017091462 -0.017091462) to (6.0912805 9.1454573 12.19964) with tilt (0 0 0)
if "${dir} == 2" then    "change_box all y delta 0 ${delta} yz delta ${deltayz} remap units box"
if "${dir} == 3" then    "change_box all z delta 0 ${delta} remap units box"
if "${dir} == 4" then    "change_box all yz delta ${delta} remap units box"
if "${dir} == 5" then    "change_box all xz delta ${delta} remap units box"
if "${dir} == 6" then    "change_box all xy delta ${delta} remap units box"

# Relax atoms positions

minimize ${etol} ${ftol} ${maxiter} ${maxeval}
minimize 0 ${ftol} ${maxiter} ${maxeval}
minimize 0 1e-10 ${maxiter} ${maxeval}
minimize 0 1e-10 100 ${maxeval}
minimize 0 1e-10 100 1000
Neighbor list info ...
  update: every = 1 steps, delay = 0 steps, check = yes
  max neighbors/atom: 2000, page size: 100000
  master list distance cutoff = 6
  ghost atom cutoff = 6
  2 neighbor lists, perpetual/occasional/extra = 2 0 0
  (1) pair meam, perpetual
      attributes: full, newton on
      pair build: full/nsq
      stencil: none
      bin: none
  (2) pair meam, perpetual, half/full from (1)
      attributes: half, newton on
      pair build: halffull/newton
      stencil: none
      bin: none
Per MPI rank memory allocation (min/avg/max) = 9.769 | 9.77 | 9.772 Mbytes
   Step          Temp          PotEng         Press           Pxx            Pyy            Pzz            Pxy            Pxz            Pyz             Lx             Ly             Lz           Volume    
         1   0             -249.984       -1.2721147     -4.592546       0.38813985     0.38806188     5.3336537e-06  2.2688236e-06 -2.2186747e-06  6.108372       9.1625488      12.216732      683.74917    
         2   0             -249.984       -1.2721254     -4.592568       0.38813637     0.38805527     4.1644245e-06  6.1413316e-07 -1.1816994e-06  6.108372       9.1625488      12.216732      683.74917    
         3   0             -249.984       -1.2721402     -4.5925306      0.38818908     0.38792091    -1.1830574e-06 -2.5743669e-06 -1.7726056e-07  6.108372       9.1625488      12.216732      683.74917    
         4   0             -249.984       -1.2750726     -4.5851549      0.38886497     0.37107213    -0.00033183763 -0.00032651925  2.4594227e-05  6.108372       9.1625488      12.216732      683.74917    
         5   0             -249.98494     -11.022133      19.739855      2.5512561     -55.35751      -1.272679      -1.1098127      0.15073897     6.108372       9.1625488      12.216732      683.74917    
         6   0             -249.98776     -40.461046      92.480539      8.8017487     -222.66543     -5.4417667     -4.5314792      0.63027907     6.108372       9.1625488      12.216732      683.74917    
         7   0             -249.99243     -89.163716      210.27247      17.180846     -494.94447     -12.972776     -10.331289      1.4818748      6.108372       9.1625488      12.216732      683.74917    
         8   0             -249.99886     -156.2705       367.20006      23.920245     -859.93181     -24.25962      -18.534939      2.7737629      6.108372       9.1625488      12.216732      683.74917    
         9   0             -250.00695     -240.49172      555.09089      24.243222     -1300.8093     -39.548654     -29.127406      4.6284459      6.108372       9.1625488      12.216732      683.74917    
        10   0             -250.01691     -340.03349      763.13695      15.578225     -1798.8157     -58.808408     -42.089552      7.3743055      6.108372       9.1625488      12.216732      683.74917    
        11   0             -250.03087     -452.166        972.6411       15.065498     -2344.2046     -81.151166     -57.639356      12.438325      6.108372       9.1625488      12.216732      683.74917    
        12   0             -250.05467     -562.3955       1129.1866      101.97811     -2918.3512     -99.228249     -74.882068      22.790655      6.108372       9.1625488      12.216732      683.74917    
        13   0             -250.08226     -664.15562      1233.8334      238.12343     -3464.4237     -107.15692     -92.566848      33.843606      6.108372       9.1625488      12.216732      683.74917    
        14   0             -250.11194     -781.56621      1323.5113      357.96859     -4026.1785     -111.26308     -115.21163      44.878346      6.108372       9.1625488      12.216732      683.74917    
        15   0             -250.14469     -918.05128      1379.0525      458.83279     -4592.0391     -112.85487     -145.00956      57.472768      6.108372       9.1625488      12.216732      683.74917    
        16   0             -250.18163     -1076.2018      1375.8273      547.56962     -5152.0024     -112.31318     -184.52666      73.331564      6.108372       9.1625488      12.216732      683.74917    
        17   0             -250.2242      -1260.8121      1283.6668      635.34362     -5701.4467     -109.92037     -237.34928      94.648605      6.108372       9.1625488      12.216732      683.74917    
        18   0             -250.27455     -1480.4246      1061.4538      739.14026     -6241.8678     -106.02343     -308.74471      124.72101      6.108372       9.1625488      12.216732      683.74917    
        19   0             -250.32828     -1715.3654      707.63738      869.7035      -6723.4372     -101.92055     -393.6688       162.99899      6.108372       9.1625488      12.216732      683.74917    
        20   0             -250.38085     -1945.2217      270.18098      1027.7764     -7133.6226     -98.839761     -482.69973      206.31839      6.108372       9.1625488      12.216732      683.74917    
        21   0             -250.43178     -2166.8416     -208.92361      1207.624      -7499.2253     -97.094577     -571.5555       252.75115      6.108372       9.1625488      12.216732      683.74917    
        22   0             -250.48218     -2383.8977     -704.70521      1403.479      -7850.4668     -96.636756     -659.48999      301.58453      6.108372       9.1625488      12.216732      683.74917    
        23   0             -250.53266     -2597.7413     -1194.4831      1609.1569     -8207.8977     -97.409314     -745.62216      351.76268      6.108372       9.1625488      12.216732      683.74917    
        24   0             -250.58115     -2798.5757     -1638.8445      1811.4447     -8568.3275     -99.287131     -825.0777       399.42469      6.108372       9.1625488      12.216732      683.74917    
        25   0             -250.62807     -2987.474      -2030.9178      2007.9853     -8939.4894     -102.12424     -897.93768      442.94664      6.108372       9.1625488      12.216732      683.74917    
        26   0             -250.67379     -3165.1861     -2369.6717      2199.0878     -9324.9744     -105.83445     -964.29994      480.14194      6.108372       9.1625488      12.216732      683.74917    
        27   0             -250.7185      -3331.7821     -2660.1391      2389.1593     -9724.3665     -110.39236     -1023.7603      507.67326      6.108372       9.1625488      12.216732      683.74917    
        28   0             -250.76122     -3483.187      -2910.4082      2583.1409     -10122.294     -115.67049     -1074.0153      520.3972       6.108372       9.1625488      12.216732      683.74917    
        29   0             -250.80028     -3613.9909     -3136.3838      2785.5894     -10491.178     -121.34878     -1112.2419      513.83769      6.108372       9.1625488      12.216732      683.74917    
        30   0             -250.83288     -3716.6959     -3346.7634      2988.04       -10791.364     -126.70167     -1136.1966      489.19272      6.108372       9.1625488      12.216732      683.74917    
        31   0             -250.86145     -3801.1421     -3562.7952      3196.4434     -11037.074     -131.67318     -1149.7622      450.41673      6.108372       9.1625488      12.216732      683.74917    
        32   0             -250.88764     -3873.5959     -3797.0598      3415.106      -11238.834     -136.2132      -1155.2646      400.49072      6.108372       9.1625488      12.216732      683.74917    
        33   0             -250.9127      -3938.3974     -4059.9051      3648.5619     -11403.849     -140.24169     -1154.1195      341.68695      6.108372       9.1625488      12.216732      683.74917    
        34   0             -250.9377      -3998.9266     -4363.6254      3902.9861     -11536.141     -143.62051     -1147.15        275.77134      6.108372       9.1625488      12.216732      683.74917    
        35   0             -250.96371     -4058.2212     -4725.3713      4187.1553     -11636.447     -146.11906     -1134.7474      204.22304      6.108372       9.1625488      12.216732      683.74917    
        36   0             -250.99171     -4118.8212     -5164.9102      4510.0737     -11701.627     -147.358       -1117.1135      129.23024      6.108372       9.1625488      12.216732      683.74917    
        37   0             -251.01853     -4174.4152     -5629.6718      4832.0774     -11725.651     -146.89424     -1097.5399      63.501509      6.108372       9.1625488      12.216732      683.74917    
        38   0             -251.04508     -4227.2964     -6116.4308      5153.926      -11719.385     -144.88777     -1076.9085      7.0622936      6.108372       9.1625488      12.216732      683.74917    
        39   0             -251.07036     -4275.4277     -6588.733       5455.9711     -11693.521     -141.66104     -1056.7559     -37.632493      6.108372       9.1625488      12.216732      683.74917    
        40   0             -251.09461     -4319.078      -7034.8803      5735.2554     -11657.609     -137.51457     -1037.1351     -72.112855      6.108372       9.1625488      12.216732      683.74917    
        41   0             -251.11802     -4358.2912     -7447.3465      5990.5989     -11618.126     -132.64747     -1017.7677     -97.990465      6.108372       9.1625488      12.216732      683.74917    
        42   0             -251.14069     -4392.9109     -7821.1226      6221.4875     -11579.098     -127.17805     -998.24605     -116.67088      6.108372       9.1625488      12.216732      683.74917    
        43   0             -251.16269     -4422.7215     -8154.2748      6428.5123     -11542.402     -121.14772     -978.06209     -129.33532      6.108372       9.1625488      12.216732      683.74917    
        44   0             -251.18404     -4447.5701     -8448.3587      6613.5464     -11507.898     -114.5297      -956.57941     -136.95319      6.108372       9.1625488      12.216732      683.74917    
        45   0             -251.20479     -4467.4623     -8708.7741      6779.8183     -11473.431     -107.22581     -932.96449     -140.2877       6.108372       9.1625488      12.216732      683.74917    
        46   0             -251.22504     -4482.6731     -8945.2093      6931.9248     -11434.735     -99.046596     -906.05231     -139.89027      6.108372       9.1625488      12.216732      683.74917    
        47   0             -251.24494     -4493.9429     -9172.413       7075.6319     -11385.048     -89.667693     -874.07351     -136.08593      6.108372       9.1625488      12.216732      683.74917    
        48   0             -251.2648      -4502.9288     -9412.0804      7217.0952     -11313.801     -78.52408      -834.04387     -128.91486      6.108372       9.1625488      12.216732      683.74917    
        49   0             -251.2835      -4512.9021     -9675.3187      7349.6134     -11213.001     -65.791153     -784.97812     -118.98787      6.108372       9.1625488      12.216732      683.74917    
        50   0             -251.2983      -4527.6224     -9934.9786      7447.4713     -11095.36      -53.653667     -733.93796     -108.8845       6.108372       9.1625488      12.216732      683.74917    
        51   0             -251.31017     -4549.0708     -10184.925      7499.8826     -10962.17      -42.342307     -682.26137     -99.26252       6.108372       9.1625488      12.216732      683.74917    
        52   0             -251.31977     -4577.8968     -10414.085      7493.7651     -10813.37      -32.002329     -631.48755     -90.148169      6.108372       9.1625488      12.216732      683.74917    
        53   0             -251.32765     -4614.1618     -10607.981      7414.0223     -10648.526     -22.739278     -583.29668     -81.278371      6.108372       9.1625488      12.216732      683.74917    
        54   0             -251.33439     -4657.603      -10747.544      7241.3038     -10466.568     -14.861157     -539.8257      -72.61529       6.108372       9.1625488      12.216732      683.74917    
        55   0             -251.34025     -4702.1279     -10802.056      6979.3516     -10283.679     -9.2583625     -506.39013     -64.405978      6.108372       9.1625488      12.216732      683.74917    
        56   0             -251.34487     -4733.2265     -10777.939      6721.7039     -10143.444     -6.2457333     -481.9401      -57.515926      6.108372       9.1625488      12.216732      683.74917    
        57   0             -251.3491      -4756.3064     -10724.76       6470.0515     -10014.21      -4.2363266     -454.42292     -51.357007      6.108372       9.1625488      12.216732      683.74917    
        58   0             -251.35313     -4775.5569     -10667.893      6216.5745     -9875.3521     -2.6969113     -415.79493     -45.845687      6.108372       9.1625488      12.216732      683.74917    
        59   0             -251.35688     -4793.9502     -10621.523      5954.3542     -9714.6816     -1.4721333     -359.82723     -40.743785      6.108372       9.1625488      12.216732      683.74917    
        60   0             -251.36016     -4814.1969     -10594.531      5680.0187     -9528.0787     -0.52743441    -280.10777     -35.696892      6.108372       9.1625488      12.216732      683.74917    
        61   0             -251.36269     -4839.8836     -10594.506      5396.7703     -9321.915       0.093749791   -168.45491     -30.119018      6.108372       9.1625488      12.216732      683.74917    
        62   0             -251.36399     -4877.8675     -10631.839      5122.9519     -9124.716       0.2178069     -5.807699      -22.340977      6.108372       9.1625488      12.216732      683.74917    
        63   0             -251.36403     -4878.4506     -10639.16       5157.4271     -9153.6188      0.098777751   -0.95403075    -19.357111      6.108372       9.1625488      12.216732      683.74917    
        64   0             -251.36405     -4877.0916     -10633.912      5154.2589     -9151.6218      0.039128456    6.7830705     -17.010329      6.108372       9.1625488      12.216732      683.74917    
        65   0             -251.36407     -4873.3784     -10613.166      5097.502      -9104.4709     -0.014567822    0.65515809    -12.637733      6.108372       9.1625488      12.216732      683.74917    
        66   0             -251.36416     -4895.2429     -10582.471      5033.1086     -9136.3667     -0.2213544     -26.731411      2.2665492      6.108372       9.1625488      12.216732      683.74917    
        67   0             -251.36453     -4933.8219     -10489.489      4706.3179     -9018.2942     -0.36228889    -29.15797       33.783641      6.108372       9.1625488      12.216732      683.74917    
        68   0             -251.36528     -4960.8514     -10318.656      4070.0121     -8633.9098     -0.66973947    -5.9989304      67.978818      6.108372       9.1625488      12.216732      683.74917    
        69   0             -251.36622     -5019.9824     -10087.47       3435.3124     -8407.7899     -0.79509243     13.765552      106.68167      6.108372       9.1625488      12.216732      683.74917    
        70   0             -251.36729     -5118.8717     -9846.9964      2675.5048     -8185.1235     -0.68179421     6.2510828      154.64543      6.108372       9.1625488      12.216732      683.74917    
        71   0             -251.36849     -5214.0856     -9529.4243      1657.2466     -7770.0792     -0.55082737     8.3132592      205.22165      6.108372       9.1625488      12.216732      683.74917    
        72   0             -251.36909     -5239.5805     -9257.7287      801.529       -7262.5419     -0.97591416    -4.1091688      240.15669      6.108372       9.1625488      12.216732      683.74917    
        73   0             -251.37001     -5340.9239     -8903.9744     -417.16586     -6701.6316     -0.77741435    -16.268282      305.89544      6.108372       9.1625488      12.216732      683.74917    
        74   0             -251.37124     -5508.9786     -8779.86       -1092.72       -6654.3557      0.87981544     5.684851       365.01855      6.108372       9.1625488      12.216732      683.74917    
        75   0             -251.37205     -5664.9851     -8474.437      -2305.7411     -6214.7772      0.3766017     -3.8190888      428.2993       6.108372       9.1625488      12.216732      683.74917    
        76   0             -251.37316     -5758.0527     -7996.7031     -3865.1584     -5412.2965     -0.8655081     -19.467397      489.77799      6.108372       9.1625488      12.216732      683.74917    
        77   0             -251.3736      -5840.9636     -7817.9958     -4638.8667     -5066.0283      0.65271157     26.149144      527.84766      6.108372       9.1625488      12.216732      683.74917    
        78   0             -251.37393     -5962.9663     -7758.5754     -5256.7851     -4873.5382      0.99643477     14.46288       556.12982      6.108372       9.1625488      12.216732      683.74917    
        79   0             -251.37438     -6099.5325     -7688.1281     -5975.4126     -4635.0568     -0.34927506    -19.474995      571.99826      6.108372       9.1625488      12.216732      683.74917    
        80   0             -251.37514     -6240.7816     -7634.9943     -6790.1888     -4297.1618     -0.91282744    -18.185705      582.3208       6.108372       9.1625488      12.216732      683.74917    
        81   0             -251.37603     -6288.5071     -7730.3295     -6930.2825     -4204.9094      0.31572864     8.4158224      558.43995      6.108372       9.1625488      12.216732      683.74917    
        82   0             -251.37728     -6341.5346     -7909.5967     -6847.6128     -4267.3943      0.35636618     12.253722      512.4833       6.108372       9.1625488      12.216732      683.74917    
        83   0             -251.37827     -6374.6712     -8093.9198     -6505.3213     -4524.7725      0.58310966    -21.205371      454.85622      6.108372       9.1625488      12.216732      683.74917    
        84   0             -251.37978     -6422.6437     -8343.0671     -6174.676      -4750.188       0.71802762    -15.842758      379.80854      6.108372       9.1625488      12.216732      683.74917    
        85   0             -251.381       -6446.5404     -8458.8813     -6176.009      -4704.7307     -1.8746258      21.689984      349.41066      6.108372       9.1625488      12.216732      683.74917    
        86   0             -251.3823      -6504.7055     -8661.6878     -6051.2142     -4801.2144     -1.5036881      9.8657812      296.8139       6.108372       9.1625488      12.216732      683.74917    
        87   0             -251.3833      -6569.8422     -8832.9007     -5860.6296     -5015.9964      2.1007117     -15.056389      251.28153      6.108372       9.1625488      12.216732      683.74917    
        88   0             -251.38458     -6670.6393     -9075.2194     -5766.7853     -5169.9133      1.3660927     -1.9447793      196.45915      6.108372       9.1625488      12.216732      683.74917    
        89   0             -251.38529     -6707.1554     -9163.8409     -5846.2991     -5111.3262     -1.7311013      6.2753937      189.05196      6.108372       9.1625488      12.216732      683.74917    
        90   0             -251.38633     -6811.5648     -9400.3985     -5814.6324     -5219.6636     -0.3301354     -7.7513543      155.53243      6.108372       9.1625488      12.216732      683.74917    
        91   0             -251.38677     -6868.8852     -9512.2426     -5725.9027     -5368.5102      1.2474608      4.7865843      132.09569      6.108372       9.1625488      12.216732      683.74917    
        92   0             -251.38745     -6998.8991     -9744.7883     -5722.4916     -5529.4173     -2.0938217      4.073389       108.47135      6.108372       9.1625488      12.216732      683.74917    
        93   0             -251.38771     -7020.6912     -9836.2428     -5729.3007     -5496.53        0.79366165     1.3345071      105.58578      6.108372       9.1625488      12.216732      683.74917    
        94   0             -251.38787     -7086.1057     -9920.3662     -5761.1474     -5576.8034      0.80982529    -14.606392      101.70561      6.108372       9.1625488      12.216732      683.74917    
        95   0             -251.38809     -7195.1815     -10115.074     -5722.7685     -5747.702       1.7862354      1.3208684      79.735055      6.108372       9.1625488      12.216732      683.74917    
        96   0             -251.38814     -7224.2756     -10172.898     -5714.3654     -5785.5636      0.12884801     1.5569338      75.74763       6.108372       9.1625488      12.216732      683.74917    
        97   0             -251.38815     -7225.5665     -10171.392     -5718.9679     -5786.3393     -0.2664679      0.76911365     75.905428      6.108372       9.1625488      12.216732      683.74917    
        98   0             -251.38815     -7223.4592     -10160.792     -5729.9567     -5779.6287      0.13680317    -2.4710282      74.189703      6.108372       9.1625488      12.216732      683.74917    
        99   0             -251.38816     -7231.4936     -10131.059     -5755.8313     -5807.5908      0.12049988     1.0746583      65.075041      6.108372       9.1625488      12.216732      683.74917    
       100   0             -251.38817     -7238.6641     -10124.4       -5770.2382     -5821.3547      0.16148092     0.14262517     62.285521      6.108372       9.1625488      12.216732      683.74917    
       101   0             -251.38817     -7240.5383     -10122.518     -5783.6698     -5815.4269     -0.10022105    -0.19095738     57.417196      6.108372       9.1625488      12.216732      683.74917    
Loop time of 0.0163753 on 4 procs for 100 steps with 48 atoms

95.4% CPU use with 4 MPI tasks x 1 OpenMP threads

Minimization stats:
  Stopping criterion = max iterations
  Energy initial, next-to-last, final = 
     -249.983999990681  -251.388167254036  -251.388169356617
  Force two-norm initial, final = 0.00037093549 0.0031522068
  Force max component initial, final = 8.6140482e-05 0.00085914932
  Final line search alpha, max atom move = 1 0.00085914932
  Iterations, force evaluations = 100 124

MPI task timing breakdown:
Section |  min time  |  avg time  |  max time  |%varavg| %total
---------------------------------------------------------------
Pair    | 0.012838   | 0.013401   | 0.013927   |   0.3 | 81.84
Neigh   | 0          | 0          | 0          |   0.0 |  0.00
Comm    | 0.000812   | 0.0013395  | 0.001908   |   1.1 |  8.18
Output  | 0.000895   | 0.00093    | 0.001018   |   0.0 |  5.68
Modify  | 0          | 0          | 0          |   0.0 |  0.00
Other   |            | 0.0007045  |            |       |  4.30

Nlocal:             12 ave          14 max          10 min
Histogram: 1 0 0 0 0 2 0 0 0 1
Nghost:            293 ave         295 max         291 min
Histogram: 1 0 0 0 0 2 0 0 0 1
Neighs:            348 ave         402 max         279 min
Histogram: 1 0 0 0 0 1 1 0 0 1
FullNghs:          696 ave         812 max         580 min
Histogram: 1 0 0 0 0 2 0 0 0 1

Total # of neighbors = 2784
Ave neighs/atom = 58
Neighbor list builds = 0
Dangerous builds = 0

# Obtain new stress tensor

variable tmp equal pe
variable e1 equal ${tmp}
variable e1 equal -251.388169356617
variable tmp equal press
variable p1 equal ${tmp}
variable p1 equal -7240.53827479156
variable tmp equal pxx
variable pxx1 equal ${tmp}
variable pxx1 equal -10122.5181093327
variable tmp equal pyy
variable pyy1 equal ${tmp}
variable pyy1 equal -5783.66982100653
variable tmp equal pzz
variable pzz1 equal ${tmp}
variable pzz1 equal -5815.42689403542
variable tmp equal pxy
variable pxy1 equal ${tmp}
variable pxy1 equal -0.10022105261329
variable tmp equal pxz
variable pxz1 equal ${tmp}
variable pxz1 equal -0.190957376542324
variable tmp equal pyz
variable pyz1 equal ${tmp}
variable pyz1 equal 57.4171961405568

# Compute elastic constant from pressure tensor

variable C1pos equal ${d1}
variable C1pos equal 1012251.81093323
variable C2pos equal ${d2}
variable C2pos equal 578366.982100694
variable C3pos equal ${d3}
variable C3pos equal 581542.689403479
variable C4pos equal ${d4}
variable C4pos equal -5741.71961405443
variable C5pos equal ${d5}
variable C5pos equal 19.0957376574615
variable C6pos equal ${d6}
variable C6pos equal 10.0221052615322

# Combine positive and negative

variable C1${dir} equal 0.5*(${C1neg}+${C1pos})
variable C11 equal 0.5*(${C1neg}+${C1pos})
variable C11 equal 0.5*(-1012155.85356023+${C1pos})
variable C11 equal 0.5*(-1012155.85356023+1012251.81093323)
variable C2${dir} equal 0.5*(${C2neg}+${C2pos})
variable C21 equal 0.5*(${C2neg}+${C2pos})
variable C21 equal 0.5*(-578635.604563024+${C2pos})
variable C21 equal 0.5*(-578635.604563024+578366.982100694)
variable C3${dir} equal 0.5*(${C3neg}+${C3pos})
variable C31 equal 0.5*(${C3neg}+${C3pos})
variable C31 equal 0.5*(-581348.641017772+${C3pos})
variable C31 equal 0.5*(-581348.641017772+581542.689403479)
variable C4${dir} equal 0.5*(${C4neg}+${C4pos})
variable C41 equal 0.5*(${C4neg}+${C4pos})
variable C41 equal 0.5*(4938.18122166569+${C4pos})
variable C41 equal 0.5*(4938.18122166569+-5741.71961405443)
variable C5${dir} equal 0.5*(${C5neg}+${C5pos})
variable C51 equal 0.5*(${C5neg}+${C5pos})
variable C51 equal 0.5*(36.8530435433478+${C5pos})
variable C51 equal 0.5*(36.8530435433478+19.0957376574615)
variable C6${dir} equal 0.5*(${C6neg}+${C6pos})
variable C61 equal 0.5*(${C6neg}+${C6pos})
variable C61 equal 0.5*(2.48103826328321+${C6pos})
variable C61 equal 0.5*(2.48103826328321+10.0221052615322)

# Delete dir to make sure it is not reused

variable dir delete

# uyy Perturbation

variable dir equal 2
include displace.mod
# NOTE: This script should not need to be
# modified. See in.elastic for more info.
#
# Find which reference length to use

if "${dir} == 1" then    "variable len0 equal ${lx0}"
if "${dir} == 2" then    "variable len0 equal ${ly0}"
variable len0 equal ${ly0}
variable len0 equal 9.1625487699538
if "${dir} == 3" then    "variable len0 equal ${lz0}"
if "${dir} == 4" then    "variable len0 equal ${lz0}"
if "${dir} == 5" then    "variable len0 equal ${lz0}"
if "${dir} == 6" then    "variable len0 equal ${ly0}"

# Reset box and simulation parameters

clear
  using 1 OpenMP thread(s) per MPI task
Loaded 1 plugins from C:\Program Files\LAMMPS 64-bit 23Jun2022\plugins
Loaded 0 plugins from C:\Program Files\LAMMPS 64-bit 23Jun2022-MPI\plugins
Loaded 1 plugins from C:\Program Files\LAMMPS 64-bit 22Dec2022-MSMPI\plugins
Loaded 1 plugins from C:\Program Files\LAMMPS 64-bit 28Mar2023-MPI\plugins
box tilt large

The 'box' command has been removed and will be ignored

read_restart restart.equil
Reading restart file ...
  restart file = 22 Dec 2022, LAMMPS = 22 Dec 2022
  restoring atom style atomic from restart
  triclinic box = (-0.017091462 -0.017091462 -0.017091462) to (6.0912744 9.1454573 12.19964) with tilt (0 0 0)
  1 by 2 by 2 MPI processor grid
  pair style meam stores no restart info
  48 atoms
  read_restart CPU = 0.000 seconds
include potential.mod
# NOTE: This script can be modified for different pair styles
# See in.elastic for more info.

# Choose potential
#-----------------------
#pair_style	sw
#pair_coeff * * Si.sw Si
#-----------------------
#pair_style morse	2.83994742	# D0[eV] a[1/A] r0[A] rc[A], 1NN for BCC
#pair_coeff 1 1	2.1173	1.0202	2.4595	2.6497	#	Fe-Fe
#-----------------------
#pair_style smatb # R0(A)   p       q     A(eV)   xi(eV)  Rcs(A)   Rc(A), 4NN: Rcs=4NN, Rc=(4NN+5NN)/2
#pair_coeff 1 1	2.4802	7.0149	2.3779	0.3144	3.0551	4.033	4.176	#	Co	Co
#-----------------------
#pair_style eam/alloy
#pair_coeff * * AlCrFeCoNi_Zhou04.eam.alloy Fe
#-----------------------
pair_style meam
pair_coeff * * ./../../library.meam Ti V N ./../../TiVN.meam Ti V
#-----------------------

# Setup neighbor style
neighbor 1.0 nsq
neigh_modify once no every 1 delay 0 check yes

# Setup minimization style
min_style	     cg
min_modify	     dmax ${dmax} line quadratic
min_modify	     dmax 0.01 line quadratic

# Setup output
thermo		1
thermo_style custom step temp pe press pxx pyy pzz pxy pxz pyz lx ly lz vol
thermo_modify norm no

# Negative deformation

variable delta equal -${up}*${len0}
variable delta equal -1e-06*${len0}
variable delta equal -1e-06*9.1625487699538
variable deltaxy equal -${up}*xy
variable deltaxy equal -1e-06*xy
variable deltaxz equal -${up}*xz
variable deltaxz equal -1e-06*xz
variable deltayz equal -${up}*yz
variable deltayz equal -1e-06*yz
if "${dir} == 1" then    "change_box all x delta 0 ${delta} xy delta ${deltaxy} xz delta ${deltaxz} remap units box"
if "${dir} == 2" then    "change_box all y delta 0 ${delta} yz delta ${deltayz} remap units box"
change_box all y delta 0 ${delta} yz delta ${deltayz} remap units box
change_box all y delta 0 -9.1625487699538e-06 yz delta ${deltayz} remap units box
change_box all y delta 0 -9.1625487699538e-06 yz delta -0 remap units box
Changing box ...
  triclinic box = (-0.017091462 -0.017091462 -0.017091462) to (6.0912744 9.1454481 12.19964) with tilt (0 0 0)
  triclinic box = (-0.017091462 -0.017091462 -0.017091462) to (6.0912744 9.1454481 12.19964) with tilt (0 0 0)
if "${dir} == 3" then    "change_box all z delta 0 ${delta} remap units box"
if "${dir} == 4" then    "change_box all yz delta ${delta} remap units box"
if "${dir} == 5" then    "change_box all xz delta ${delta} remap units box"
if "${dir} == 6" then    "change_box all xy delta ${delta} remap units box"

# Relax atoms positions

minimize ${etol} ${ftol} ${maxiter} ${maxeval}
minimize 0 ${ftol} ${maxiter} ${maxeval}
minimize 0 1e-10 ${maxiter} ${maxeval}
minimize 0 1e-10 100 ${maxeval}
minimize 0 1e-10 100 1000
Neighbor list info ...
  update: every = 1 steps, delay = 0 steps, check = yes
  max neighbors/atom: 2000, page size: 100000
  master list distance cutoff = 6
  ghost atom cutoff = 6
  2 neighbor lists, perpetual/occasional/extra = 2 0 0
  (1) pair meam, perpetual
      attributes: full, newton on
      pair build: full/nsq
      stencil: none
      bin: none
  (2) pair meam, perpetual, half/full from (1)
      attributes: half, newton on
      pair build: halffull/newton
      stencil: none
      bin: none
Per MPI rank memory allocation (min/avg/max) = 9.769 | 9.77 | 9.772 Mbytes
   Step          Temp          PotEng         Press           Pxx            Pyy            Pzz            Pxy            Pxz            Pyz             Lx             Ly             Lz           Volume    
         1   0             -249.984        1.2721027     -0.388096       4.5925959     -0.38819184     5.333609e-06   2.2689687e-06 -2.2187218e-06  6.1083658      9.1625396      12.216732      683.7478     
         2   0             -249.984        1.272092      -0.38811801     4.5925924     -0.38819845     4.1643781e-06  6.1412116e-07 -1.1816389e-06  6.1083658      9.1625396      12.216732      683.7478     
         3   0             -249.984        1.2720772     -0.38808064     4.5926451     -0.38833278    -1.1830844e-06 -2.5743609e-06 -1.7730457e-07  6.1083658      9.1625396      12.216732      683.7478     
         4   0             -249.984        1.2691452     -0.38070721     4.5933199     -0.40517698    -0.00033180235 -0.0003264904   2.4606743e-05  6.1083658      9.1625396      12.216732      683.7478     
         5   0             -249.98494     -8.4750257      23.933327      6.7518303     -56.110234     -1.272329      -1.1095446      0.15076032     6.1083658      9.1625396      12.216732      683.7478     
         6   0             -249.98776     -37.911392      96.656513      12.992254     -223.38294     -5.4410966     -4.5310937      0.63047025     6.1083658      9.1625396      12.216732      683.7478     
         7   0             -249.99243     -86.611934      214.42513      21.355757     -495.61669     -12.971803     -10.330945      1.4824023      6.1083658      9.1625396      12.216732      683.7478     
         8   0             -249.99886     -153.71706      371.3243       28.074714     -860.5502      -24.258363     -18.534796      2.774808       6.1083658      9.1625396      12.216732      683.7478     
         9   0             -250.00695     -237.93712      559.18234      28.372991     -1301.3667     -39.547155     -29.127624      4.6301939      6.1083658      9.1625396      12.216732      683.7478     
        10   0             -250.01691     -337.47821      767.19191      19.67887      -1799.3054     -58.806751     -42.090278      7.3769043      6.1083658      9.1625396      12.216732      683.7478     
        11   0             -250.03087     -449.61011      976.65599      19.127971     -2344.6143     -81.149622     -57.640685      12.441668      6.1083658      9.1625396      12.216732      683.7478     
        12   0             -250.05467     -559.84137      1133.1605      105.99248     -2918.6771     -99.228514     -74.884665      22.794843      6.1083658      9.1625396      12.216732      683.7478     
        13   0             -250.08226     -661.59825      1237.7508      242.10512     -3464.6506     -107.15814     -92.570095      33.849065      6.1083658      9.1625396      12.216732      683.7478     
        14   0             -250.11194     -779.00496      1327.3642      361.91867     -4026.2977     -111.26486     -115.21543      44.885153      6.1083658      9.1625396      12.216732      683.7478     
        15   0             -250.14469     -915.48656      1382.8342      462.74987     -4592.0438     -112.85715     -145.014        57.481074      6.1083658      9.1625396      12.216732      683.7478     
        16   0             -250.18163     -1073.6341      1379.5303      551.45326     -5151.8859     -112.31589     -184.53178      73.341628      6.1083658      9.1625396      12.216732      683.7478     
        17   0             -250.2242      -1258.242       1287.282       639.19441     -5701.2024     -109.92343     -237.35506      94.660811      6.1083658      9.1625396      12.216732      683.7478     
        18   0             -250.27455     -1477.8528      1064.971       742.95963     -6241.4889     -106.02672     -308.75095      124.73587      6.1083658      9.1625396      12.216732      683.7478     
        19   0             -250.32828     -1712.7919      711.06115      873.49618     -6722.9332     -101.92387     -393.67469      163.01663      6.1083658      9.1625396      12.216732      683.7478     
        20   0             -250.38085     -1942.6477      273.52451      1031.5477     -7133.0152     -98.842922     -482.70483      206.33884      6.1083658      9.1625396      12.216732      683.7478     
        21   0             -250.43178     -2164.2689     -205.65023      1211.3773     -7498.5337     -97.097419     -571.56005      252.77475      6.1083658      9.1625396      12.216732      683.7478     
        22   0             -250.48219     -2381.3273     -701.49472      1407.2157     -7849.7028     -96.639204     -659.49422      301.61172      6.1083658      9.1625396      12.216732      683.7478     
        23   0             -250.53267     -2595.1723     -1191.3264      1612.8756     -8207.0661     -97.411348     -745.62564      351.79358      6.1083658      9.1625396      12.216732      683.7478     
        24   0             -250.58115     -2796.0078     -1635.7339      1815.1452     -8567.4348     -99.288773     -825.08049      399.45953      6.1083658      9.1625396      12.216732      683.7478     
        25   0             -250.62807     -2984.9066     -2027.8474      2011.667      -8938.5395     -102.12552     -897.93985      442.98566      6.1083658      9.1625396      12.216732      683.7478     
        26   0             -250.67379     -3162.6188     -2366.6371      2202.7503     -9323.9695     -105.83542     -964.30155      480.18539      6.1083658      9.1625396      12.216732      683.7478     
[...]
        63   0             -251.36404     -4877.357      -10637.392      5158.3346     -9153.0138     -0.31003675    -0.98135999    -19.350918      6.1083658      9.1625488      12.216732      683.74848    
        64   0             -251.36406     -4876.026      -10632.168      5154.8605     -9150.7709     -0.36961625     6.8611538     -17.01228       6.1083658      9.1625488      12.216732      683.74848    
        65   0             -251.36408     -4872.3271     -10611.582      5098.2736     -9103.6729     -0.42292736     0.79643367    -12.687647      6.1083658      9.1625488      12.216732      683.74848    
        66   0             -251.36417     -4893.9925     -10581.151      5035.0608     -9135.8872     -0.62728115    -26.549088      2.0657179      6.1083658      9.1625488      12.216732      683.74848    
        67   0             -251.36453     -4932.4128     -10488.497      4709.5006     -9018.2425     -0.76662106    -29.118331      33.496944      6.1083658      9.1625488      12.216732      683.74848    
        68   0             -251.36528     -4959.6047     -10318.189      4076.0069     -8636.6316     -1.0753564     -6.8898072      67.685938      6.1083658      9.1625488      12.216732      683.74848    
        69   0             -251.36622     -5018.6172     -10087.325      3442.6742     -8411.2003     -1.1912637      13.775985      106.27038      6.1083658      9.1625488      12.216732      683.74848    
        70   0             -251.36729     -5116.7294     -9845.1244      2676.0746     -8181.1384     -1.1074425      6.0032889      154.27481      6.1083658      9.1625488      12.216732      683.74848    
        71   0             -251.36849     -5211.8515     -9527.8537      1657.2392     -7764.9399     -0.96548195     9.3640051      204.89116      6.1083658      9.1625488      12.216732      683.74848    
        72   0             -251.3691      -5240.0379     -9249.5311      783.87045     -7254.453      -1.3722031     -4.6157245      241.11091      6.1083658      9.1625488      12.216732      683.74848    
        73   0             -251.37003     -5342.194      -8896.1837     -432.54053     -6697.8577     -1.2330156     -18.658287      306.92645      6.1083658      9.1625488      12.216732      683.74848    
        74   0             -251.37121     -5499.9671     -8790.7962     -1041.1712     -6667.934       0.42064662     3.6661706      362.12331      6.1083658      9.1625488      12.216732      683.74848    
        75   0             -251.37199     -5654.0127     -8493.8583     -2220.5224     -6247.6575     -0.010797241   -2.1793936      424.34527      6.1083658      9.1625488      12.216732      683.74848    
        76   0             -251.37312     -5754.6339     -8034.7513     -3742.9524     -5486.1979     -1.128967      -17.203474      486.45836      6.1083658      9.1625488      12.216732      683.74848    
        77   0             -251.37349     -5798.0731     -7934.8682     -4179.5457     -5279.8054      0.3130408      21.693928      507.95456      6.1083658      9.1625488      12.216732      683.74848    
        78   0             -251.37378     -5887.2554     -7881.7719     -4668.9413     -5111.0531      0.39457021     10.701017      527.58714      6.1083658      9.1625488      12.216732      683.74848    
        79   0             -251.37441     -6043.8504     -7786.0426     -5514.4575     -4831.0512     -0.56722805    -23.502473      549.42338      6.1083658      9.1625488      12.216732      683.74848    
        80   0             -251.37543     -6189.5644     -7720.2532     -6352.2616     -4496.1785     -0.52177759    -16.440918      567.4704       6.1083658      9.1625488      12.216732      683.74848    
        81   0             -251.37618     -6213.0089     -7806.4129     -6414.8587     -4417.7551     -0.30322815     11.133845      543.70376      6.1083658      9.1625488      12.216732      683.74848    
        82   0             -251.37729     -6252.0953     -7955.8989     -6340.4506     -4459.9365     -0.92343131     17.697389      502.11493      6.1083658      9.1625488      12.216732      683.74848    
        83   0             -251.37829     -6296.6276     -8103.2067     -6111.81       -4674.866       0.23888101    -12.600522      451.84233      6.1083658      9.1625488      12.216732      683.74848    
        84   0             -251.37973     -6373.9795     -8343.3327     -5909.8782     -4868.7276      1.6541713     -13.657473      376.8032       6.1083658      9.1625488      12.216732      683.74848    
        85   0             -251.3811      -6413.3483     -8485.7109     -5938.9012     -4815.4326     -2.2394625      18.686051      341.7719       6.1083658      9.1625488      12.216732      683.74848    
        86   0             -251.38249     -6479.7063     -8680.2758     -5870.3374     -4888.5056     -1.9098419      2.34977        290.89483      6.1083658      9.1625488      12.216732      683.74848    
        87   0             -251.38337     -6565.4009     -8866.4505     -5720.1111     -5109.641       2.3012583     -10.649981      236.34226      6.1083658      9.1625488      12.216732      683.74848    
        88   0             -251.38462     -6668.1988     -9088.9314     -5690.5974     -5225.0677      2.0767791     -2.4162401      184.66545      6.1083658      9.1625488      12.216732      683.74848    
        89   0             -251.38528     -6689.1629     -9152.2947     -5779.3962     -5135.7977     -1.8710175      5.844726       186.14955      6.1083658      9.1625488      12.216732      683.74848    
        90   0             -251.38635     -6800.5701     -9392.1661     -5771.1834     -5238.3608     -0.24223489    -11.699176      152.92581      6.1083658      9.1625488      12.216732      683.74848    
        91   0             -251.38686     -6889.9056     -9554.7707     -5705.3615     -5409.5846      0.1384748      15.650573      118.40756      6.1083658      9.1625488      12.216732      683.74848    
        92   0             -251.38749     -7026.4502     -9789.2907     -5711.0943     -5578.9656     -1.267387       5.8047765      96.321233      6.1083658      9.1625488      12.216732      683.74848    
        93   0             -251.3878      -7043.077      -9877.0481     -5719.7002     -5532.4828     -1.0172742      0.79681588     95.990211      6.1083658      9.1625488      12.216732      683.74848    
        94   0             -251.38791     -7082.7564     -9925.2054     -5748.2618     -5574.8019      1.0090815     -9.068382       97.490783      6.1083658      9.1625488      12.216732      683.74848    
        95   0             -251.38809     -7179.6772     -10087.765     -5723.4033     -5727.863       1.0968609      2.1856114      81.229695      6.1083658      9.1625488      12.216732      683.74848    
        96   0             -251.38814     -7217.5313     -10157.287     -5714.9657     -5780.3416     -0.27435632    -0.39334495     76.383584      6.1083658      9.1625488      12.216732      683.74848    
        97   0             -251.38815     -7222.0232     -10161.207     -5721.6695     -5783.1931     -0.49610068     0.30497061     76.072469      6.1083658      9.1625488      12.216732      683.74848    
        98   0             -251.38816     -7221.2356     -10160.44      -5727.3434     -5775.923      -0.59954036     0.35630983     72.684673      6.1083658      9.1625488      12.216732      683.74848    
        99   0             -251.38816     -7229.2161     -10137.54      -5753.0755     -5797.0332      0.19743834    -2.8762917      63.491872      6.1083658      9.1625488      12.216732      683.74848    
       100   0             -251.38817     -7241.3821     -10132.442     -5768.7794     -5822.9248     -0.30857063     1.0146897      55.357233      6.1083658      9.1625488      12.216732      683.74848    
       101   0             -251.38817     -7243.4969     -10128.751     -5781.7577     -5819.9824     -0.47627857     0.8600979      51.114445      6.1083658      9.1625488      12.216732      683.74848    
Loop time of 0.0164818 on 4 procs for 100 steps with 48 atoms

47.4% CPU use with 4 MPI tasks x 1 OpenMP threads

Minimization stats:
  Stopping criterion = max iterations
  Energy initial, next-to-last, final = 
     -249.983999991564   -251.38817143343  -251.388174354852
  Force two-norm initial, final = 0.00037093605 0.0032379865
  Force max component initial, final = 8.6140788e-05 0.00077839419
  Final line search alpha, max atom move = 1 0.00077839419
  Iterations, force evaluations = 100 122

MPI task timing breakdown:
Section |  min time  |  avg time  |  max time  |%varavg| %total
---------------------------------------------------------------
Pair    | 0.012848   | 0.013278   | 0.013752   |   0.3 | 80.56
Neigh   | 0          | 0          | 0          |   0.0 |  0.00
Comm    | 0.000962   | 0.0014785  | 0.001932   |   0.9 |  8.97
Output  | 0.00087    | 0.0009155  | 0.001045   |   0.0 |  5.55
Modify  | 0          | 0          | 0          |   0.0 |  0.00
Other   |            | 0.00081    |            |       |  4.91

Nlocal:             12 ave          14 max          10 min
Histogram: 1 0 0 0 0 2 0 0 0 1
Nghost:            293 ave         295 max         291 min
Histogram: 1 0 0 0 0 2 0 0 0 1
Neighs:            348 ave         402 max         279 min
Histogram: 1 0 0 0 0 1 1 0 0 1
FullNghs:          696 ave         812 max         580 min
Histogram: 1 0 0 0 0 2 0 0 0 1

Total # of neighbors = 2784
Ave neighs/atom = 58
Neighbor list builds = 0
Dangerous builds = 0

# Obtain new stress tensor

variable tmp equal pe
variable e1 equal ${tmp}
variable e1 equal -251.388174354852
variable tmp equal press
variable p1 equal ${tmp}
variable p1 equal -7243.49688120195
variable tmp equal pxx
variable pxx1 equal ${tmp}
variable pxx1 equal -10128.7505634781
variable tmp equal pyy
variable pyy1 equal ${tmp}
variable pyy1 equal -5781.757715664
variable tmp equal pzz
variable pzz1 equal ${tmp}
variable pzz1 equal -5819.98236446376
variable tmp equal pxy
variable pxy1 equal ${tmp}
variable pxy1 equal -0.476278571165039
variable tmp equal pxz
variable pxz1 equal ${tmp}
variable pxz1 equal 0.860097898053313
variable tmp equal pyz
variable pyz1 equal ${tmp}
variable pyz1 equal 51.1144448865126

# Compute elastic constant from pressure tensor

variable C1pos equal ${d1}
variable C1pos equal 1012875.05634777
variable C2pos equal ${d2}
variable C2pos equal 578175.771566442
variable C3pos equal ${d3}
variable C3pos equal 581998.236446313
variable C4pos equal ${d4}
variable C4pos equal -5111.44448865001
variable C5pos equal ${d5}
variable C5pos equal -86.0097898021022
variable C6pos equal ${d6}
variable C6pos equal 47.6278571167071

# Combine positive and negative

variable C1${dir} equal 0.5*(${C1neg}+${C1pos})
variable C16 equal 0.5*(${C1neg}+${C1pos})
variable C16 equal 0.5*(-1013916.77778606+${C1pos})
variable C16 equal 0.5*(-1013916.77778606+1012875.05634777)
variable C2${dir} equal 0.5*(${C2neg}+${C2pos})
variable C26 equal 0.5*(${C2neg}+${C2pos})
variable C26 equal 0.5*(-577673.400853931+${C2pos})
variable C26 equal 0.5*(-577673.400853931+578175.771566442)
variable C3${dir} equal 0.5*(${C3neg}+${C3pos})
variable C36 equal 0.5*(${C3neg}+${C3pos})
variable C36 equal 0.5*(-581842.961737127+${C3pos})
variable C36 equal 0.5*(-581842.961737127+581998.236446313)
variable C4${dir} equal 0.5*(${C4neg}+${C4pos})
variable C46 equal 0.5*(${C4neg}+${C4pos})
variable C46 equal 0.5*(5230.30510892958+${C4pos})
variable C46 equal 0.5*(5230.30510892958+-5111.44448865001)
variable C5${dir} equal 0.5*(${C5neg}+${C5pos})
variable C56 equal 0.5*(${C5neg}+${C5pos})
variable C56 equal 0.5*(112.940485153869+${C5pos})
variable C56 equal 0.5*(112.940485153869+-86.0097898021022)
variable C6${dir} equal 0.5*(${C6neg}+${C6pos})
variable C66 equal 0.5*(${C6neg}+${C6pos})
variable C66 equal 0.5*(11.1234494914256+${C6pos})
variable C66 equal 0.5*(11.1234494914256+47.6278571167071)

# Delete dir to make sure it is not reused

variable dir delete

# Output final values

variable C11all equal ${C11}
variable C11all equal 47.9786864999915
variable C22all equal ${C22}
variable C22all equal 527.715360064001
variable C33all equal ${C33}
variable C33all equal 250.139242770034

variable C12all equal 0.5*(${C12}+${C21})
variable C12all equal 0.5*(-54.4069018149748+${C21})
variable C12all equal 0.5*(-54.4069018149748+-134.311231165018)
variable C13all equal 0.5*(${C13}+${C31})
variable C13all equal 0.5*(-285.810007360007+${C31})
variable C13all equal 0.5*(-285.810007360007+97.0241928534815)
variable C23all equal 0.5*(${C23}+${C32})
variable C23all equal 0.5*(213.544372313481+${C32})
variable C23all equal 0.5*(213.544372313481+-79.2022951964755)

variable C44all equal ${C44}
variable C44all equal 32.63350039032
variable C55all equal ${C55}
variable C55all equal 36.4841465874163
variable C66all equal ${C66}
variable C66all equal 29.3756533040663

variable C14all equal 0.5*(${C14}+${C41})
variable C14all equal 0.5*(137.769821900001+${C41})
variable C14all equal 0.5*(137.769821900001+-401.76919619437)
variable C15all equal 0.5*(${C15}+${C51})
variable C15all equal 0.5*(-892.44150863+${C51})
variable C15all equal 0.5*(-892.44150863+27.9743906004047)
variable C16all equal 0.5*(${C16}+${C61})
variable C16all equal 0.5*(-520.860719144985+${C61})
variable C16all equal 0.5*(-520.860719144985+6.25157176240771)

variable C24all equal 0.5*(${C24}+${C42})
variable C24all equal 0.5*(-8.68979539751308+${C42})
variable C24all equal 0.5*(-8.68979539751308+342.3192212379)
variable C25all equal 0.5*(${C25}+${C52})
variable C25all equal 0.5*(461.036142473517+${C52})
variable C25all equal 0.5*(461.036142473517+81.4627612317904)
variable C26all equal 0.5*(${C26}+${C62})
variable C26all equal 0.5*(251.185356255504+${C62})
variable C26all equal 0.5*(251.185356255504+-5.91937271737796)

variable C34all equal 0.5*(${C34}+${C43})
variable C34all equal 0.5*(-63.8166107599973+${C43})
variable C34all equal 0.5*(-63.8166107599973+23.6463739750302)
variable C35all equal 0.5*(${C35}+${C53})
variable C35all equal 0.5*(99.8987414309522+${C53})
variable C35all equal 0.5*(99.8987414309522+4.497633407473)
variable C36all equal 0.5*(${C36}+${C63})
variable C36all equal 0.5*(77.6373545929673+${C63})
variable C36all equal 0.5*(77.6373545929673+-6.50260592113595)

variable C45all equal 0.5*(${C45}+${C54})
variable C45all equal 0.5*(88.8510288255898+${C54})
variable C45all equal 0.5*(88.8510288255898+2.61982902727)
variable C46all equal 0.5*(${C46}+${C64})
variable C46all equal 0.5*(59.430310139785+${C64})
variable C46all equal 0.5*(59.430310139785+1.82856315035305)
variable C56all equal 0.5*(${C56}+${C65})
variable C56all equal 0.5*(13.4653476758834+${C65})
variable C56all equal 0.5*(13.4653476758834+-11.2188233166257)

# Average moduli for cubic crystals

variable C11cubic equal (${C11all}+${C22all}+${C33all})/3.0
variable C11cubic equal (47.9786864999915+${C22all}+${C33all})/3.0
variable C11cubic equal (47.9786864999915+527.715360064001+${C33all})/3.0
variable C11cubic equal (47.9786864999915+527.715360064001+250.139242770034)/3.0
variable C12cubic equal (${C12all}+${C13all}+${C23all})/3.0
variable C12cubic equal (-94.3590664899964+${C13all}+${C23all})/3.0
variable C12cubic equal (-94.3590664899964+-94.3929072532627+${C23all})/3.0
variable C12cubic equal (-94.3590664899964+-94.3929072532627+67.1710385585027)/3.0
variable C44cubic equal (${C44all}+${C55all}+${C66all})/3.0
variable C44cubic equal (32.63350039032+${C55all}+${C66all})/3.0
variable C44cubic equal (32.63350039032+36.4841465874163+${C66all})/3.0
variable C44cubic equal (32.63350039032+36.4841465874163+29.3756533040663)/3.0

variable bulkmodulus equal (${C11cubic}+2*${C12cubic})/3.0
variable bulkmodulus equal (275.277763111342+2*${C12cubic})/3.0
variable bulkmodulus equal (275.277763111342+2*-40.5269783949188)/3.0
variable shearmodulus1 equal ${C44cubic}
variable shearmodulus1 equal 32.8311000939342
variable shearmodulus2 equal (${C11cubic}-${C12cubic})/2.0
variable shearmodulus2 equal (275.277763111342-${C12cubic})/2.0
variable shearmodulus2 equal (275.277763111342--40.5269783949188)/2.0
variable poissonratio equal 1.0/(1.0+${C11cubic}/${C12cubic})
variable poissonratio equal 1.0/(1.0+275.277763111342/${C12cubic})
variable poissonratio equal 1.0/(1.0+275.277763111342/-40.5269783949188)

# For Stillinger-Weber silicon, the analytical results
# are known to be (E. R. Cowley, 1988):
#               C11 = 151.4 GPa
#               C12 = 76.4 GPa
#               C44 = 56.4 GPa

print "========================================="
=========================================
print "Components of the Elastic Constant Tensor"
Components of the Elastic Constant Tensor
print "========================================="
=========================================

print "Elastic Constant C11all = ${C11all} ${cunits}"
Elastic Constant C11all = 47.9786864999915 GPa
print "Elastic Constant C22all = ${C22all} ${cunits}"
Elastic Constant C22all = 527.715360064001 GPa
print "Elastic Constant C33all = ${C33all} ${cunits}"
Elastic Constant C33all = 250.139242770034 GPa

print "Elastic Constant C12all = ${C12all} ${cunits}"
Elastic Constant C12all = -94.3590664899964 GPa
print "Elastic Constant C13all = ${C13all} ${cunits}"
Elastic Constant C13all = -94.3929072532627 GPa
print "Elastic Constant C23all = ${C23all} ${cunits}"
Elastic Constant C23all = 67.1710385585027 GPa

print "Elastic Constant C44all = ${C44all} ${cunits}"
Elastic Constant C44all = 32.63350039032 GPa
print "Elastic Constant C55all = ${C55all} ${cunits}"
Elastic Constant C55all = 36.4841465874163 GPa
print "Elastic Constant C66all = ${C66all} ${cunits}"
Elastic Constant C66all = 29.3756533040663 GPa

print "Elastic Constant C14all = ${C14all} ${cunits}"
Elastic Constant C14all = -131.999687147184 GPa
print "Elastic Constant C15all = ${C15all} ${cunits}"
Elastic Constant C15all = -432.233559014798 GPa
print "Elastic Constant C16all = ${C16all} ${cunits}"
Elastic Constant C16all = -257.304573691289 GPa

print "Elastic Constant C24all = ${C24all} ${cunits}"
Elastic Constant C24all = 166.814712920193 GPa
print "Elastic Constant C25all = ${C25all} ${cunits}"
Elastic Constant C25all = 271.249451852654 GPa
print "Elastic Constant C26all = ${C26all} ${cunits}"
Elastic Constant C26all = 122.632991769063 GPa

print "Elastic Constant C34all = ${C34all} ${cunits}"
Elastic Constant C34all = -20.0851183924836 GPa
print "Elastic Constant C35all = ${C35all} ${cunits}"
Elastic Constant C35all = 52.1981874192126 GPa
print "Elastic Constant C36all = ${C36all} ${cunits}"
Elastic Constant C36all = 35.5673743359157 GPa

print "Elastic Constant C45all = ${C45all} ${cunits}"
Elastic Constant C45all = 45.7354289264299 GPa
print "Elastic Constant C46all = ${C46all} ${cunits}"
Elastic Constant C46all = 30.629436645069 GPa
print "Elastic Constant C56all = ${C56all} ${cunits}"
Elastic Constant C56all = 1.12326217962885 GPa

print "========================================="
=========================================
print "Average properties for a cubic crystal"
Average properties for a cubic crystal
print "========================================="
=========================================

print "Bulk Modulus = ${bulkmodulus} ${cunits}"
Bulk Modulus = 64.7412687738348 GPa
print "Shear Modulus 1 = ${shearmodulus1} ${cunits}"
Shear Modulus 1 = 32.8311000939342 GPa
print "Shear Modulus 2 = ${shearmodulus2} ${cunits}"
Shear Modulus 2 = 157.90237075313 GPa
print "Poisson Ratio = ${poissonratio}"
Poisson Ratio = -0.172638308510342
Total wall time: 0:00:00
