LAMMPS (22 Dec 2022)
  using 1 OpenMP thread(s) per MPI task
Loaded 1 plugins from C:\Program Files\LAMMPS 64-bit 23Jun2022\plugins
Loaded 0 plugins from C:\Program Files\LAMMPS 64-bit 23Jun2022-MPI\plugins
Loaded 1 plugins from C:\Program Files\LAMMPS 64-bit 22Dec2022-MSMPI\plugins
Loaded 1 plugins from C:\Program Files\LAMMPS 64-bit 28Mar2023-MPI\plugins
# Compute elastic constant tensor for a crystal
#
# Written by Aidan Thompson (Sandia, athomps@sandia.gov)
#
#  This script uses the following three include files.
#
#   init.mod      (must be modified for different crystal structures)
# 	       	  Define units, deformation parameters and initial
#		  configuration of the atoms and simulation cell.
#
#
#   potential.mod    (must be modified for different pair styles)
# 		     Define pair style and other attributes
#		     not stored in restart file
#
#
#   displace.mod    (displace.mod should not need to be modified)
# 		    Perform positive and negative box displacements
# 		    in direction ${dir} and size ${up}.
# 		    It uses the resultant changes
#		    in stress to compute one
# 		    row of the elastic stiffness tensor
#
#		    Inputs variables:
#		    	   dir = the Voigt deformation component
#		    		    (1,2,3,4,5,6)
#		    Global constants:
#       	    	   up = the deformation magnitude (strain units)
#       		   cfac = conversion from LAMMPS pressure units to
#               	   output units for elastic constants
#
#
#  To run this on a different system, it should only be necessary to
#  modify the files init.mod and potential.mod. In order to calculate
#  the elastic constants correctly, care must be taken to specify
#  the correct units in init.mod (units, cfac and cunits). It is also
#  important to verify that the minimization of energy w.r.t atom
#  positions in the deformed cell is fully converged.
#  One indication of this is that the elastic constants are insensitive
#  to the choice of the variable ${up} in init.mod. Another is to check
#  the final max and two-norm forces reported in the log file. If you know
#  that minimization is not required, you can set maxiter = 0.0 in
#  init.mod.
#

include init.mod
# NOTE: This script can be modified for different atomic structures,
# units, etc. See in.elastic for more info.
#

# Define the finite deformation size. Try several values of this
# variable to verify that results do not depend on it.
variable up equal 1.0e-6

# Define the amount of random jiggle for atoms
# This prevents atoms from staying on saddle points
variable atomjiggle equal 1.0e-5

# Uncomment one of these blocks, depending on what units
# you are using in LAMMPS and for output

# metal units, elastic constants in eV/A^3
#units		metal
#variable cfac equal 6.2414e-7
#variable cunits string eV/A^3

# metal units, elastic constants in GPa
units		metal
variable cfac equal 1.0e-4
variable cunits string GPa

# real units, elastic constants in GPa
#units		real
#variable cfac equal 1.01325e-4
#variable cunits string GPa

# Define minimization parameters
variable etol equal 0.0
variable ftol equal 1.0e-10
variable maxiter equal 100
variable maxeval equal 1000
variable dmax equal 1.0e-2

# generate the box and atom positions using a diamond lattice

dimension    3
boundary     p p p
read_data    data.in
Reading data file ...
  orthogonal box = (0.002908538 0.002908538 0.002908538) to (3.0570915 3.0570915 3.0570915)
  1 by 2 by 2 MPI processor grid
  reading atoms ...
  2 atoms
  reading velocities ...
  2 velocities
  read_data CPU = 0.001 seconds
replicate    2 3 4
Replication is creating a 2x3x4 = 24 times larger system...
  orthogonal box = (0.002908538 0.002908538 0.002908538) to (6.1112744 9.1654573 12.21964)
  1 by 2 by 2 MPI processor grid
  48 atoms
  replicate CPU = 0.000 seconds
change_box   all triclinic
Changing box ...
  triclinic box = (0.002908538 0.002908538 0.002908538) to (6.1112744 9.1654573 12.21964) with tilt (0 0 0)

# Need to set mass to something, just to satisfy LAMMPS
mass 1 1.0e-20

include potential.mod
# NOTE: This script can be modified for different pair styles
# See in.elastic for more info.

# Choose potential
#-----------------------
#pair_style	sw
#pair_coeff * * Si.sw Si
#-----------------------
#pair_style morse	2.83994742	# D0[eV] a[1/A] r0[A] rc[A], 1NN for BCC
#pair_coeff 1 1	2.1173	1.0202	2.4595	2.6497	#	Fe-Fe
#-----------------------
#pair_style smatb # R0(A)   p       q     A(eV)   xi(eV)  Rcs(A)   Rc(A), 4NN: Rcs=4NN, Rc=(4NN+5NN)/2
#pair_coeff 1 1	2.4802	7.0149	2.3779	0.3144	3.0551	4.033	4.176	#	Co	Co
#-----------------------
#pair_style eam/alloy
#pair_coeff * * AlCrFeCoNi_Zhou04.eam.alloy Fe
#-----------------------
pair_style meam
pair_coeff * * ./../../library.meam Ti V N ./../../TiVN.meam Ti V
#-----------------------

# Setup neighbor style
neighbor 1.0 nsq
neigh_modify once no every 1 delay 0 check yes

# Setup minimization style
min_style	     cg
min_modify	     dmax ${dmax} line quadratic
min_modify	     dmax 0.01 line quadratic

# Setup output
thermo		1
thermo_style custom step temp pe press pxx pyy pzz pxy pxz pyz lx ly lz vol
thermo_modify norm no

# Compute initial state
fix 3 all box/relax  aniso 0.0
minimize ${etol} ${ftol} ${maxiter} ${maxeval}
minimize 0 ${ftol} ${maxiter} ${maxeval}
minimize 0 1e-10 ${maxiter} ${maxeval}
minimize 0 1e-10 100 ${maxeval}
minimize 0 1e-10 100 1000
Neighbor list info ...
  update: every = 1 steps, delay = 0 steps, check = yes
  max neighbors/atom: 2000, page size: 100000
  master list distance cutoff = 6
  ghost atom cutoff = 6
  2 neighbor lists, perpetual/occasional/extra = 2 0 0
  (1) pair meam, perpetual
      attributes: full, newton on
      pair build: full/nsq
      stencil: none
      bin: none
  (2) pair meam, perpetual, half/full from (1)
      attributes: half, newton on
      pair build: halffull/newton
      stencil: none
      bin: none
Per MPI rank memory allocation (min/avg/max) = 9.781 | 9.781 | 9.781 Mbytes
   Step          Temp          PotEng         Press           Pxx            Pyy            Pzz            Pxy            Pxz            Pyz             Lx             Ly             Lz           Volume    
         0   0             -249.984       -5.8238964e-10  8.4028524e-11 -1.6550758e-09 -1.761217e-10   1.6512748e-11 -3.8053576e-11 -7.9919979e-12  6.1083658      9.1625488      12.216732      683.74848    
         1   0             -249.984       -1.9910164e-10  1.144661e-11   2.4610212e-10 -8.5485365e-10 -2.6281285e-11  6.1267411e-12 -7.7775772e-11  6.1083658      9.1625488      12.216732      683.74848    
Loop time of 0.0004705 on 4 procs for 1 steps with 48 atoms

0.0% CPU use with 4 MPI tasks x 1 OpenMP threads

Minimization stats:
  Stopping criterion = force tolerance
  Energy initial, next-to-last, final = 
     -249.984000001074  -249.984000001074  -249.984000001074
  Force two-norm initial, final = 7.140163e-13 3.8511255e-13
  Force max component initial, final = 7.0632389e-13 3.6481929e-13
  Final line search alpha, max atom move = 1 3.6481929e-13
  Iterations, force evaluations = 1 2

MPI task timing breakdown:
Section |  min time  |  avg time  |  max time  |%varavg| %total
---------------------------------------------------------------
Pair    | 0.000335   | 0.000341   | 0.000348   |   0.0 | 72.48
Neigh   | 0          | 0          | 0          |   0.0 |  0.00
Comm    | 3.6e-05    | 4.325e-05  | 5e-05      |   0.0 |  9.19
Output  | 0          | 0          | 0          |   0.0 |  0.00
Modify  | 0          | 0          | 0          |   0.0 |  0.00
Other   |            | 8.625e-05  |            |       | 18.33

Nlocal:             12 ave          12 max          12 min
Histogram: 4 0 0 0 0 0 0 0 0 0
Nghost:            293 ave         293 max         293 min
Histogram: 4 0 0 0 0 0 0 0 0 0
Neighs:            348 ave         348 max         348 min
Histogram: 4 0 0 0 0 0 0 0 0 0
FullNghs:          696 ave         696 max         696 min
Histogram: 4 0 0 0 0 0 0 0 0 0

Total # of neighbors = 2784
Ave neighs/atom = 58
Neighbor list builds = 0
Dangerous builds = 0

variable tmp equal pxx
variable pxx0 equal ${tmp}
variable pxx0 equal 1.14466100493558e-11
variable tmp equal pyy
variable pyy0 equal ${tmp}
variable pyy0 equal 2.4610211606115e-10
variable tmp equal pzz
variable pzz0 equal ${tmp}
variable pzz0 equal -8.54853650504165e-10
variable tmp equal pyz
variable pyz0 equal ${tmp}
variable pyz0 equal -7.77757723834738e-11
variable tmp equal pxz
variable pxz0 equal ${tmp}
variable pxz0 equal 6.12674112105525e-12
variable tmp equal pxy
variable pxy0 equal ${tmp}
variable pxy0 equal -2.62812854908173e-11

variable tmp equal lx
variable lx0 equal ${tmp}
variable lx0 equal 6.10836584788519
variable tmp equal ly
variable ly0 equal ${tmp}
variable ly0 equal 9.16254877182778
variable tmp equal lz
variable lz0 equal ${tmp}
variable lz0 equal 12.2167316957704

# These formulas define the derivatives w.r.t. strain components
# Constants uses $, variables use v_
variable d1 equal -(v_pxx1-${pxx0})/(v_delta/v_len0)*${cfac}
variable d1 equal -(v_pxx1-1.14466100493558e-11)/(v_delta/v_len0)*${cfac}
variable d1 equal -(v_pxx1-1.14466100493558e-11)/(v_delta/v_len0)*0.0001
variable d2 equal -(v_pyy1-${pyy0})/(v_delta/v_len0)*${cfac}
variable d2 equal -(v_pyy1-2.4610211606115e-10)/(v_delta/v_len0)*${cfac}
variable d2 equal -(v_pyy1-2.4610211606115e-10)/(v_delta/v_len0)*0.0001
variable d3 equal -(v_pzz1-${pzz0})/(v_delta/v_len0)*${cfac}
variable d3 equal -(v_pzz1--8.54853650504165e-10)/(v_delta/v_len0)*${cfac}
variable d3 equal -(v_pzz1--8.54853650504165e-10)/(v_delta/v_len0)*0.0001
variable d4 equal -(v_pyz1-${pyz0})/(v_delta/v_len0)*${cfac}
variable d4 equal -(v_pyz1--7.77757723834738e-11)/(v_delta/v_len0)*${cfac}
variable d4 equal -(v_pyz1--7.77757723834738e-11)/(v_delta/v_len0)*0.0001
variable d5 equal -(v_pxz1-${pxz0})/(v_delta/v_len0)*${cfac}
variable d5 equal -(v_pxz1-6.12674112105525e-12)/(v_delta/v_len0)*${cfac}
variable d5 equal -(v_pxz1-6.12674112105525e-12)/(v_delta/v_len0)*0.0001
variable d6 equal -(v_pxy1-${pxy0})/(v_delta/v_len0)*${cfac}
variable d6 equal -(v_pxy1--2.62812854908173e-11)/(v_delta/v_len0)*${cfac}
variable d6 equal -(v_pxy1--2.62812854908173e-11)/(v_delta/v_len0)*0.0001

displace_atoms all random ${atomjiggle} ${atomjiggle} ${atomjiggle} 87287 units box
displace_atoms all random 1e-05 ${atomjiggle} ${atomjiggle} 87287 units box
displace_atoms all random 1e-05 1e-05 ${atomjiggle} 87287 units box
displace_atoms all random 1e-05 1e-05 1e-05 87287 units box
Displacing atoms ...

# Write restart
unfix 3
write_restart restart.equil
System init for write_restart ...

# uxx Perturbation

variable dir equal 1
include displace.mod
# NOTE: This script should not need to be
# modified. See in.elastic for more info.
#
# Find which reference length to use

if "${dir} == 1" then    "variable len0 equal ${lx0}"
variable len0 equal ${lx0}
variable len0 equal 6.10836584788519
if "${dir} == 2" then    "variable len0 equal ${ly0}"
if "${dir} == 3" then    "variable len0 equal ${lz0}"
if "${dir} == 4" then    "variable len0 equal ${lz0}"
if "${dir} == 5" then    "variable len0 equal ${lz0}"
if "${dir} == 6" then    "variable len0 equal ${ly0}"

# Reset box and simulation parameters

clear
  using 1 OpenMP thread(s) per MPI task
Loaded 1 plugins from C:\Program Files\LAMMPS 64-bit 23Jun2022\plugins
Loaded 0 plugins from C:\Program Files\LAMMPS 64-bit 23Jun2022-MPI\plugins
Loaded 1 plugins from C:\Program Files\LAMMPS 64-bit 22Dec2022-MSMPI\plugins
Loaded 1 plugins from C:\Program Files\LAMMPS 64-bit 28Mar2023-MPI\plugins
box tilt large

The 'box' command has been removed and will be ignored

read_restart restart.equil
Reading restart file ...
  restart file = 22 Dec 2022, LAMMPS = 22 Dec 2022
  restoring atom style atomic from restart
  triclinic box = (0.002908538 0.002908538 0.002908538) to (6.1112744 9.1654573 12.21964) with tilt (0 0 0)
  1 by 2 by 2 MPI processor grid
  pair style meam stores no restart info
  48 atoms
  read_restart CPU = 0.000 seconds
include potential.mod
# NOTE: This script can be modified for different pair styles
# See in.elastic for more info.

# Choose potential
#-----------------------
#pair_style	sw
#pair_coeff * * Si.sw Si
#-----------------------
#pair_style morse	2.83994742	# D0[eV] a[1/A] r0[A] rc[A], 1NN for BCC
#pair_coeff 1 1	2.1173	1.0202	2.4595	2.6497	#	Fe-Fe
#-----------------------
#pair_style smatb # R0(A)   p       q     A(eV)   xi(eV)  Rcs(A)   Rc(A), 4NN: Rcs=4NN, Rc=(4NN+5NN)/2
#pair_coeff 1 1	2.4802	7.0149	2.3779	0.3144	3.0551	4.033	4.176	#	Co	Co
#-----------------------
#pair_style eam/alloy
#pair_coeff * * AlCrFeCoNi_Zhou04.eam.alloy Fe
#-----------------------
pair_style meam
pair_coeff * * ./../../library.meam Ti V N ./../../TiVN.meam Ti V
#-----------------------

# Setup neighbor style
neighbor 1.0 nsq
neigh_modify once no every 1 delay 0 check yes

# Setup minimization style
min_style	     cg
min_modify	     dmax ${dmax} line quadratic
min_modify	     dmax 0.01 line quadratic

# Setup output
thermo		1
thermo_style custom step temp pe press pxx pyy pzz pxy pxz pyz lx ly lz vol
thermo_modify norm no

# Negative deformation

variable delta equal -${up}*${len0}
variable delta equal -1e-06*${len0}
variable delta equal -1e-06*6.10836584788519
variable deltaxy equal -${up}*xy
variable deltaxy equal -1e-06*xy
variable deltaxz equal -${up}*xz
variable deltaxz equal -1e-06*xz
variable deltayz equal -${up}*yz
variable deltayz equal -1e-06*yz
if "${dir} == 1" then    "change_box all x delta 0 ${delta} xy delta ${deltaxy} xz delta ${deltaxz} remap units box"
change_box all x delta 0 ${delta} xy delta ${deltaxy} xz delta ${deltaxz} remap units box
change_box all x delta 0 -6.10836584788519e-06 xy delta ${deltaxy} xz delta ${deltaxz} remap units box
change_box all x delta 0 -6.10836584788519e-06 xy delta -0 xz delta ${deltaxz} remap units box
change_box all x delta 0 -6.10836584788519e-06 xy delta -0 xz delta -0 remap units box
Changing box ...
  triclinic box = (0.002908538 0.002908538 0.002908538) to (6.1112683 9.1654573 12.21964) with tilt (0 0 0)
  triclinic box = (0.002908538 0.002908538 0.002908538) to (6.1112683 9.1654573 12.21964) with tilt (0 0 0)
  triclinic box = (0.002908538 0.002908538 0.002908538) to (6.1112683 9.1654573 12.21964) with tilt (0 0 0)
if "${dir} == 2" then    "change_box all y delta 0 ${delta} yz delta ${deltayz} remap units box"
if "${dir} == 3" then    "change_box all z delta 0 ${delta} remap units box"
if "${dir} == 4" then    "change_box all yz delta ${delta} remap units box"
if "${dir} == 5" then    "change_box all xz delta ${delta} remap units box"
if "${dir} == 6" then    "change_box all xy delta ${delta} remap units box"

# Relax atoms positions

minimize ${etol} ${ftol} ${maxiter} ${maxeval}
minimize 0 ${ftol} ${maxiter} ${maxeval}
minimize 0 1e-10 ${maxiter} ${maxeval}
minimize 0 1e-10 100 ${maxeval}
minimize 0 1e-10 100 1000
Neighbor list info ...
  update: every = 1 steps, delay = 0 steps, check = yes
  max neighbors/atom: 2000, page size: 100000
  master list distance cutoff = 6
  ghost atom cutoff = 6
  2 neighbor lists, perpetual/occasional/extra = 2 0 0
  (1) pair meam, perpetual
      attributes: full, newton on
      pair build: full/nsq
      stencil: none
      bin: none
  (2) pair meam, perpetual, half/full from (1)
      attributes: half, newton on
      pair build: halffull/newton
      stencil: none
      bin: none
Per MPI rank memory allocation (min/avg/max) = 9.781 | 9.781 | 9.781 Mbytes
   Step          Temp          PotEng         Press           Pxx            Pyy            Pzz            Pxy            Pxz            Pyz             Lx             Ly             Lz           Volume    
         1   0             -249.984        1.2721424      4.6293972     -0.40649409    -0.40647593     4.3208447e-06 -7.5981676e-06 -3.2590276e-06  6.1083597      9.1625488      12.216732      683.7478     
         2   0             -249.984        1.2721142      4.6292833     -0.40647168    -0.40646897     8.2090843e-07 -1.2049426e-06  9.9919728e-07  6.1083597      9.1625488      12.216732      683.7478     
         3   0             -249.984        1.2721146      4.6292668     -0.40645656    -0.40646634    -2.4306571e-07  1.7900161e-07  1.3297349e-07  6.1083597      9.1625488      12.216732      683.7478     
         4   0             -249.984        1.2721151      4.6292673     -0.4064572     -0.40646484    -1.0573149e-08  2.8453956e-07 -1.4844098e-08  6.1083597      9.1625488      12.216732      683.7478     
         5   0             -249.984        1.2721153      4.6292677     -0.40645865    -0.40646316    -5.8620687e-09  1.8658524e-07 -8.5000875e-09  6.1083597      9.1625488      12.216732      683.7478     
         6   0             -249.984        1.2721154      4.6292676     -0.40645946    -0.406462       3.4538162e-09  9.921051e-08   1.1251605e-09  6.1083597      9.1625488      12.216732      683.7478     
         7   0             -249.984        1.2721154      4.6292673     -0.4064601     -0.40646085     3.7125428e-09  3.2646139e-08  2.8496575e-09  6.1083597      9.1625488      12.216732      683.7478     
         8   0             -249.984        1.2721155      4.6292671     -0.40646025    -0.40646049     2.1052855e-09  1.0873264e-08 -1.4412794e-10  6.1083597      9.1625488      12.216732      683.7478     
         9   0             -249.984        1.2721155      4.6292671     -0.40646029    -0.40646038     6.24422e-10    3.7453541e-09 -6.2490535e-10  6.1083597      9.1625488      12.216732      683.7478     
        10   0             -249.984        1.2721155      4.6292671     -0.40646031    -0.40646034     2.7230676e-11  1.2088644e-09 -1.9339648e-10  6.1083597      9.1625488      12.216732      683.7478     
        11   0             -249.984        1.2721155      4.6292671     -0.40646031    -0.40646032    -3.5008917e-11  4.2637344e-10  4.221399e-11   6.1083597      9.1625488      12.216732      683.7478     
        12   0             -249.984        1.2721155      4.6292671     -0.40646032    -0.40646032    -6.9248901e-11  8.6984771e-11  4.2152509e-12  6.1083597      9.1625488      12.216732      683.7478     
        13   0             -249.984        1.2721155      4.6292671     -0.40646032    -0.40646032    -1.5768826e-11 -4.807703e-12  -1.0787607e-11  6.1083597      9.1625488      12.216732      683.7478     
        14   0             -249.984        1.2721155      4.6292671     -0.40646032    -0.40646032    -2.8043613e-11 -1.8132794e-11  1.987001e-11   6.1083597      9.1625488      12.216732      683.7478     
        15   0             -249.984        1.2721155      4.6292671     -0.40646032    -0.40646032     1.8682879e-11  2.2016251e-12  2.0454332e-11  6.1083597      9.1625488      12.216732      683.7478     
        16   0             -249.984        1.2721155      4.6292671     -0.40646032    -0.40646032     2.670417e-11   1.3925165e-11 -3.5531882e-11  6.1083597      9.1625488      12.216732      683.7478     
        17   0             -249.984        1.2721155      4.6292671     -0.40646032    -0.40646032     8.859753e-12  -1.6957544e-11 -1.2854584e-11  6.1083597      9.1625488      12.216732      683.7478     
        18   0             -249.984        1.2721155      4.6292671     -0.40646032    -0.40646032     3.6989737e-11 -7.5230237e-12  1.0888213e-11  6.1083597      9.1625488      12.216732      683.7478     
        19   0             -249.984        1.2721155      4.6292671     -0.40646032    -0.40646032    -4.5281185e-11 -1.643521e-11   1.4671573e-11  6.1083597      9.1625488      12.216732      683.7478     
        20   0             -249.984        1.2721155      4.6292671     -0.40646032    -0.40646032    -3.3491855e-11 -3.1495485e-11 -1.1322135e-11  6.1083597      9.1625488      12.216732      683.7478     
        21   0             -249.984        1.2721155      4.6292671     -0.40646032    -0.40646032     3.3157105e-11 -9.5026063e-12  3.1355247e-12  6.1083597      9.1625488      12.216732      683.7478     
        22   0             -249.984        1.2721155      4.6292671     -0.40646032    -0.40646032     1.377399e-11  -3.5928205e-12 -1.9729772e-12  6.1083597      9.1625488      12.216732      683.7478     
        23   0             -249.984        1.2721155      4.6292671     -0.40646032    -0.40646032    -1.9734874e-11 -1.8898002e-11 -2.6271643e-11  6.1083597      9.1625488      12.216732      683.7478     
        24   0             -249.984        1.2721155      4.6292671     -0.40646032    -0.40646032     7.0516812e-12 -6.1176013e-13 -1.1138201e-11  6.1083597      9.1625488      12.216732      683.7478     
Loop time of 0.005252 on 4 procs for 23 steps with 48 atoms

0.0% CPU use with 4 MPI tasks x 1 OpenMP threads

Minimization stats:
  Stopping criterion = force tolerance
  Energy initial, next-to-last, final = 
     -249.983999978315  -249.984000000087  -249.984000000087
  Force two-norm initial, final = 0.00065031323 6.4784869e-11
  Force max component initial, final = 0.00011952114 1.4678675e-11
  Final line search alpha, max atom move = 1 1.4678675e-11
  Iterations, force evaluations = 23 46

MPI task timing breakdown:
Section |  min time  |  avg time  |  max time  |%varavg| %total
---------------------------------------------------------------
Pair    | 0.004377   | 0.0044217  | 0.004464   |   0.0 | 84.19
Neigh   | 0          | 0          | 0          |   0.0 |  0.00
Comm    | 0.000325   | 0.00035975 | 0.000412   |   0.0 |  6.85
Output  | 0.000198   | 0.00021975 | 0.000279   |   0.0 |  4.18
Modify  | 0          | 0          | 0          |   0.0 |  0.00
Other   |            | 0.0002507  |            |       |  4.77

Nlocal:             12 ave          12 max          12 min
Histogram: 4 0 0 0 0 0 0 0 0 0
Nghost:            293 ave         293 max         293 min
Histogram: 4 0 0 0 0 0 0 0 0 0
Neighs:            348 ave         349 max         347 min
Histogram: 2 0 0 0 0 0 0 0 0 2
FullNghs:          696 ave         696 max         696 min
Histogram: 4 0 0 0 0 0 0 0 0 0

Total # of neighbors = 2784
Ave neighs/atom = 58
Neighbor list builds = 0
Dangerous builds = 0

# Obtain new stress tensor

variable tmp equal pxx
variable pxx1 equal ${tmp}
variable pxx1 equal 4.62926706118275
variable tmp equal pyy
variable pyy1 equal ${tmp}
variable pyy1 equal -0.406460317497416
variable tmp equal pzz
variable pzz1 equal ${tmp}
variable pzz1 equal -0.40646031883563
variable tmp equal pxy
variable pxy1 equal ${tmp}
variable pxy1 equal 7.05168120994458e-12
variable tmp equal pxz
variable pxz1 equal ${tmp}
variable pxz1 equal -6.11760133218959e-13
variable tmp equal pyz
variable pyz1 equal ${tmp}
variable pyz1 equal -1.11382008972532e-11

# Compute elastic constant from pressure tensor

variable C1neg equal ${d1}
variable C1neg equal 462.92670611713
variable C2neg equal ${d2}
variable C2neg equal -40.6460317743518
variable C3neg equal ${d3}
variable C3neg equal -40.6460317980776
variable C4neg equal ${d4}
variable C4neg equal 6.66375714862206e-09
variable C5neg equal ${d5}
variable C5neg equal -6.73850125427421e-10
variable C6neg equal ${d6}
variable C6neg equal 3.33329667007619e-09

# Reset box and simulation parameters

clear
  using 1 OpenMP thread(s) per MPI task
Loaded 1 plugins from C:\Program Files\LAMMPS 64-bit 23Jun2022\plugins
Loaded 0 plugins from C:\Program Files\LAMMPS 64-bit 23Jun2022-MPI\plugins
Loaded 1 plugins from C:\Program Files\LAMMPS 64-bit 22Dec2022-MSMPI\plugins
Loaded 1 plugins from C:\Program Files\LAMMPS 64-bit 28Mar2023-MPI\plugins
box tilt large

The 'box' command has been removed and will be ignored

read_restart restart.equil
Reading restart file ...
  restart file = 22 Dec 2022, LAMMPS = 22 Dec 2022
  restoring atom style atomic from restart
  triclinic box = (0.002908538 0.002908538 0.002908538) to (6.1112744 9.1654573 12.21964) with tilt (0 0 0)
  1 by 2 by 2 MPI processor grid
  pair style meam stores no restart info
  48 atoms
  read_restart CPU = 0.001 seconds
include potential.mod
# NOTE: This script can be modified for different pair styles
# See in.elastic for more info.

# Choose potential
#-----------------------
#pair_style	sw
#pair_coeff * * Si.sw Si
#-----------------------
#pair_style morse	2.83994742	# D0[eV] a[1/A] r0[A] rc[A], 1NN for BCC
#pair_coeff 1 1	2.1173	1.0202	2.4595	2.6497	#	Fe-Fe
#-----------------------
#pair_style smatb # R0(A)   p       q     A(eV)   xi(eV)  Rcs(A)   Rc(A), 4NN: Rcs=4NN, Rc=(4NN+5NN)/2
#pair_coeff 1 1	2.4802	7.0149	2.3779	0.3144	3.0551	4.033	4.176	#	Co	Co
#-----------------------
#pair_style eam/alloy
#pair_coeff * * AlCrFeCoNi_Zhou04.eam.alloy Fe
#-----------------------
pair_style meam
pair_coeff * * ./../../library.meam Ti V N ./../../TiVN.meam Ti V
#-----------------------

# Setup neighbor style
neighbor 1.0 nsq
neigh_modify once no every 1 delay 0 check yes

# Setup minimization style
min_style	     cg
min_modify	     dmax ${dmax} line quadratic
min_modify	     dmax 0.01 line quadratic

# Setup output
thermo		1
thermo_style custom step temp pe press pxx pyy pzz pxy pxz pyz lx ly lz vol
thermo_modify norm no

# Positive deformation

variable delta equal ${up}*${len0}
variable delta equal 1e-06*${len0}
variable delta equal 1e-06*6.10836584788519
variable deltaxy equal ${up}*xy
variable deltaxy equal 1e-06*xy
variable deltaxz equal ${up}*xz
variable deltaxz equal 1e-06*xz
variable deltayz equal ${up}*yz
variable deltayz equal 1e-06*yz
if "${dir} == 1" then    "change_box all x delta 0 ${delta} xy delta ${deltaxy} xz delta ${deltaxz} remap units box"
change_box all x delta 0 ${delta} xy delta ${deltaxy} xz delta ${deltaxz} remap units box
change_box all x delta 0 6.10836584788519e-06 xy delta ${deltaxy} xz delta ${deltaxz} remap units box
change_box all x delta 0 6.10836584788519e-06 xy delta 0 xz delta ${deltaxz} remap units box
change_box all x delta 0 6.10836584788519e-06 xy delta 0 xz delta 0 remap units box
Changing box ...
  triclinic box = (0.002908538 0.002908538 0.002908538) to (6.1112805 9.1654573 12.21964) with tilt (0 0 0)
  triclinic box = (0.002908538 0.002908538 0.002908538) to (6.1112805 9.1654573 12.21964) with tilt (0 0 0)
  triclinic box = (0.002908538 0.002908538 0.002908538) to (6.1112805 9.1654573 12.21964) with tilt (0 0 0)
if "${dir} == 2" then    "change_box all y delta 0 ${delta} yz delta ${deltayz} remap units box"
if "${dir} == 3" then    "change_box all z delta 0 ${delta} remap units box"
if "${dir} == 4" then    "change_box all yz delta ${delta} remap units box"
if "${dir} == 5" then    "change_box all xz delta ${delta} remap units box"
if "${dir} == 6" then    "change_box all xy delta ${delta} remap units box"

# Relax atoms positions

minimize ${etol} ${ftol} ${maxiter} ${maxeval}
minimize 0 ${ftol} ${maxiter} ${maxeval}
minimize 0 1e-10 ${maxiter} ${maxeval}
minimize 0 1e-10 100 ${maxeval}
minimize 0 1e-10 100 1000
Neighbor list info ...
  update: every = 1 steps, delay = 0 steps, check = yes
  max neighbors/atom: 2000, page size: 100000
  master list distance cutoff = 6
  ghost atom cutoff = 6
  2 neighbor lists, perpetual/occasional/extra = 2 0 0
  (1) pair meam, perpetual
      attributes: full, newton on
      pair build: full/nsq
      stencil: none
      bin: none
  (2) pair meam, perpetual, half/full from (1)
      attributes: half, newton on
      pair build: halffull/newton
      stencil: none
      bin: none
Per MPI rank memory allocation (min/avg/max) = 9.781 | 9.781 | 9.781 Mbytes
   Step          Temp          PotEng         Press           Pxx            Pyy            Pzz            Pxy            Pxz            Pyz             Lx             Ly             Lz           Volume    
         1   0             -249.984       -1.272076      -4.6291104      0.40643202     0.40645019     4.320573e-06  -7.5976413e-06 -3.259381e-06   6.108372       9.1625488      12.216732      683.74917    
         2   0             -249.984       -1.2721042     -4.6292243      0.40645444     0.40645715     8.2099088e-07 -1.2049564e-06  9.992044e-07   6.108372       9.1625488      12.216732      683.74917    
         3   0             -249.984       -1.2721038     -4.6292408      0.40646956     0.40645978    -2.4303442e-07  1.7900531e-07  1.329634e-07   6.108372       9.1625488      12.216732      683.74917    
         4   0             -249.984       -1.2721034     -4.6292403      0.40646892     0.40646128    -1.0612951e-08  2.8447706e-07 -1.4887296e-08  6.108372       9.1625488      12.216732      683.74917    
         5   0             -249.984       -1.2721032     -4.6292399      0.40646747     0.40646296    -5.8553696e-09  1.8662431e-07 -8.5826167e-09  6.108372       9.1625488      12.216732      683.74917    
         6   0             -249.984       -1.2721031     -4.62924        0.40646667     0.40646413     3.5073127e-09  9.9190956e-08  1.093859e-09   6.108372       9.1625488      12.216732      683.74917    
         7   0             -249.984       -1.272103      -4.6292403      0.40646602     0.40646527     3.7143157e-09  3.2588878e-08  2.8667424e-09  6.108372       9.1625488      12.216732      683.74917    
         8   0             -249.984       -1.272103      -4.6292405      0.40646587     0.40646563     2.0840547e-09  1.0849056e-08 -2.1729788e-10  6.108372       9.1625488      12.216732      683.74917    
         9   0             -249.984       -1.272103      -4.6292405      0.40646584     0.40646574     6.2530556e-10  3.7416166e-09 -6.074954e-10   6.108372       9.1625488      12.216732      683.74917    
        10   0             -249.984       -1.272103      -4.6292405      0.40646582     0.40646579     4.1449916e-11  1.1869891e-09 -1.1784387e-10  6.108372       9.1625488      12.216732      683.74917    
        11   0             -249.984       -1.272103      -4.6292405      0.40646581     0.4064658     -4.6112714e-11  4.004709e-10   2.4466292e-11  6.108372       9.1625488      12.216732      683.74917    
        12   0             -249.984       -1.272103      -4.6292405      0.40646581     0.4064658     -4.7085788e-11  7.5506496e-11  6.9685132e-11  6.108372       9.1625488      12.216732      683.74917    
        13   0             -249.984       -1.272103      -4.6292405      0.40646581     0.40646581     2.9311369e-11  1.8699295e-11  1.7554534e-11  6.108372       9.1625488      12.216732      683.74917    
        14   0             -249.984       -1.272103      -4.6292405      0.40646581     0.40646581    -2.2421795e-11 -2.0414151e-11 -8.54928e-11    6.108372       9.1625488      12.216732      683.74917    
        15   0             -249.984       -1.272103      -4.6292405      0.40646581     0.40646581     3.0842995e-11  3.3986663e-11 -2.6126272e-11  6.108372       9.1625488      12.216732      683.74917    
        16   0             -249.984       -1.272103      -4.6292405      0.40646581     0.40646581    -6.9606223e-12 -2.1970478e-11 -2.0696658e-11  6.108372       9.1625488      12.216732      683.74917    
        17   0             -249.984       -1.272103      -4.6292405      0.40646581     0.40646581     1.3082813e-11  4.1661087e-11  1.3271713e-11  6.108372       9.1625488      12.216732      683.74917    
        18   0             -249.984       -1.272103      -4.6292405      0.40646581     0.40646581     1.143425e-11  -1.6546453e-11 -2.2793609e-12  6.108372       9.1625488      12.216732      683.74917    
        19   0             -249.984       -1.272103      -4.6292405      0.40646581     0.40646581    -4.9981724e-12  6.473771e-12   5.0395927e-11  6.108372       9.1625488      12.216732      683.74917    
        20   0             -249.984       -1.272103      -4.6292405      0.40646581     0.40646581    -5.7842551e-11 -3.2936917e-11 -6.647543e-12   6.108372       9.1625488      12.216732      683.74917    
        21   0             -249.984       -1.272103      -4.6292405      0.40646581     0.40646581    -5.2514984e-11 -5.5172626e-11 -1.2214346e-11  6.108372       9.1625488      12.216732      683.74917    
        22   0             -249.984       -1.272103      -4.6292405      0.40646581     0.40646581    -2.6335958e-12 -4.1750005e-11 -2.6941781e-11  6.108372       9.1625488      12.216732      683.74917    
        23   0             -249.984       -1.272103      -4.6292405      0.40646581     0.40646581     1.3511573e-11 -6.6510998e-13 -5.1039188e-12  6.108372       9.1625488      12.216732      683.74917    
        24   0             -249.984       -1.272103      -4.6292405      0.40646581     0.40646581     4.1691227e-11 -3.5389542e-11 -2.0990851e-11  6.108372       9.1625488      12.216732      683.74917    
Loop time of 0.00508375 on 4 procs for 23 steps with 48 atoms

0.0% CPU use with 4 MPI tasks x 1 OpenMP threads

Minimization stats:
  Stopping criterion = force tolerance
  Energy initial, next-to-last, final = 
     -249.983999978315  -249.984000000087  -249.984000000087
  Force two-norm initial, final = 0.00065030976 6.4755691e-11
  Force max component initial, final = 0.00011951832 1.4581544e-11
  Final line search alpha, max atom move = 1 1.4581544e-11
  Iterations, force evaluations = 23 46

MPI task timing breakdown:
Section |  min time  |  avg time  |  max time  |%varavg| %total
---------------------------------------------------------------
Pair    | 0.004299   | 0.0043365  | 0.004381   |   0.0 | 85.30
Neigh   | 0          | 0          | 0          |   0.0 |  0.00
Comm    | 0.000283   | 0.0003285  | 0.000364   |   0.0 |  6.46
Output  | 0.000199   | 0.0002075  | 0.000232   |   0.0 |  4.08
Modify  | 0          | 0          | 0          |   0.0 |  0.00
Other   |            | 0.0002113  |            |       |  4.16

Nlocal:             12 ave          12 max          12 min
Histogram: 4 0 0 0 0 0 0 0 0 0
Nghost:            293 ave         293 max         293 min
Histogram: 4 0 0 0 0 0 0 0 0 0
Neighs:            348 ave         349 max         347 min
Histogram: 2 0 0 0 0 0 0 0 0 2
FullNghs:          696 ave         696 max         696 min
Histogram: 4 0 0 0 0 0 0 0 0 0

Total # of neighbors = 2784
Ave neighs/atom = 58
Neighbor list builds = 0
Dangerous builds = 0

# Obtain new stress tensor

variable tmp equal pe
variable e1 equal ${tmp}
variable e1 equal -249.984000000087
variable tmp equal press
variable p1 equal ${tmp}
variable p1 equal -1.27210297707535
variable tmp equal pxx
variable pxx1 equal ${tmp}
variable pxx1 equal -4.62924054411544
variable tmp equal pyy
variable pyy1 equal ${tmp}
variable pyy1 equal 0.406465807126814
variable tmp equal pzz
variable pzz1 equal ${tmp}
variable pzz1 equal 0.406465805762588
variable tmp equal pxy
variable pxy1 equal ${tmp}
variable pxy1 equal 4.16912271177452e-11
variable tmp equal pxz
variable pxz1 equal ${tmp}
variable pxz1 equal -3.53895415785707e-11
variable tmp equal pyz
variable pyz1 equal ${tmp}
variable pyz1 equal -2.09908505627267e-11

# Compute elastic constant from pressure tensor

variable C1pos equal ${d1}
variable C1pos equal 462.924054412689
variable C2pos equal ${d2}
variable C2pos equal -40.6465806880712
variable C3pos equal ${d3}
variable C3pos equal -40.6465806617442
variable C4pos equal ${d4}
variable C4pos equal -5.67849218207471e-09
variable C5pos equal ${d5}
variable C5pos equal 4.15162826996259e-09
variable C6pos equal ${d6}
variable C6pos equal -6.79725126085625e-09

# Combine positive and negative

variable C1${dir} equal 0.5*(${C1neg}+${C1pos})
variable C11 equal 0.5*(${C1neg}+${C1pos})
variable C11 equal 0.5*(462.92670611713+${C1pos})
variable C11 equal 0.5*(462.92670611713+462.924054412689)
variable C2${dir} equal 0.5*(${C2neg}+${C2pos})
variable C21 equal 0.5*(${C2neg}+${C2pos})
variable C21 equal 0.5*(-40.6460317743518+${C2pos})
variable C21 equal 0.5*(-40.6460317743518+-40.6465806880712)
variable C3${dir} equal 0.5*(${C3neg}+${C3pos})
variable C31 equal 0.5*(${C3neg}+${C3pos})
variable C31 equal 0.5*(-40.6460317980776+${C3pos})
variable C31 equal 0.5*(-40.6460317980776+-40.6465806617442)
variable C4${dir} equal 0.5*(${C4neg}+${C4pos})
variable C41 equal 0.5*(${C4neg}+${C4pos})
variable C41 equal 0.5*(6.66375714862206e-09+${C4pos})
variable C41 equal 0.5*(6.66375714862206e-09+-5.67849218207471e-09)
variable C5${dir} equal 0.5*(${C5neg}+${C5pos})
variable C51 equal 0.5*(${C5neg}+${C5pos})
variable C51 equal 0.5*(-6.73850125427421e-10+${C5pos})
variable C51 equal 0.5*(-6.73850125427421e-10+4.15162826996259e-09)
variable C6${dir} equal 0.5*(${C6neg}+${C6pos})
variable C61 equal 0.5*(${C6neg}+${C6pos})
variable C61 equal 0.5*(3.33329667007619e-09+${C6pos})
variable C61 equal 0.5*(3.33329667007619e-09+-6.79725126085625e-09)

# Delete dir to make sure it is not reused

variable dir delete

# uyy Perturbation

variable dir equal 2
include displace.mod
# NOTE: This script should not need to be
# modified. See in.elastic for more info.
#
# Find which reference length to use

if "${dir} == 1" then    "variable len0 equal ${lx0}"
if "${dir} == 2" then    "variable len0 equal ${ly0}"
variable len0 equal ${ly0}
variable len0 equal 9.16254877182778
if "${dir} == 3" then    "variable len0 equal ${lz0}"
if "${dir} == 4" then    "variable len0 equal ${lz0}"
if "${dir} == 5" then    "variable len0 equal ${lz0}"
if "${dir} == 6" then    "variable len0 equal ${ly0}"

# Reset box and simulation parameters

clear
  using 1 OpenMP thread(s) per MPI task
Loaded 1 plugins from C:\Program Files\LAMMPS 64-bit 23Jun2022\plugins
Loaded 0 plugins from C:\Program Files\LAMMPS 64-bit 23Jun2022-MPI\plugins
Loaded 1 plugins from C:\Program Files\LAMMPS 64-bit 22Dec2022-MSMPI\plugins
Loaded 1 plugins from C:\Program Files\LAMMPS 64-bit 28Mar2023-MPI\plugins
box tilt large

The 'box' command has been removed and will be ignored

read_restart restart.equil
Reading restart file ...
  restart file = 22 Dec 2022, LAMMPS = 22 Dec 2022
  restoring atom style atomic from restart
  triclinic box = (0.002908538 0.002908538 0.002908538) to (6.1112744 9.1654573 12.21964) with tilt (0 0 0)
  1 by 2 by 2 MPI processor grid
  pair style meam stores no restart info
  48 atoms
  read_restart CPU = 0.000 seconds
include potential.mod
# NOTE: This script can be modified for different pair styles
# See in.elastic for more info.

# Choose potential
#-----------------------
#pair_style	sw
#pair_coeff * * Si.sw Si
#-----------------------
#pair_style morse	2.83994742	# D0[eV] a[1/A] r0[A] rc[A], 1NN for BCC
#pair_coeff 1 1	2.1173	1.0202	2.4595	2.6497	#	Fe-Fe
#-----------------------
#pair_style smatb # R0(A)   p       q     A(eV)   xi(eV)  Rcs(A)   Rc(A), 4NN: Rcs=4NN, Rc=(4NN+5NN)/2
#pair_coeff 1 1	2.4802	7.0149	2.3779	0.3144	3.0551	4.033	4.176	#	Co	Co
#-----------------------
#pair_style eam/alloy
#pair_coeff * * AlCrFeCoNi_Zhou04.eam.alloy Fe
#-----------------------
pair_style meam
pair_coeff * * ./../../library.meam Ti V N ./../../TiVN.meam Ti V
#-----------------------

# Setup neighbor style
neighbor 1.0 nsq
neigh_modify once no every 1 delay 0 check yes

# Setup minimization style
min_style	     cg
min_modify	     dmax ${dmax} line quadratic
min_modify	     dmax 0.01 line quadratic

# Setup output
thermo		1
thermo_style custom step temp pe press pxx pyy pzz pxy pxz pyz lx ly lz vol
thermo_modify norm no

# Negative deformation

variable delta equal -${up}*${len0}
variable delta equal -1e-06*${len0}
variable delta equal -1e-06*9.16254877182778
variable deltaxy equal -${up}*xy
variable deltaxy equal -1e-06*xy
variable deltaxz equal -${up}*xz
variable deltaxz equal -1e-06*xz
variable deltayz equal -${up}*yz
variable deltayz equal -1e-06*yz
if "${dir} == 1" then    "change_box all x delta 0 ${delta} xy delta ${deltaxy} xz delta ${deltaxz} remap units box"
if "${dir} == 2" then    "change_box all y delta 0 ${delta} yz delta ${deltayz} remap units box"
change_box all y delta 0 ${delta} yz delta ${deltayz} remap units box
change_box all y delta 0 -9.16254877182778e-06 yz delta ${deltayz} remap units box
change_box all y delta 0 -9.16254877182778e-06 yz delta -0 remap units box
Changing box ...
  triclinic box = (0.002908538 0.002908538 0.002908538) to (6.1112744 9.1654481 12.21964) with tilt (0 0 0)
  triclinic box = (0.002908538 0.002908538 0.002908538) to (6.1112744 9.1654481 12.21964) with tilt (0 0 0)
if "${dir} == 3" then    "change_box all z delta 0 ${delta} remap units box"
if "${dir} == 4" then    "change_box all yz delta ${delta} remap units box"
if "${dir} == 5" then    "change_box all xz delta ${delta} remap units box"
if "${dir} == 6" then    "change_box all xy delta ${delta} remap units box"

# Relax atoms positions

minimize ${etol} ${ftol} ${maxiter} ${maxeval}
minimize 0 ${ftol} ${maxiter} ${maxeval}
minimize 0 1e-10 ${maxiter} ${maxeval}
minimize 0 1e-10 100 ${maxeval}
minimize 0 1e-10 100 1000
Neighbor list info ...
  update: every = 1 steps, delay = 0 steps, check = yes
  max neighbors/atom: 2000, page size: 100000
  master list distance cutoff = 6
  ghost atom cutoff = 6
  2 neighbor lists, perpetual/occasional/extra = 2 0 0
  (1) pair meam, perpetual
      attributes: full, newton on
      pair build: full/nsq
      stencil: none
      bin: none
  (2) pair meam, perpetual, half/full from (1)
      attributes: half, newton on
      pair build: halffull/newton
      stencil: none
      bin: none
Per MPI rank memory allocation (min/avg/max) = 9.781 | 9.781 | 9.781 Mbytes
   Step          Temp          PotEng         Press           Pxx            Pyy            Pzz            Pxy            Pxz            Pyz             Lx             Ly             Lz           Volume    
         1   0             -249.984        1.2721424     -0.40633013     4.6292333     -0.40647592     4.3207417e-06 -7.5973411e-06 -3.2592132e-06  6.1083658      9.1625396      12.216732      683.7478     
         2   0             -249.984        1.2721142     -0.40644409     4.6292557     -0.40646897     8.2100244e-07 -1.2049603e-06  9.9917829e-07  6.1083658      9.1625396      12.216732      683.7478     
         3   0             -249.984        1.2721146     -0.40646056     4.6292708     -0.40646634    -2.4304907e-07  1.7895811e-07  1.3298781e-07  6.1083658      9.1625396      12.216732      683.7478     
         4   0             -249.984        1.2721151     -0.40646005     4.6292702     -0.40646484    -1.0510427e-08  2.8441722e-07 -1.49118e-08    6.1083658      9.1625396      12.216732      683.7478     
         5   0             -249.984        1.2721153     -0.40645972     4.6292687     -0.40646316    -5.843311e-09   1.8662208e-07 -8.5135213e-09  6.1083658      9.1625396      12.216732      683.7478     
         6   0             -249.984        1.2721154     -0.4064598      4.6292679     -0.406462       3.439614e-09   9.9150087e-08  1.1236215e-09  6.1083658      9.1625396      12.216732      683.7478     
         7   0             -249.984        1.2721154     -0.40646008     4.6292673     -0.40646085     3.7353999e-09  3.261492e-08   2.8192996e-09  6.1083658      9.1625396      12.216732      683.7478     
         8   0             -249.984        1.2721155     -0.40646024     4.6292671     -0.40646049     2.1098681e-09  1.0825873e-08 -1.2350492e-10  6.1083658      9.1625396      12.216732      683.7478     
         9   0             -249.984        1.2721155     -0.4064603      4.6292671     -0.40646038     6.7935147e-10  3.7166273e-09 -6.0889797e-10  6.1083658      9.1625396      12.216732      683.7478     
        10   0             -249.984        1.2721155     -0.40646032     4.6292671     -0.40646034     1.9167996e-11  1.2243703e-09 -1.5012512e-10  6.1083658      9.1625396      12.216732      683.7478     
        11   0             -249.984        1.2721155     -0.40646032     4.6292671     -0.40646032    -4.2180812e-11  4.4509869e-10  3.0235381e-11  6.1083658      9.1625396      12.216732      683.7478     
        12   0             -249.984        1.2721155     -0.40646032     4.6292671     -0.40646032    -5.3782778e-11  8.6623507e-11  8.5167782e-11  6.1083658      9.1625396      12.216732      683.7478     
        13   0             -249.984        1.2721155     -0.40646032     4.6292671     -0.40646032    -1.1488799e-11  8.4020478e-12  2.277333e-11   6.1083658      9.1625396      12.216732      683.7478     
        14   0             -249.984        1.2721155     -0.40646032     4.6292671     -0.40646032    -8.9333213e-12 -8.4853773e-14  1.8962024e-11  6.1083658      9.1625396      12.216732      683.7478     
        15   0             -249.984        1.2721155     -0.40646032     4.6292671     -0.40646032    -4.6246347e-12 -4.0166829e-11 -3.1387766e-11  6.1083658      9.1625396      12.216732      683.7478     
        16   0             -249.984        1.2721155     -0.40646032     4.6292671     -0.40646032    -2.8480626e-11 -3.3560429e-12 -1.273772e-11   6.1083658      9.1625396      12.216732      683.7478     
        17   0             -249.984        1.2721155     -0.40646032     4.6292671     -0.40646032     2.2310037e-11 -2.1355205e-11 -6.2248118e-12  6.1083658      9.1625396      12.216732      683.7478     
        18   0             -249.984        1.2721155     -0.40646032     4.6292671     -0.40646032     1.2353909e-11 -2.3121383e-11  8.5920796e-12  6.1083658      9.1625396      12.216732      683.7478     
        19   0             -249.984        1.2721155     -0.40646032     4.6292671     -0.40646032     3.7823579e-13 -2.2684919e-11 -2.969882e-11   6.1083658      9.1625396      12.216732      683.7478     
        20   0             -249.984        1.2721155     -0.40646032     4.6292671     -0.40646032    -6.3227558e-12 -2.4687875e-11 -2.7266007e-11  6.1083658      9.1625396      12.216732      683.7478     
        21   0             -249.984        1.2721155     -0.40646032     4.6292671     -0.40646032    -4.30738e-11   -1.9884745e-11 -3.8833558e-11  6.1083658      9.1625396      12.216732      683.7478     
        22   0             -249.984        1.2721155     -0.40646032     4.6292671     -0.40646032     4.4544818e-11  2.9761318e-11  1.4963734e-11  6.1083658      9.1625396      12.216732      683.7478     
        23   0             -249.984        1.2721155     -0.40646032     4.6292671     -0.40646032     1.4003438e-11 -4.1542781e-11 -2.8898553e-11  6.1083658      9.1625396      12.216732      683.7478     
        24   0             -249.984        1.2721155     -0.40646032     4.6292671     -0.40646032    -1.2937289e-11 -6.6200678e-11 -6.4698207e-11  6.1083658      9.1625396      12.216732      683.7478     
Loop time of 0.005142 on 4 procs for 23 steps with 48 atoms

0.0% CPU use with 4 MPI tasks x 1 OpenMP threads

Minimization stats:
  Stopping criterion = force tolerance
  Energy initial, next-to-last, final = 
     -249.983999978315  -249.984000000087  -249.984000000087
  Force two-norm initial, final = 0.00065031159 6.47257e-11
  Force max component initial, final = 0.00011952003 1.4630852e-11
  Final line search alpha, max atom move = 1 1.4630852e-11
  Iterations, force evaluations = 23 46

MPI task timing breakdown:
Section |  min time  |  avg time  |  max time  |%varavg| %total
---------------------------------------------------------------
Pair    | 0.004304   | 0.0043552  | 0.004412   |   0.1 | 84.70
Neigh   | 0          | 0          | 0          |   0.0 |  0.00
Comm    | 0.000294   | 0.0003545  | 0.000411   |   0.0 |  6.89
Output  | 0.000199   | 0.00020725 | 0.00023    |   0.0 |  4.03
Modify  | 0          | 0          | 0          |   0.0 |  0.00
Other   |            | 0.000225   |            |       |  4.38

Nlocal:             12 ave          12 max          12 min
Histogram: 4 0 0 0 0 0 0 0 0 0
Nghost:            293 ave         293 max         293 min
Histogram: 4 0 0 0 0 0 0 0 0 0
Neighs:            348 ave         349 max         347 min
Histogram: 2 0 0 0 0 0 0 0 0 2
FullNghs:          696 ave         696 max         696 min
Histogram: 4 0 0 0 0 0 0 0 0 0

Total # of neighbors = 2784
Ave neighs/atom = 58
Neighbor list builds = 0
Dangerous builds = 0

# Obtain new stress tensor

variable tmp equal pxx
variable pxx1 equal ${tmp}
variable pxx1 equal -0.40646031876695
variable tmp equal pyy
variable pyy1 equal ${tmp}
variable pyy1 equal 4.62926706249495
variable tmp equal pzz
variable pzz1 equal ${tmp}
variable pzz1 equal -0.40646031878464
variable tmp equal pxy
variable pxy1 equal ${tmp}
variable pxy1 equal -1.29372891329126e-11
variable tmp equal pxz
variable pxz1 equal ${tmp}
variable pxz1 equal -6.6200677738343e-11
variable tmp equal pyz
variable pyz1 equal ${tmp}
variable pyz1 equal -6.46982070457113e-11

# Compute elastic constant from pressure tensor

variable C1neg equal ${d1}
variable C1neg equal -40.6460318778397
variable C2neg equal ${d2}
variable C2neg equal 462.926706224885
variable C3neg equal ${d3}
variable C3neg equal -40.6460317929786
variable C4neg equal ${d4}
variable C4neg equal 1.30775653377625e-09
variable C5neg equal ${d5}
variable C5neg equal -7.23274188593982e-09
variable C6neg equal ${d6}
variable C6neg equal 1.33439963579047e-09

# Reset box and simulation parameters

clear
  using 1 OpenMP thread(s) per MPI task
Loaded 1 plugins from C:\Program Files\LAMMPS 64-bit 23Jun2022\plugins
Loaded 0 plugins from C:\Program Files\LAMMPS 64-bit 23Jun2022-MPI\plugins
Loaded 1 plugins from C:\Program Files\LAMMPS 64-bit 22Dec2022-MSMPI\plugins
Loaded 1 plugins from C:\Program Files\LAMMPS 64-bit 28Mar2023-MPI\plugins
box tilt large

The 'box' command has been removed and will be ignored

read_restart restart.equil
Reading restart file ...
  restart file = 22 Dec 2022, LAMMPS = 22 Dec 2022
  restoring atom style atomic from restart
  triclinic box = (0.002908538 0.002908538 0.002908538) to (6.1112744 9.1654573 12.21964) with tilt (0 0 0)
  1 by 2 by 2 MPI processor grid
  pair style meam stores no restart info
  48 atoms
  read_restart CPU = 0.000 seconds
include potential.mod
# NOTE: This script can be modified for different pair styles
# See in.elastic for more info.

# Choose potential
#-----------------------
#pair_style	sw
#pair_coeff * * Si.sw Si
#-----------------------
#pair_style morse	2.83994742	# D0[eV] a[1/A] r0[A] rc[A], 1NN for BCC
#pair_coeff 1 1	2.1173	1.0202	2.4595	2.6497	#	Fe-Fe
#-----------------------
#pair_style smatb # R0(A)   p       q     A(eV)   xi(eV)  Rcs(A)   Rc(A), 4NN: Rcs=4NN, Rc=(4NN+5NN)/2
#pair_coeff 1 1	2.4802	7.0149	2.3779	0.3144	3.0551	4.033	4.176	#	Co	Co
#-----------------------
#pair_style eam/alloy
#pair_coeff * * AlCrFeCoNi_Zhou04.eam.alloy Fe
#-----------------------
pair_style meam
pair_coeff * * ./../../library.meam Ti V N ./../../TiVN.meam Ti V
#-----------------------

# Setup neighbor style
neighbor 1.0 nsq
neigh_modify once no every 1 delay 0 check yes

# Setup minimization style
min_style	     cg
min_modify	     dmax ${dmax} line quadratic
min_modify	     dmax 0.01 line quadratic

# Setup output
thermo		1
thermo_style custom step temp pe press pxx pyy pzz pxy pxz pyz lx ly lz vol
thermo_modify norm no

# Positive deformation

variable delta equal ${up}*${len0}
variable delta equal 1e-06*${len0}
variable delta equal 1e-06*9.16254877182778
variable deltaxy equal ${up}*xy
variable deltaxy equal 1e-06*xy
variable deltaxz equal ${up}*xz
variable deltaxz equal 1e-06*xz
variable deltayz equal ${up}*yz
variable deltayz equal 1e-06*yz
if "${dir} == 1" then    "change_box all x delta 0 ${delta} xy delta ${deltaxy} xz delta ${deltaxz} remap units box"
if "${dir} == 2" then    "change_box all y delta 0 ${delta} yz delta ${deltayz} remap units box"
change_box all y delta 0 ${delta} yz delta ${deltayz} remap units box
change_box all y delta 0 9.16254877182778e-06 yz delta ${deltayz} remap units box
change_box all y delta 0 9.16254877182778e-06 yz delta 0 remap units box
Changing box ...
  triclinic box = (0.002908538 0.002908538 0.002908538) to (6.1112744 9.1654665 12.21964) with tilt (0 0 0)
  triclinic box = (0.002908538 0.002908538 0.002908538) to (6.1112744 9.1654665 12.21964) with tilt (0 0 0)
if "${dir} == 3" then    "change_box all z delta 0 ${delta} remap units box"
if "${dir} == 4" then    "change_box all yz delta ${delta} remap units box"
if "${dir} == 5" then    "change_box all xz delta ${delta} remap units box"
if "${dir} == 6" then    "change_box all xy delta ${delta} remap units box"

# Relax atoms positions

minimize ${etol} ${ftol} ${maxiter} ${maxeval}
minimize 0 ${ftol} ${maxiter} ${maxeval}
minimize 0 1e-10 ${maxiter} ${maxeval}
minimize 0 1e-10 100 ${maxeval}
minimize 0 1e-10 100 1000
Neighbor list info ...
  update: every = 1 steps, delay = 0 steps, check = yes
  max neighbors/atom: 2000, page size: 100000
  master list distance cutoff = 6
  ghost atom cutoff = 6
  2 neighbor lists, perpetual/occasional/extra = 2 0 0
  (1) pair meam, perpetual
      attributes: full, newton on
      pair build: full/nsq
      stencil: none
      bin: none
  (2) pair meam, perpetual, half/full from (1)
      attributes: half, newton on
      pair build: halffull/newton
      stencil: none
      bin: none
Per MPI rank memory allocation (min/avg/max) = 9.781 | 9.781 | 9.781 Mbytes
   Step          Temp          PotEng         Press           Pxx            Pyy            Pzz            Pxy            Pxz            Pyz             Lx             Ly             Lz           Volume    
         1   0             -249.984       -1.272076       0.40659598    -4.6292743      0.40645019     4.3206323e-06 -7.5985779e-06 -3.2590445e-06  6.1083658      9.1625579      12.216732      683.74917    
         2   0             -249.984       -1.2721042      0.40648203    -4.6292519      0.40645715     8.209588e-07  -1.2048998e-06  9.9915631e-07  6.1083658      9.1625579      12.216732      683.74917    
         3   0             -249.984       -1.2721038      0.40646557    -4.6292368      0.40645978    -2.4300483e-07  1.7903227e-07  1.3303016e-07  6.1083658      9.1625579      12.216732      683.74917    
         4   0             -249.984       -1.2721034      0.40646607    -4.6292374      0.40646129    -1.0520726e-08  2.8449756e-07 -1.4840711e-08  6.1083658      9.1625579      12.216732      683.74917    
         5   0             -249.984       -1.2721032      0.4064664     -4.6292389      0.40646296    -5.8207353e-09  1.8666336e-07 -8.5495177e-09  6.1083658      9.1625579      12.216732      683.74917    
         6   0             -249.984       -1.2721031      0.40646633    -4.6292397      0.40646413     3.5007027e-09  9.9253937e-08  1.1108729e-09  6.1083658      9.1625579      12.216732      683.74917    
         7   0             -249.984       -1.272103       0.40646604    -4.6292403      0.40646527     3.7007138e-09  3.260072e-08   2.7880963e-09  6.1083658      9.1625579      12.216732      683.74917    
         8   0             -249.984       -1.272103       0.40646589    -4.6292405      0.40646563     2.1624585e-09  1.0836188e-08 -2.0519176e-10  6.1083658      9.1625579      12.216732      683.74917    
         9   0             -249.984       -1.272103       0.40646583    -4.6292405      0.40646574     6.233078e-10   3.7780045e-09 -6.1781197e-10  6.1083658      9.1625579      12.216732      683.74917    
        10   0             -249.984       -1.272103       0.40646581    -4.6292405      0.40646579     4.9320709e-11  1.1804503e-09 -1.4321967e-10  6.1083658      9.1625579      12.216732      683.74917    
        11   0             -249.984       -1.272103       0.40646581    -4.6292405      0.4064658     -9.5268847e-11  3.9061365e-10  7.8654717e-11  6.1083658      9.1625579      12.216732      683.74917    
        12   0             -249.984       -1.272103       0.40646581    -4.6292405      0.4064658     -4.6314657e-11  1.0500862e-10  9.5000468e-11  6.1083658      9.1625579      12.216732      683.74917    
        13   0             -249.984       -1.272103       0.40646581    -4.6292405      0.40646581     2.4926298e-12 -2.7437692e-11 -8.2633182e-11  6.1083658      9.1625579      12.216732      683.74917    
        14   0             -249.984       -1.272103       0.40646581    -4.6292405      0.40646581     2.6543932e-11  4.008596e-11   8.7653264e-12  6.1083658      9.1625579      12.216732      683.74917    
        15   0             -249.984       -1.272103       0.40646581    -4.6292405      0.40646581     2.3901153e-11 -2.0136217e-12  2.6543935e-11  6.1083658      9.1625579      12.216732      683.74917    
        16   0             -249.984       -1.272103       0.40646581    -4.6292405      0.40646581     1.756546e-12  -3.2799728e-11  4.7492104e-11  6.1083658      9.1625579      12.216732      683.74917    
        17   0             -249.984       -1.272103       0.40646581    -4.6292405      0.40646581     1.6547104e-12 -1.4433242e-11  1.2290562e-11  6.1083658      9.1625579      12.216732      683.74917    
        18   0             -249.984       -1.272103       0.40646581    -4.6292405      0.40646581    -5.5923423e-12 -1.6783738e-11  2.4428692e-11  6.1083658      9.1625579      12.216732      683.74917    
        19   0             -249.984       -1.272103       0.40646581    -4.6292405      0.40646581    -1.777783e-11   4.8551504e-11 -1.9090028e-11  6.1083658      9.1625579      12.216732      683.74917    
        20   0             -249.984       -1.272103       0.40646581    -4.6292405      0.40646581    -2.5219789e-11 -5.051584e-12   7.7618182e-12  6.1083658      9.1625579      12.216732      683.74917    
        21   0             -249.984       -1.272103       0.40646581    -4.6292405      0.40646581    -4.1348392e-11  2.7754242e-11 -4.6967739e-11  6.1083658      9.1625579      12.216732      683.74917    
        22   0             -249.984       -1.272103       0.40646581    -4.6292405      0.40646581    -1.7456417e-12  6.0901514e-12  2.8432562e-11  6.1083658      9.1625579      12.216732      683.74917    
        23   0             -249.984       -1.272103       0.40646581    -4.6292405      0.40646581     1.1271668e-11 -2.9059564e-11 -9.6733107e-12  6.1083658      9.1625579      12.216732      683.74917    
        24   0             -249.984       -1.272103       0.40646581    -4.6292405      0.40646581     1.6163914e-11 -1.9500577e-11  3.2588865e-11  6.1083658      9.1625579      12.216732      683.74917    
Loop time of 0.00493575 on 4 procs for 23 steps with 48 atoms

0.0% CPU use with 4 MPI tasks x 1 OpenMP threads

Minimization stats:
  Stopping criterion = force tolerance
  Energy initial, next-to-last, final = 
     -249.983999978315  -249.984000000087  -249.984000000087
  Force two-norm initial, final = 0.0006503114 6.477053e-11
  Force max component initial, final = 0.00011951943 1.4638263e-11
  Final line search alpha, max atom move = 1 1.4638263e-11
  Iterations, force evaluations = 23 46

MPI task timing breakdown:
Section |  min time  |  avg time  |  max time  |%varavg| %total
---------------------------------------------------------------
Pair    | 0.004193   | 0.0042115  | 0.004233   |   0.0 | 85.33
Neigh   | 0          | 0          | 0          |   0.0 |  0.00
Comm    | 0.000303   | 0.0003205  | 0.000343   |   0.0 |  6.49
Output  | 0.00019    | 0.000198   | 0.00022    |   0.0 |  4.01
Modify  | 0          | 0          | 0          |   0.0 |  0.00
Other   |            | 0.0002058  |            |       |  4.17

Nlocal:             12 ave          12 max          12 min
Histogram: 4 0 0 0 0 0 0 0 0 0
Nghost:            293 ave         293 max         293 min
Histogram: 4 0 0 0 0 0 0 0 0 0
Neighs:            348 ave         349 max         347 min
Histogram: 2 0 0 0 0 0 0 0 0 2
FullNghs:          696 ave         696 max         696 min
Histogram: 4 0 0 0 0 0 0 0 0 0

Total # of neighbors = 2784
Ave neighs/atom = 58
Neighbor list builds = 0
Dangerous builds = 0

# Obtain new stress tensor

variable tmp equal pe
variable e1 equal ${tmp}
variable e1 equal -249.984000000087
variable tmp equal press
variable p1 equal ${tmp}
variable p1 equal -1.27210297703719
variable tmp equal pxx
variable pxx1 equal ${tmp}
variable pxx1 equal 0.40646580559193
variable tmp equal pyy
variable pyy1 equal ${tmp}
variable pyy1 equal -4.62924054258368
variable tmp equal pzz
variable pzz1 equal ${tmp}
variable pzz1 equal 0.406465805880176
variable tmp equal pxy
variable pxy1 equal ${tmp}
variable pxy1 equal 1.6163914343839e-11
variable tmp equal pxz
variable pxz1 equal ${tmp}
variable pxz1 equal -1.95005774047949e-11
variable tmp equal pyz
variable pyz1 equal ${tmp}
variable pyz1 equal 3.25888645766887e-11

# Compute elastic constant from pressure tensor

variable C1pos equal ${d1}
variable C1pos equal -40.6465805580483
variable C2pos equal ${d2}
variable C2pos equal 462.924054282978
variable C3pos equal ${d3}
variable C3pos equal -40.646580673503
variable C4pos equal ${d4}
variable C4pos equal -1.10364636960162e-08
variable C5pos equal ${d5}
variable C5pos equal 2.56273185258501e-09
variable C6pos equal ${d6}
variable C6pos equal -4.24451998346563e-09

# Combine positive and negative

variable C1${dir} equal 0.5*(${C1neg}+${C1pos})
variable C12 equal 0.5*(${C1neg}+${C1pos})
variable C12 equal 0.5*(-40.6460318778397+${C1pos})
variable C12 equal 0.5*(-40.6460318778397+-40.6465805580483)
variable C2${dir} equal 0.5*(${C2neg}+${C2pos})
variable C22 equal 0.5*(${C2neg}+${C2pos})
variable C22 equal 0.5*(462.926706224885+${C2pos})
variable C22 equal 0.5*(462.926706224885+462.924054282978)
variable C3${dir} equal 0.5*(${C3neg}+${C3pos})
variable C32 equal 0.5*(${C3neg}+${C3pos})
variable C32 equal 0.5*(-40.6460317929786+${C3pos})
variable C32 equal 0.5*(-40.6460317929786+-40.646580673503)
variable C4${dir} equal 0.5*(${C4neg}+${C4pos})
variable C42 equal 0.5*(${C4neg}+${C4pos})
variable C42 equal 0.5*(1.30775653377625e-09+${C4pos})
variable C42 equal 0.5*(1.30775653377625e-09+-1.10364636960162e-08)
variable C5${dir} equal 0.5*(${C5neg}+${C5pos})
variable C52 equal 0.5*(${C5neg}+${C5pos})
variable C52 equal 0.5*(-7.23274188593982e-09+${C5pos})
variable C52 equal 0.5*(-7.23274188593982e-09+2.56273185258501e-09)
variable C6${dir} equal 0.5*(${C6neg}+${C6pos})
variable C62 equal 0.5*(${C6neg}+${C6pos})
variable C62 equal 0.5*(1.33439963579047e-09+${C6pos})
variable C62 equal 0.5*(1.33439963579047e-09+-4.24451998346563e-09)

# Delete dir to make sure it is not reused

variable dir delete

# uzz Perturbation

variable dir equal 3
include displace.mod
# NOTE: This script should not need to be
# modified. See in.elastic for more info.
#
# Find which reference length to use

if "${dir} == 1" then    "variable len0 equal ${lx0}"
if "${dir} == 2" then    "variable len0 equal ${ly0}"
if "${dir} == 3" then    "variable len0 equal ${lz0}"
variable len0 equal ${lz0}
variable len0 equal 12.2167316957704
if "${dir} == 4" then    "variable len0 equal ${lz0}"
if "${dir} == 5" then    "variable len0 equal ${lz0}"
if "${dir} == 6" then    "variable len0 equal ${ly0}"

# Reset box and simulation parameters

clear
  using 1 OpenMP thread(s) per MPI task
Loaded 1 plugins from C:\Program Files\LAMMPS 64-bit 23Jun2022\plugins
Loaded 0 plugins from C:\Program Files\LAMMPS 64-bit 23Jun2022-MPI\plugins
Loaded 1 plugins from C:\Program Files\LAMMPS 64-bit 22Dec2022-MSMPI\plugins
Loaded 1 plugins from C:\Program Files\LAMMPS 64-bit 28Mar2023-MPI\plugins
box tilt large

The 'box' command has been removed and will be ignored

read_restart restart.equil
Reading restart file ...
  restart file = 22 Dec 2022, LAMMPS = 22 Dec 2022
  restoring atom style atomic from restart
  triclinic box = (0.002908538 0.002908538 0.002908538) to (6.1112744 9.1654573 12.21964) with tilt (0 0 0)
  1 by 2 by 2 MPI processor grid
  pair style meam stores no restart info
  48 atoms
  read_restart CPU = 0.000 seconds
include potential.mod
# NOTE: This script can be modified for different pair styles
# See in.elastic for more info.

# Choose potential
#-----------------------
#pair_style	sw
#pair_coeff * * Si.sw Si
#-----------------------
#pair_style morse	2.83994742	# D0[eV] a[1/A] r0[A] rc[A], 1NN for BCC
#pair_coeff 1 1	2.1173	1.0202	2.4595	2.6497	#	Fe-Fe
#-----------------------
#pair_style smatb # R0(A)   p       q     A(eV)   xi(eV)  Rcs(A)   Rc(A), 4NN: Rcs=4NN, Rc=(4NN+5NN)/2
#pair_coeff 1 1	2.4802	7.0149	2.3779	0.3144	3.0551	4.033	4.176	#	Co	Co
#-----------------------
#pair_style eam/alloy
#pair_coeff * * AlCrFeCoNi_Zhou04.eam.alloy Fe
#-----------------------
pair_style meam
pair_coeff * * ./../../library.meam Ti V N ./../../TiVN.meam Ti V
#-----------------------

# Setup neighbor style
neighbor 1.0 nsq
neigh_modify once no every 1 delay 0 check yes

# Setup minimization style
min_style	     cg
min_modify	     dmax ${dmax} line quadratic
min_modify	     dmax 0.01 line quadratic

# Setup output
thermo		1
thermo_style custom step temp pe press pxx pyy pzz pxy pxz pyz lx ly lz vol
thermo_modify norm no

# Negative deformation

variable delta equal -${up}*${len0}
variable delta equal -1e-06*${len0}
variable delta equal -1e-06*12.2167316957704
variable deltaxy equal -${up}*xy
variable deltaxy equal -1e-06*xy
variable deltaxz equal -${up}*xz
variable deltaxz equal -1e-06*xz
variable deltayz equal -${up}*yz
variable deltayz equal -1e-06*yz
if "${dir} == 1" then    "change_box all x delta 0 ${delta} xy delta ${deltaxy} xz delta ${deltaxz} remap units box"
if "${dir} == 2" then    "change_box all y delta 0 ${delta} yz delta ${deltayz} remap units box"
if "${dir} == 3" then    "change_box all z delta 0 ${delta} remap units box"
change_box all z delta 0 ${delta} remap units box
change_box all z delta 0 -1.22167316957704e-05 remap units box
Changing box ...
  triclinic box = (0.002908538 0.002908538 0.002908538) to (6.1112744 9.1654573 12.219628) with tilt (0 0 0)
if "${dir} == 4" then    "change_box all yz delta ${delta} remap units box"
if "${dir} == 5" then    "change_box all xz delta ${delta} remap units box"
if "${dir} == 6" then    "change_box all xy delta ${delta} remap units box"

# Relax atoms positions

minimize ${etol} ${ftol} ${maxiter} ${maxeval}
minimize 0 ${ftol} ${maxiter} ${maxeval}
minimize 0 1e-10 ${maxiter} ${maxeval}
minimize 0 1e-10 100 ${maxeval}
minimize 0 1e-10 100 1000
Neighbor list info ...
  update: every = 1 steps, delay = 0 steps, check = yes
  max neighbors/atom: 2000, page size: 100000
  master list distance cutoff = 6
  ghost atom cutoff = 6
  2 neighbor lists, perpetual/occasional/extra = 2 0 0
  (1) pair meam, perpetual
      attributes: full, newton on
      pair build: full/nsq
      stencil: none
      bin: none
  (2) pair meam, perpetual, half/full from (1)
      attributes: half, newton on
      pair build: halffull/newton
      stencil: none
      bin: none
Per MPI rank memory allocation (min/avg/max) = 9.781 | 9.781 | 9.781 Mbytes
   Step          Temp          PotEng         Press           Pxx            Pyy            Pzz            Pxy            Pxz            Pyz             Lx             Ly             Lz           Volume    
         1   0             -249.984        1.2721424     -0.40633013    -0.40649409     4.6292514      4.3205122e-06 -7.5982293e-06 -3.2592935e-06  6.1083658      9.1625488      12.216719      683.7478     
         2   0             -249.984        1.2721142     -0.40644409    -0.40647168     4.6292584      8.2103889e-07 -1.2049657e-06  9.9912558e-07  6.1083658      9.1625488      12.216719      683.7478     
         3   0             -249.984        1.2721146     -0.40646056    -0.40645656     4.629261      -2.4306694e-07  1.790594e-07   1.3300341e-07  6.1083658      9.1625488      12.216719      683.7478     
         4   0             -249.984        1.2721151     -0.40646005    -0.4064572      4.6292625     -1.0596079e-08  2.8447794e-07 -1.4871202e-08  6.1083658      9.1625488      12.216719      683.7478     
         5   0             -249.984        1.2721153     -0.40645972    -0.40645865     4.6292642     -5.8205604e-09  1.8662178e-07 -8.5342932e-09  6.1083658      9.1625488      12.216719      683.7478     
         6   0             -249.984        1.2721154     -0.4064598     -0.40645946     4.6292654      3.4794663e-09  9.9221812e-08  1.151517e-09   6.1083658      9.1625488      12.216719      683.7478     
         7   0             -249.984        1.2721154     -0.40646008    -0.4064601      4.6292665      3.684121e-09   3.2682218e-08  2.8603191e-09  6.1083658      9.1625488      12.216719      683.7478     
         8   0             -249.984        1.2721155     -0.40646024    -0.40646025     4.6292669      2.0728032e-09  1.082446e-08  -1.3996452e-10  6.1083658      9.1625488      12.216719      683.7478     
         9   0             -249.984        1.2721155     -0.4064603     -0.40646029     4.629267       6.1949899e-10  3.8056592e-09 -6.5244828e-10  6.1083658      9.1625488      12.216719      683.7478     
        10   0             -249.984        1.2721155     -0.40646032    -0.40646031     4.629267       6.0023455e-11  1.1898882e-09 -1.896182e-10   6.1083658      9.1625488      12.216719      683.7478     
        11   0             -249.984        1.2721155     -0.40646032    -0.40646031     4.6292671     -3.9767459e-11  3.8257162e-10  7.6124504e-12  6.1083658      9.1625488      12.216719      683.7478     
        12   0             -249.984        1.2721155     -0.40646032    -0.40646032     4.6292671     -1.4553638e-11  6.1646012e-11  3.8289376e-11  6.1083658      9.1625488      12.216719      683.7478     
        13   0             -249.984        1.2721155     -0.40646032    -0.40646032     4.6292671      3.7180313e-12  2.5069971e-12 -1.6714669e-11  6.1083658      9.1625488      12.216719      683.7478     
        14   0             -249.984        1.2721155     -0.40646032    -0.40646032     4.6292671      4.0189134e-11 -3.4535994e-12  9.152521e-12   6.1083658      9.1625488      12.216719      683.7478     
        15   0             -249.984        1.2721155     -0.40646032    -0.40646032     4.6292671      1.3741126e-11 -9.8608213e-12 -2.6752819e-11  6.1083658      9.1625488      12.216719      683.7478     
        16   0             -249.984        1.2721155     -0.40646032    -0.40646032     4.6292671     -5.3421061e-13 -9.1723371e-12 -3.0989411e-12  6.1083658      9.1625488      12.216719      683.7478     
        17   0             -249.984        1.2721155     -0.40646032    -0.40646032     4.6292671     -3.188698e-11   1.670908e-11   5.7795073e-11  6.1083658      9.1625488      12.216719      683.7478     
        18   0             -249.984        1.2721155     -0.40646032    -0.40646032     4.6292671      1.5300401e-11 -2.7782243e-11  3.1733787e-11  6.1083658      9.1625488      12.216719      683.7478     
        19   0             -249.984        1.2721155     -0.40646032    -0.40646032     4.6292671      1.8497944e-12  1.0084388e-11 -2.0504635e-11  6.1083658      9.1625488      12.216719      683.7478     
        20   0             -249.984        1.2721155     -0.40646032    -0.40646032     4.6292671     -3.0868257e-11 -4.7060817e-11 -3.4307346e-12  6.1083658      9.1625488      12.216719      683.7478     
        21   0             -249.984        1.2721155     -0.40646032    -0.40646032     4.6292671      3.7587534e-11 -1.6876755e-11 -7.5077805e-12  6.1083658      9.1625488      12.216719      683.7478     
        22   0             -249.984        1.2721155     -0.40646032    -0.40646032     4.6292671      1.114494e-11  -4.3839422e-12  6.6328212e-12  6.1083658      9.1625488      12.216719      683.7478     
        23   0             -249.984        1.2721155     -0.40646032    -0.40646032     4.6292671     -7.0568249e-12  2.1362318e-11 -2.0180971e-11  6.1083658      9.1625488      12.216719      683.7478     
        24   0             -249.984        1.2721155     -0.40646032    -0.40646032     4.6292671     -3.1360577e-12 -4.5726021e-11 -3.1068675e-11  6.1083658      9.1625488      12.216719      683.7478     
Loop time of 0.00502125 on 4 procs for 23 steps with 48 atoms

0.0% CPU use with 4 MPI tasks x 1 OpenMP threads

Minimization stats:
  Stopping criterion = force tolerance
  Energy initial, next-to-last, final = 
     -249.983999978315  -249.984000000087  -249.984000000087
  Force two-norm initial, final = 0.00065031182 6.4782723e-11
  Force max component initial, final = 0.00011951843 1.4592369e-11
  Final line search alpha, max atom move = 1 1.4592369e-11
  Iterations, force evaluations = 23 46

MPI task timing breakdown:
Section |  min time  |  avg time  |  max time  |%varavg| %total
---------------------------------------------------------------
Pair    | 0.004244   | 0.004274   | 0.004297   |   0.0 | 85.12
Neigh   | 0          | 0          | 0          |   0.0 |  0.00
Comm    | 0.000301   | 0.000329   | 0.000355   |   0.0 |  6.55
Output  | 0.000197   | 0.00020475 | 0.000226   |   0.0 |  4.08
Modify  | 0          | 0          | 0          |   0.0 |  0.00
Other   |            | 0.0002135  |            |       |  4.25

Nlocal:             12 ave          12 max          12 min
Histogram: 4 0 0 0 0 0 0 0 0 0
Nghost:            293 ave         293 max         293 min
Histogram: 4 0 0 0 0 0 0 0 0 0
Neighs:            348 ave         349 max         347 min
Histogram: 2 0 0 0 0 0 0 0 0 2
FullNghs:          696 ave         696 max         696 min
Histogram: 4 0 0 0 0 0 0 0 0 0

Total # of neighbors = 2784
Ave neighs/atom = 58
Neighbor list builds = 0
Dangerous builds = 0

# Obtain new stress tensor

variable tmp equal pxx
variable pxx1 equal ${tmp}
variable pxx1 equal -0.406460319036466
variable tmp equal pyy
variable pyy1 equal ${tmp}
variable pyy1 equal -0.406460317413127
variable tmp equal pzz
variable pzz1 equal ${tmp}
variable pzz1 equal 4.62926706105268
variable tmp equal pxy
variable pxy1 equal ${tmp}
variable pxy1 equal -3.1360577374662e-12
variable tmp equal pxz
variable pxz1 equal ${tmp}
variable pxz1 equal -4.57260213195795e-11
variable tmp equal pyz
variable pyz1 equal ${tmp}
variable pyz1 equal -3.10686753370486e-11

# Compute elastic constant from pressure tensor

variable C1neg equal ${d1}
variable C1neg equal -40.6460319047913
variable C2neg equal ${d2}
variable C2neg equal -40.6460317659229
variable C3neg equal ${d3}
variable C3neg equal 462.926706190753
variable C4neg equal ${d4}
variable C4neg equal 4.67070970464252e-09
variable C5neg equal ${d5}
variable C5neg equal -5.18527624406348e-09
variable C6neg equal ${d6}
variable C6neg equal 2.31452277533511e-09

# Reset box and simulation parameters

clear
  using 1 OpenMP thread(s) per MPI task
Loaded 1 plugins from C:\Program Files\LAMMPS 64-bit 23Jun2022\plugins
Loaded 0 plugins from C:\Program Files\LAMMPS 64-bit 23Jun2022-MPI\plugins
Loaded 1 plugins from C:\Program Files\LAMMPS 64-bit 22Dec2022-MSMPI\plugins
Loaded 1 plugins from C:\Program Files\LAMMPS 64-bit 28Mar2023-MPI\plugins
box tilt large

The 'box' command has been removed and will be ignored

read_restart restart.equil
Reading restart file ...
  restart file = 22 Dec 2022, LAMMPS = 22 Dec 2022
  restoring atom style atomic from restart
  triclinic box = (0.002908538 0.002908538 0.002908538) to (6.1112744 9.1654573 12.21964) with tilt (0 0 0)
  1 by 2 by 2 MPI processor grid
  pair style meam stores no restart info
  48 atoms
  read_restart CPU = 0.000 seconds
include potential.mod
# NOTE: This script can be modified for different pair styles
# See in.elastic for more info.

# Choose potential
#-----------------------
#pair_style	sw
#pair_coeff * * Si.sw Si
#-----------------------
#pair_style morse	2.83994742	# D0[eV] a[1/A] r0[A] rc[A], 1NN for BCC
#pair_coeff 1 1	2.1173	1.0202	2.4595	2.6497	#	Fe-Fe
#-----------------------
#pair_style smatb # R0(A)   p       q     A(eV)   xi(eV)  Rcs(A)   Rc(A), 4NN: Rcs=4NN, Rc=(4NN+5NN)/2
#pair_coeff 1 1	2.4802	7.0149	2.3779	0.3144	3.0551	4.033	4.176	#	Co	Co
#-----------------------
#pair_style eam/alloy
#pair_coeff * * AlCrFeCoNi_Zhou04.eam.alloy Fe
#-----------------------
pair_style meam
pair_coeff * * ./../../library.meam Ti V N ./../../TiVN.meam Ti V
#-----------------------

# Setup neighbor style
neighbor 1.0 nsq
neigh_modify once no every 1 delay 0 check yes

# Setup minimization style
min_style	     cg
min_modify	     dmax ${dmax} line quadratic
min_modify	     dmax 0.01 line quadratic

# Setup output
thermo		1
thermo_style custom step temp pe press pxx pyy pzz pxy pxz pyz lx ly lz vol
thermo_modify norm no

# Positive deformation

variable delta equal ${up}*${len0}
variable delta equal 1e-06*${len0}
variable delta equal 1e-06*12.2167316957704
variable deltaxy equal ${up}*xy
variable deltaxy equal 1e-06*xy
variable deltaxz equal ${up}*xz
variable deltaxz equal 1e-06*xz
variable deltayz equal ${up}*yz
variable deltayz equal 1e-06*yz
if "${dir} == 1" then    "change_box all x delta 0 ${delta} xy delta ${deltaxy} xz delta ${deltaxz} remap units box"
if "${dir} == 2" then    "change_box all y delta 0 ${delta} yz delta ${deltayz} remap units box"
if "${dir} == 3" then    "change_box all z delta 0 ${delta} remap units box"
change_box all z delta 0 ${delta} remap units box
change_box all z delta 0 1.22167316957704e-05 remap units box
Changing box ...
  triclinic box = (0.002908538 0.002908538 0.002908538) to (6.1112744 9.1654573 12.219652) with tilt (0 0 0)
if "${dir} == 4" then    "change_box all yz delta ${delta} remap units box"
if "${dir} == 5" then    "change_box all xz delta ${delta} remap units box"
if "${dir} == 6" then    "change_box all xy delta ${delta} remap units box"

# Relax atoms positions

minimize ${etol} ${ftol} ${maxiter} ${maxeval}
minimize 0 ${ftol} ${maxiter} ${maxeval}
minimize 0 1e-10 ${maxiter} ${maxeval}
minimize 0 1e-10 100 ${maxeval}
minimize 0 1e-10 100 1000
Neighbor list info ...
  update: every = 1 steps, delay = 0 steps, check = yes
  max neighbors/atom: 2000, page size: 100000
  master list distance cutoff = 6
  ghost atom cutoff = 6
  2 neighbor lists, perpetual/occasional/extra = 2 0 0
  (1) pair meam, perpetual
      attributes: full, newton on
      pair build: full/nsq
      stencil: none
      bin: none
  (2) pair meam, perpetual, half/full from (1)
      attributes: half, newton on
      pair build: halffull/newton
      stencil: none
      bin: none
Per MPI rank memory allocation (min/avg/max) = 9.781 | 9.781 | 9.781 Mbytes
   Step          Temp          PotEng         Press           Pxx            Pyy            Pzz            Pxy            Pxz            Pyz             Lx             Ly             Lz           Volume    
[...]
#pair_coeff 1 1	2.4802	7.0149	2.3779	0.3144	3.0551	4.033	4.176	#	Co	Co
#-----------------------
#pair_style eam/alloy
#pair_coeff * * AlCrFeCoNi_Zhou04.eam.alloy Fe
#-----------------------
pair_style meam
pair_coeff * * ./../../library.meam Ti V N ./../../TiVN.meam Ti V
#-----------------------

# Setup neighbor style
neighbor 1.0 nsq
neigh_modify once no every 1 delay 0 check yes

# Setup minimization style
min_style	     cg
min_modify	     dmax ${dmax} line quadratic
min_modify	     dmax 0.01 line quadratic

# Setup output
thermo		1
thermo_style custom step temp pe press pxx pyy pzz pxy pxz pyz lx ly lz vol
thermo_modify norm no

# Positive deformation

variable delta equal ${up}*${len0}
variable delta equal 1e-06*${len0}
variable delta equal 1e-06*9.16254877182778
variable deltaxy equal ${up}*xy
variable deltaxy equal 1e-06*xy
variable deltaxz equal ${up}*xz
variable deltaxz equal 1e-06*xz
variable deltayz equal ${up}*yz
variable deltayz equal 1e-06*yz
if "${dir} == 1" then    "change_box all x delta 0 ${delta} xy delta ${deltaxy} xz delta ${deltaxz} remap units box"
if "${dir} == 2" then    "change_box all y delta 0 ${delta} yz delta ${deltayz} remap units box"
if "${dir} == 3" then    "change_box all z delta 0 ${delta} remap units box"
if "${dir} == 4" then    "change_box all yz delta ${delta} remap units box"
if "${dir} == 5" then    "change_box all xz delta ${delta} remap units box"
if "${dir} == 6" then    "change_box all xy delta ${delta} remap units box"
change_box all xy delta ${delta} remap units box
change_box all xy delta 9.16254877182778e-06 remap units box
Changing box ...
  triclinic box = (0.002908538 0.002908538 0.002908538) to (6.1112744 9.1654573 12.21964) with tilt (9.1625488e-06 0 0)

# Relax atoms positions

minimize ${etol} ${ftol} ${maxiter} ${maxeval}
minimize 0 ${ftol} ${maxiter} ${maxeval}
minimize 0 1e-10 ${maxiter} ${maxeval}
minimize 0 1e-10 100 ${maxeval}
minimize 0 1e-10 100 1000
Neighbor list info ...
  update: every = 1 steps, delay = 0 steps, check = yes
  max neighbors/atom: 2000, page size: 100000
  master list distance cutoff = 6
  ghost atom cutoff = 6
  2 neighbor lists, perpetual/occasional/extra = 2 0 0
  (1) pair meam, perpetual
      attributes: full, newton on
      pair build: full/nsq
      stencil: none
      bin: none
  (2) pair meam, perpetual, half/full from (1)
      attributes: half, newton on
      pair build: halffull/newton
      stencil: none
      bin: none
Per MPI rank memory allocation (min/avg/max) = 9.781 | 9.781 | 9.781 Mbytes
   Step          Temp          PotEng         Press           Pxx            Pyy            Pzz            Pxy            Pxz            Pyz             Lx             Ly             Lz           Volume    
         1   0             -249.984        2.6823083e-05  0.00013249213 -3.2709958e-05 -1.9312918e-05 -0.63855665    -7.5979499e-06 -3.2591673e-06  6.1083658      9.1625488      12.216732      683.74848    
         2   0             -249.984       -1.3711936e-06  1.8534762e-05 -1.0295563e-05 -1.235278e-05  -0.63856015    -1.2049564e-06  9.9916044e-07  6.1083658      9.1625488      12.216732      683.74848    
         3   0             -249.984       -9.4186662e-07  2.0729956e-06  4.8267077e-06 -9.7253032e-06 -0.63856122     1.7897126e-07  1.3300981e-07  6.1083658      9.1625488      12.216732      683.74848    
         4   0             -249.984       -4.8484753e-07  2.5794842e-06  4.1870212e-06 -8.221048e-06  -0.63856099     2.8446803e-07 -1.490316e-08   6.1083658      9.1625488      12.216732      683.74848    
         5   0             -249.984       -2.9822928e-07  2.9115753e-06  2.7371675e-06 -6.5434307e-06 -0.63856098     1.86633e-07   -8.5423051e-09  6.1083658      9.1625488      12.216732      683.74848    
         6   0             -249.984       -2.0351622e-07  2.8338102e-06  1.9345323e-06 -5.3788911e-06 -0.63856097     9.9201393e-08  1.1303151e-09  6.1083658      9.1625488      12.216732      683.74848    
         7   0             -249.984       -1.3227876e-07  2.5489988e-06  1.290008e-06  -4.235843e-06  -0.63856097     3.2580655e-08  2.8411515e-09  6.1083658      9.1625488      12.216732      683.74848    
         8   0             -249.984       -1.1463433e-07  2.3916901e-06  1.139997e-06  -3.8755901e-06 -0.63856097     1.0857023e-08 -1.4644019e-10  6.1083658      9.1625488      12.216732      683.74848    
         9   0             -249.984       -1.085149e-07   2.3342489e-06  1.10419e-06   -3.7639836e-06 -0.63856097     3.7392571e-09 -6.5912617e-10  6.1083658      9.1625488      12.216732      683.74848    
        10   0             -249.984       -1.0608441e-07  2.3160228e-06  1.0837036e-06 -3.7179797e-06 -0.63856098     1.1658541e-09 -1.5632844e-10  6.1083658      9.1625488      12.216732      683.74848    
        11   0             -249.984       -1.0548259e-07  2.313593e-06   1.0766328e-06 -3.7066735e-06 -0.63856098     3.9663866e-10  5.3724579e-11  6.1083658      9.1625488      12.216732      683.74848    
        12   0             -249.984       -1.0518949e-07  2.3128136e-06  1.0739824e-06 -3.7023644e-06 -0.63856098     8.9091799e-11  3.894581e-11   6.1083658      9.1625488      12.216732      683.74848    
        13   0             -249.984       -1.0510035e-07  2.3125316e-06  1.0730458e-06 -3.7008784e-06 -0.63856098     3.6555172e-11  8.122073e-12   6.1083658      9.1625488      12.216732      683.74848    
        14   0             -249.984       -1.0507953e-07  2.312414e-06   1.0733174e-06 -3.70097e-06   -0.63856098    -2.5430193e-11  7.363979e-12   6.1083658      9.1625488      12.216732      683.74848    
        15   0             -249.984       -1.0504068e-07  2.3124275e-06  1.0731561e-06 -3.7007057e-06 -0.63856098    -6.673209e-11   9.4192674e-12  6.1083658      9.1625488      12.216732      683.74848    
        16   0             -249.984       -1.0503999e-07  2.3122704e-06  1.0733351e-06 -3.7007254e-06 -0.63856098    -2.2248942e-11 -1.2463838e-11  6.1083658      9.1625488      12.216732      683.74848    
        17   0             -249.984       -1.0503444e-07  2.3124754e-06  1.0733476e-06 -3.7009263e-06 -0.63856098     1.3636038e-11  2.028308e-11   6.1083658      9.1625488      12.216732      683.74848    
        18   0             -249.984       -1.0509098e-07  2.3124202e-06  1.0730958e-06 -3.7007889e-06 -0.63856098     2.4956638e-11 -4.4555808e-12  6.1083658      9.1625488      12.216732      683.74848    
        19   0             -249.984       -1.0504068e-07  2.3124879e-06  1.0731509e-06 -3.7007608e-06 -0.63856098    -3.987666e-11   5.3335878e-12  6.1083658      9.1625488      12.216732      683.74848    
        20   0             -249.984       -1.0504901e-07  2.3123214e-06  1.0733902e-06 -3.7008586e-06 -0.63856098    -2.8924437e-11  2.0668732e-11  6.1083658      9.1625488      12.216732      683.74848    
        21   0             -249.984       -1.0508127e-07  2.3124129e-06  1.0733153e-06 -3.7009721e-06 -0.63856098     1.1565507e-11 -3.3498915e-11  6.1083658      9.1625488      12.216732      683.74848    
        22   0             -249.984       -1.0504762e-07  2.3122652e-06  1.0734849e-06 -3.700893e-06  -0.63856098     4.5414507e-12  4.4499916e-12  6.1083658      9.1625488      12.216732      683.74848    
        23   0             -249.984       -1.0504623e-07  2.3124254e-06  1.0732654e-06 -3.7008295e-06 -0.63856098     3.844685e-11   2.0897888e-11  6.1083658      9.1625488      12.216732      683.74848    
        24   0             -249.984       -1.0497062e-07  2.3125409e-06  1.073384e-06  -3.7008368e-06 -0.63856098     5.454517e-12  -1.3711746e-11  6.1083658      9.1625488      12.216732      683.74848    
Loop time of 0.0053085 on 4 procs for 23 steps with 48 atoms

0.0% CPU use with 4 MPI tasks x 1 OpenMP threads

Minimization stats:
  Stopping criterion = force tolerance
  Energy initial, next-to-last, final = 
     -249.983999979166  -249.984000000938  -249.984000000938
  Force two-norm initial, final = 0.00065031143 6.4758869e-11
  Force max component initial, final = 0.00011951964 1.4629881e-11
  Final line search alpha, max atom move = 1 1.4629881e-11
  Iterations, force evaluations = 23 46

MPI task timing breakdown:
Section |  min time  |  avg time  |  max time  |%varavg| %total
---------------------------------------------------------------
Pair    | 0.004488   | 0.004503   | 0.004519   |   0.0 | 84.83
Neigh   | 0          | 0          | 0          |   0.0 |  0.00
Comm    | 0.000355   | 0.00037325 | 0.000391   |   0.0 |  7.03
Output  | 0.000206   | 0.000214   | 0.00023    |   0.0 |  4.03
Modify  | 0          | 0          | 0          |   0.0 |  0.00
Other   |            | 0.0002182  |            |       |  4.11

Nlocal:             12 ave          12 max          12 min
Histogram: 4 0 0 0 0 0 0 0 0 0
Nghost:            293 ave         293 max         293 min
Histogram: 4 0 0 0 0 0 0 0 0 0
Neighs:            348 ave         349 max         347 min
Histogram: 2 0 0 0 0 0 0 0 0 2
FullNghs:          696 ave         696 max         696 min
Histogram: 4 0 0 0 0 0 0 0 0 0

Total # of neighbors = 2784
Ave neighs/atom = 58
Neighbor list builds = 0
Dangerous builds = 0

# Obtain new stress tensor

variable tmp equal pe
variable e1 equal ${tmp}
variable e1 equal -249.984000000938
variable tmp equal press
variable p1 equal ${tmp}
variable p1 equal -1.04970617157161e-07
variable tmp equal pxx
variable pxx1 equal ${tmp}
variable pxx1 equal 2.31254093805583e-06
variable tmp equal pyy
variable pyy1 equal ${tmp}
variable pyy1 equal 1.07338400475916e-06
variable tmp equal pzz
variable pzz1 equal ${tmp}
variable pzz1 equal -3.70083679428647e-06
variable tmp equal pxy
variable pxy1 equal ${tmp}
variable pxy1 equal -0.638560975234955
variable tmp equal pxz
variable pxz1 equal ${tmp}
variable pxz1 equal 5.45451699573131e-12
variable tmp equal pyz
variable pyz1 equal ${tmp}
variable pyz1 equal -1.3711746217681e-11

# Compute elastic constant from pressure tensor

variable C1pos equal ${d1}
variable C1pos equal -0.000231252949144578
variable C2pos equal ${d2}
variable C2pos equal -0.00010731379026431
variable C3pos equal ${d3}
variable C3pos equal 0.000369998194063597
variable C4pos equal ${d4}
variable C4pos equal -6.40640261657928e-09
variable C5pos equal ${d5}
variable C5pos equal 6.7222412532394e-11
variable C6pos equal ${d6}
variable C6pos equal 63.8560975208674

# Combine positive and negative

variable C1${dir} equal 0.5*(${C1neg}+${C1pos})
variable C16 equal 0.5*(${C1neg}+${C1pos})
variable C16 equal 0.5*(0.000231250972002842+${C1pos})
variable C16 equal 0.5*(0.000231250972002842+-0.000231252949144578)
variable C2${dir} equal 0.5*(${C2neg}+${C2pos})
variable C26 equal 0.5*(${C2neg}+${C2pos})
variable C26 equal 0.5*(0.000107323884093172+${C2pos})
variable C26 equal 0.5*(0.000107323884093172+-0.00010731379026431)
variable C3${dir} equal 0.5*(${C3neg}+${C3pos})
variable C36 equal 0.5*(${C3neg}+${C3pos})
variable C36 equal 0.5*(-0.000369994239780125+${C3pos})
variable C36 equal 0.5*(-0.000369994239780125+0.000369998194063597)
variable C4${dir} equal 0.5*(${C4neg}+${C4pos})
variable C46 equal 0.5*(${C4neg}+${C4pos})
variable C46 equal 0.5*(2.71973853032613e-09+${C4pos})
variable C46 equal 0.5*(2.71973853032613e-09+-6.40640261657928e-09)
variable C5${dir} equal 0.5*(${C5neg}+${C5pos})
variable C56 equal 0.5*(${C5neg}+${C5pos})
variable C56 equal 0.5*(-2.75190163473505e-10+${C5pos})
variable C56 equal 0.5*(-2.75190163473505e-10+6.7222412532394e-11)
variable C6${dir} equal 0.5*(${C6neg}+${C6pos})
variable C66 equal 0.5*(${C6neg}+${C6pos})
variable C66 equal 0.5*(63.8560975277619+${C6pos})
variable C66 equal 0.5*(63.8560975277619+63.8560975208674)

# Delete dir to make sure it is not reused

variable dir delete

# Output final values

variable C11all equal ${C11}
variable C11all equal 462.925380264909
variable C22all equal ${C22}
variable C22all equal 462.925380253932
variable C33all equal ${C33}
variable C33all equal 462.92538026621

variable C12all equal 0.5*(${C12}+${C21})
variable C12all equal 0.5*(-40.646306217944+${C21})
variable C12all equal 0.5*(-40.646306217944+-40.6463062312115)
variable C13all equal 0.5*(${C13}+${C31})
variable C13all equal 0.5*(-40.6463062447915+${C31})
variable C13all equal 0.5*(-40.6463062447915+-40.6463062299109)
variable C23all equal 0.5*(${C23}+${C32})
variable C23all equal 0.5*(-40.6463062256963+${C32})
variable C23all equal 0.5*(-40.6463062256963+-40.6463062332408)

variable C44all equal ${C44}
variable C44all equal 63.8560975217398
variable C55all equal ${C55}
variable C55all equal 63.8560975216511
variable C66all equal ${C66}
variable C66all equal 63.8560975243146

variable C14all equal 0.5*(${C14}+${C41})
variable C14all equal 0.5*(6.45172566399502e-09+${C41})
variable C14all equal 0.5*(6.45172566399502e-09+4.92632483273675e-10)
variable C15all equal 0.5*(${C15}+${C51})
variable C15all equal 0.5*(-1.06141293185067e-08+${C51})
variable C15all equal 0.5*(-1.06141293185067e-08+1.73888907226758e-09)
variable C16all equal 0.5*(${C16}+${C61})
variable C16all equal 0.5*(-9.88570868001577e-10+${C61})
variable C16all equal 0.5*(-9.88570868001577e-10+-1.73197729539003e-09)

variable C24all equal 0.5*(${C24}+${C42})
variable C24all equal 0.5*(-2.16444990024984e-08+${C42})
variable C24all equal 0.5*(-2.16444990024984e-08+-4.86435358111997e-09)
variable C25all equal 0.5*(${C25}+${C52})
variable C25all equal 0.5*(-1.3944052241994e-08+${C52})
variable C25all equal 0.5*(-1.3944052241994e-08+-2.33500501667741e-09)
variable C26all equal 0.5*(${C26}+${C62})
variable C26all equal 0.5*(5.04691443100306e-09+${C62})
variable C26all equal 0.5*(5.04691443100306e-09+-1.45506017383758e-09)

variable C34all equal 0.5*(${C34}+${C43})
variable C34all equal 0.5*(-7.3882664865024e-09+${C43})
variable C34all equal 0.5*(-7.3882664865024e-09+-2.26213918815595e-09)
variable C35all equal 0.5*(${C35}+${C53})
variable C35all equal 0.5*(5.77533507050364e-09+${C53})
variable C35all equal 0.5*(5.77533507050364e-09+-9.69749146607335e-10)
variable C36all equal 0.5*(${C36}+${C63})
variable C36all equal 0.5*(1.97714173600315e-09+${C63})
variable C36all equal 0.5*(1.97714173600315e-09+-1.23767568641076e-09)

variable C45all equal 0.5*(${C45}+${C54})
variable C45all equal 0.5*(-3.12261571019717e-09+${C54})
variable C45all equal 0.5*(-3.12261571019717e-09+2.54215551309203e-09)
variable C46all equal 0.5*(${C46}+${C64})
variable C46all equal 0.5*(-1.84333204312658e-09+${C64})
variable C46all equal 0.5*(-1.84333204312658e-09+-2.22916885444045e-09)
variable C56all equal 0.5*(${C56}+${C65})
variable C56all equal 0.5*(-1.03983875470556e-10+${C65})
variable C56all equal 0.5*(-1.03983875470556e-10+4.2022918902994e-10)

# Average moduli for cubic crystals

variable C11cubic equal (${C11all}+${C22all}+${C33all})/3.0
variable C11cubic equal (462.925380264909+${C22all}+${C33all})/3.0
variable C11cubic equal (462.925380264909+462.925380253932+${C33all})/3.0
variable C11cubic equal (462.925380264909+462.925380253932+462.92538026621)/3.0
variable C12cubic equal (${C12all}+${C13all}+${C23all})/3.0
variable C12cubic equal (-40.6463062245777+${C13all}+${C23all})/3.0
variable C12cubic equal (-40.6463062245777+-40.6463062373512+${C23all})/3.0
variable C12cubic equal (-40.6463062245777+-40.6463062373512+-40.6463062294685)/3.0
variable C44cubic equal (${C44all}+${C55all}+${C66all})/3.0
variable C44cubic equal (63.8560975217398+${C55all}+${C66all})/3.0
variable C44cubic equal (63.8560975217398+63.8560975216511+${C66all})/3.0
variable C44cubic equal (63.8560975217398+63.8560975216511+63.8560975243146)/3.0

variable bulkmodulus equal (${C11cubic}+2*${C12cubic})/3.0
variable bulkmodulus equal (462.925380261684+2*${C12cubic})/3.0
variable bulkmodulus equal (462.925380261684+2*-40.6463062304658)/3.0
variable shearmodulus1 equal ${C44cubic}
variable shearmodulus1 equal 63.8560975225685
variable shearmodulus2 equal (${C11cubic}-${C12cubic})/2.0
variable shearmodulus2 equal (462.925380261684-${C12cubic})/2.0
variable shearmodulus2 equal (462.925380261684--40.6463062304658)/2.0
variable poissonratio equal 1.0/(1.0+${C11cubic}/${C12cubic})
variable poissonratio equal 1.0/(1.0+462.925380261684/${C12cubic})
variable poissonratio equal 1.0/(1.0+462.925380261684/-40.6463062304658)

# For Stillinger-Weber silicon, the analytical results
# are known to be (E. R. Cowley, 1988):
#               C11 = 151.4 GPa
#               C12 = 76.4 GPa
#               C44 = 56.4 GPa

print "========================================="
=========================================
print "Components of the Elastic Constant Tensor"
Components of the Elastic Constant Tensor
print "========================================="
=========================================

print "Elastic Constant C11all = ${C11all} ${cunits}"
Elastic Constant C11all = 462.925380264909 GPa
print "Elastic Constant C22all = ${C22all} ${cunits}"
Elastic Constant C22all = 462.925380253932 GPa
print "Elastic Constant C33all = ${C33all} ${cunits}"
Elastic Constant C33all = 462.92538026621 GPa

print "Elastic Constant C12all = ${C12all} ${cunits}"
Elastic Constant C12all = -40.6463062245777 GPa
print "Elastic Constant C13all = ${C13all} ${cunits}"
Elastic Constant C13all = -40.6463062373512 GPa
print "Elastic Constant C23all = ${C23all} ${cunits}"
Elastic Constant C23all = -40.6463062294685 GPa

print "Elastic Constant C44all = ${C44all} ${cunits}"
Elastic Constant C44all = 63.8560975217398 GPa
print "Elastic Constant C55all = ${C55all} ${cunits}"
Elastic Constant C55all = 63.8560975216511 GPa
print "Elastic Constant C66all = ${C66all} ${cunits}"
Elastic Constant C66all = 63.8560975243146 GPa

print "Elastic Constant C14all = ${C14all} ${cunits}"
Elastic Constant C14all = 3.47217907363435e-09 GPa
print "Elastic Constant C15all = ${C15all} ${cunits}"
Elastic Constant C15all = -4.43762012311956e-09 GPa
print "Elastic Constant C16all = ${C16all} ${cunits}"
Elastic Constant C16all = -1.3602740816958e-09 GPa

print "Elastic Constant C24all = ${C24all} ${cunits}"
Elastic Constant C24all = -1.32544262918092e-08 GPa
print "Elastic Constant C25all = ${C25all} ${cunits}"
Elastic Constant C25all = -8.1395286293357e-09 GPa
print "Elastic Constant C26all = ${C26all} ${cunits}"
Elastic Constant C26all = 1.79592712858274e-09 GPa

print "Elastic Constant C34all = ${C34all} ${cunits}"
Elastic Constant C34all = -4.82520283732917e-09 GPa
print "Elastic Constant C35all = ${C35all} ${cunits}"
Elastic Constant C35all = 2.40279296194815e-09 GPa
print "Elastic Constant C36all = ${C36all} ${cunits}"
Elastic Constant C36all = 3.69733024796195e-10 GPa

print "Elastic Constant C45all = ${C45all} ${cunits}"
Elastic Constant C45all = -2.9023009855257e-10 GPa
print "Elastic Constant C46all = ${C46all} ${cunits}"
Elastic Constant C46all = -2.03625044878352e-09 GPa
print "Elastic Constant C56all = ${C56all} ${cunits}"
Elastic Constant C56all = 1.58122656779692e-10 GPa

print "========================================="
=========================================
print "Average properties for a cubic crystal"
Average properties for a cubic crystal
print "========================================="
=========================================

print "Bulk Modulus = ${bulkmodulus} ${cunits}"
Bulk Modulus = 127.210922600251 GPa
print "Shear Modulus 1 = ${shearmodulus1} ${cunits}"
Shear Modulus 1 = 63.8560975225685 GPa
print "Shear Modulus 2 = ${shearmodulus2} ${cunits}"
Shear Modulus 2 = 251.785843246075 GPa
print "Poisson Ratio = ${poissonratio}"
Poisson Ratio = -0.0962546067993436
Total wall time: 0:00:00
