LAMMPS (22 Dec 2022)
  using 1 OpenMP thread(s) per MPI task
Loaded 1 plugins from C:\Program Files\LAMMPS 64-bit 23Jun2022\plugins
Loaded 0 plugins from C:\Program Files\LAMMPS 64-bit 23Jun2022-MPI\plugins
Loaded 1 plugins from C:\Program Files\LAMMPS 64-bit 22Dec2022-MSMPI\plugins
Loaded 1 plugins from C:\Program Files\LAMMPS 64-bit 28Mar2023-MPI\plugins
# Compute elastic constant tensor for a crystal
#
# Written by Aidan Thompson (Sandia, athomps@sandia.gov)
#
#  This script uses the following three include files.
#
#   init.mod      (must be modified for different crystal structures)
# 	       	  Define units, deformation parameters and initial
#		  configuration of the atoms and simulation cell.
#
#
#   potential.mod    (must be modified for different pair styles)
# 		     Define pair style and other attributes
#		     not stored in restart file
#
#
#   displace.mod    (displace.mod should not need to be modified)
# 		    Perform positive and negative box displacements
# 		    in direction ${dir} and size ${up}.
# 		    It uses the resultant changes
#		    in stress to compute one
# 		    row of the elastic stiffness tensor
#
#		    Inputs variables:
#		    	   dir = the Voigt deformation component
#		    		    (1,2,3,4,5,6)
#		    Global constants:
#       	    	   up = the deformation magnitude (strain units)
#       		   cfac = conversion from LAMMPS pressure units to
#               	   output units for elastic constants
#
#
#  To run this on a different system, it should only be necessary to
#  modify the files init.mod and potential.mod. In order to calculate
#  the elastic constants correctly, care must be taken to specify
#  the correct units in init.mod (units, cfac and cunits). It is also
#  important to verify that the minimization of energy w.r.t atom
#  positions in the deformed cell is fully converged.
#  One indication of this is that the elastic constants are insensitive
#  to the choice of the variable ${up} in init.mod. Another is to check
#  the final max and two-norm forces reported in the log file. If you know
#  that minimization is not required, you can set maxiter = 0.0 in
#  init.mod.
#

include init.mod
# NOTE: This script can be modified for different atomic structures,
# units, etc. See in.elastic for more info.
#

# Define the finite deformation size. Try several values of this
# variable to verify that results do not depend on it.
variable up equal 1.0e-6

# Define the amount of random jiggle for atoms
# This prevents atoms from staying on saddle points
variable atomjiggle equal 1.0e-5

# Uncomment one of these blocks, depending on what units
# you are using in LAMMPS and for output

# metal units, elastic constants in eV/A^3
#units		metal
#variable cfac equal 6.2414e-7
#variable cunits string eV/A^3

# metal units, elastic constants in GPa
units		metal
variable cfac equal 1.0e-4
variable cunits string GPa

# real units, elastic constants in GPa
#units		real
#variable cfac equal 1.01325e-4
#variable cunits string GPa

# Define minimization parameters
variable etol equal 0.0
variable ftol equal 1.0e-10
variable maxiter equal 1000
variable maxeval equal 100000
variable dmax equal 1.0e-2

# generate the box and atom positions using a diamond lattice

dimension    3
boundary     p p p
read_data    data.in
Reading data file ...
  orthogonal box = (0 0 0) to (3.02 3.02 3.02)
  1 by 2 by 2 MPI processor grid
  reading atoms ...
  2 atoms
  read_data CPU = 0.001 seconds
#replicate    2 3 4
replicate    2 3 4
Replication is creating a 2x3x4 = 24 times larger system...
  orthogonal box = (0 0 0) to (6.04 9.06 12.08)
  1 by 2 by 2 MPI processor grid
  48 atoms
  replicate CPU = 0.000 seconds
change_box   all triclinic
Changing box ...
  triclinic box = (0 0 0) to (6.04 9.06 12.08) with tilt (0 0 0)

# Need to set mass to something, just to satisfy LAMMPS
mass 1 1.0e-20

include potential.mod
# NOTE: This script can be modified for different pair styles
# See in.elastic for more info.

# Choose potential
#-----------------------
#pair_style	sw
#pair_coeff * * Si.sw Si
#-----------------------
#pair_style morse	2.83994742	# D0[eV] a[1/A] r0[A] rc[A], 1NN for BCC
#pair_coeff 1 1	2.1173	1.0202	2.4595	2.6497	#	Fe-Fe
#-----------------------
#pair_style smatb # R0(A)   p       q     A(eV)   xi(eV)  Rcs(A)   Rc(A), 4NN: Rcs=4NN, Rc=(4NN+5NN)/2
#pair_coeff 1 1	2.4802	7.0149	2.3779	0.3144	3.0551	4.033	4.176	#	Co	Co
#-----------------------
#pair_style eam/alloy
#pair_coeff * * AlCrFeCoNi_Zhou04.eam.alloy Fe
#-----------------------
pair_style meam
pair_coeff * * ./../../library.meam Ti V N ./../../TiVN.meam Ti V
#-----------------------

# Setup neighbor style
neighbor 1.0 nsq
neigh_modify once no every 1 delay 0 check yes

# Setup minimization style
min_style	     cg
min_modify	     dmax ${dmax} line quadratic
min_modify	     dmax 0.01 line quadratic

# Setup output
thermo		1
thermo_style custom step temp pe press pxx pyy pzz pxy pxz pyz lx ly lz vol
thermo_modify norm no

# Compute initial state
fix 3 all box/relax  aniso 0.0
minimize ${etol} ${ftol} ${maxiter} ${maxeval}
minimize 0 ${ftol} ${maxiter} ${maxeval}
minimize 0 1e-10 ${maxiter} ${maxeval}
minimize 0 1e-10 1000 ${maxeval}
minimize 0 1e-10 1000 100000
Neighbor list info ...
  update: every = 1 steps, delay = 0 steps, check = yes
  max neighbors/atom: 2000, page size: 100000
  master list distance cutoff = 6
  ghost atom cutoff = 6
  2 neighbor lists, perpetual/occasional/extra = 2 0 0
  (1) pair meam, perpetual
      attributes: full, newton on
      pair build: full/nsq
      stencil: none
      bin: none
  (2) pair meam, perpetual, half/full from (1)
      attributes: half, newton on
      pair build: halffull/newton
      stencil: none
      bin: none
Per MPI rank memory allocation (min/avg/max) = 9.781 | 9.781 | 9.781 Mbytes
   Step          Temp          PotEng         Press           Pxx            Pyy            Pzz            Pxy            Pxz            Pyz             Lx             Ly             Lz           Volume    
         0   0             -249.66769      45901.354      45901.354      45901.354      45901.354      2.2892439e-11 -4.7880205e-11 -8.0893497e-12  6.04           9.06           12.08          661.04659    
         1   0             -249.67335      45466.846      45466.846      45466.846      45466.846      5.9706121e-11 -2.1688422e-11  2.6732242e-11  6.040604       9.060906       12.081208      661.24493    
         2   0             -249.67895      45032.874      45032.874      45032.874      45032.874      1.5352135e-11 -3.3497723e-11 -3.504403e-11   6.041208       9.061812       12.082416      661.4433     
         3   0             -249.6845       44599.436      44599.436      44599.436      44599.436      2.7259145e-11 -1.9020597e-11  5.2609091e-11  6.041812       9.062718       12.083624      661.64171    
         4   0             -249.69         44166.534      44166.534      44166.534      44166.534     -3.5987622e-11 -3.1898661e-11 -1.0061768e-11  6.042416       9.063624       12.084832      661.84017    
         5   0             -249.69544      43734.165      43734.165      43734.165      43734.165      1.9404025e-11  6.1595159e-11 -9.9915812e-12  6.04302        9.06453        12.08604       662.03866    
         6   0             -249.70084      43302.329      43302.329      43302.329      43302.329     -7.722268e-12  -1.7291165e-12  2.6171774e-11  6.043624       9.065436       12.087248      662.23719    
         7   0             -249.70618      42871.027      42871.027      42871.027      42871.027      1.5702078e-11  3.3598579e-11  1.6060859e-11  6.044228       9.066342       12.088456      662.43576    
         8   0             -249.71146      42440.258      42440.258      42440.258      42440.258     -4.158637e-11   2.3001921e-11 -1.1257687e-11  6.044832       9.067248       12.089664      662.63437    
         9   0             -249.7167       42010.02       42010.02       42010.02       42010.02       1.0972015e-11 -1.9170909e-11  4.8539466e-11  6.045436       9.068154       12.090872      662.83302    
        10   0             -249.72188      41580.314      41580.314      41580.314      41580.314     -2.010626e-11   1.0177825e-11  2.7917758e-11  6.04604        9.06906        12.09208       663.03172    
        11   0             -249.72701      41151.14       41151.14       41151.14       41151.14       4.3252331e-11  4.116845e-11   1.1063183e-12  6.046644       9.069966       12.093288      663.23045    
        12   0             -249.73209      40722.496      40722.496      40722.496      40722.496      6.6756071e-11  2.9744342e-11 -1.1260957e-11  6.047248       9.070872       12.094496      663.42922    
        13   0             -249.73712      40294.382      40294.382      40294.382      40294.382     -9.6285495e-12 -2.1409511e-11 -1.3720179e-11  6.047852       9.071778       12.095704      663.62803    
        14   0             -249.74209      39866.798      39866.798      39866.798      39866.798      1.8984037e-11 -2.3580251e-11  3.5822555e-11  6.048456       9.072684       12.096912      663.82688    
        15   0             -249.74702      39439.743      39439.743      39439.743      39439.743     -8.6257239e-12 -2.1664564e-11 -9.2585037e-12  6.04906        9.07359        12.09812       664.02577    
        16   0             -249.75189      39013.217      39013.217      39013.217      39013.217      4.1025449e-11  2.8118676e-12  1.0527766e-11  6.049664       9.074496       12.099328      664.2247     
        17   0             -249.75671      38587.219      38587.219      38587.219      38587.219      9.4536909e-12 -4.7218536e-11  1.1896662e-11  6.050268       9.075402       12.100536      664.42366    
        18   0             -249.76147      38161.748      38161.748      38161.748      38161.748     -6.4914012e-12 -5.6170222e-11 -9.5847342e-12  6.050872       9.076308       12.101744      664.62267    
        19   0             -249.76619      37736.804      37736.804      37736.804      37736.804     -8.9084917e-12  1.7809225e-11  2.2876074e-11  6.051476       9.077214       12.102952      664.82172    
        20   0             -249.77085      37312.386      37312.386      37312.386      37312.386     -4.9817466e-12 -2.9606286e-11  1.5212716e-11  6.05208        9.07812        12.10416       665.02081    
        21   0             -249.77546      36888.493      36888.493      36888.493      36888.493     -2.2068222e-11 -4.2950524e-11  3.6014934e-11  6.052684       9.079026       12.105368      665.21994    
        22   0             -249.78002      36465.125      36465.125      36465.125      36465.125      3.3140189e-11 -2.07003e-11    7.8357069e-12  6.053288       9.079932       12.106576      665.4191     
        23   0             -249.78453      36042.281      36042.281      36042.281      36042.281     -1.5870474e-11  8.0671935e-12 -5.6086202e-11  6.053892       9.080838       12.107784      665.61831    
        24   0             -249.78898      35619.962      35619.962      35619.962      35619.962      4.70195e-11    2.6882598e-11 -3.5464993e-11  6.054496       9.081744       12.108992      665.81756    
        25   0             -249.79339      35198.167      35198.167      35198.167      35198.167     -4.1730674e-11  1.375443e-11   2.515525e-11   6.0551         9.08265        12.1102        666.01685    
        26   0             -249.79774      34776.894      34776.894      34776.894      34776.894     -3.2115574e-11 -2.0475287e-11  3.4409162e-11  6.055704       9.083556       12.111408      666.21617    
        27   0             -249.80204      34356.144      34356.144      34356.144      34356.144     -2.2417745e-11  1.191115e-11  -2.3538702e-11  6.056308       9.084462       12.112616      666.41554    
        28   0             -249.80629      33935.917      33935.917      33935.917      33935.917      1.9212242e-11 -7.713248e-11   6.3824e-11     6.056912       9.085368       12.113824      666.61495    
        29   0             -249.81049      33516.211      33516.211      33516.211      33516.211     -3.5376734e-12 -1.0820326e-11  2.3791379e-11  6.057516       9.086274       12.115032      666.81439    
        30   0             -249.81464      33097.026      33097.026      33097.026      33097.026      1.9199236e-11 -2.6434367e-11 -2.6534371e-11  6.05812        9.08718        12.11624       667.01388    
        31   0             -249.81873      32678.362      32678.362      32678.362      32678.362      2.5613932e-11  3.7723525e-11 -1.9994801e-11  6.058724       9.088086       12.117448      667.2134     
        32   0             -249.82278      32260.219      32260.219      32260.219      32260.219     -9.9675651e-12  2.9733373e-11  1.1426943e-11  6.059328       9.088992       12.118656      667.41297    
        33   0             -249.82677      31842.595      31842.595      31842.595      31842.595      5.4457743e-11  7.5435244e-12  7.077258e-12   6.059932       9.089898       12.119864      667.61257    
        34   0             -249.83071      31425.491      31425.491      31425.491      31425.491      4.3752315e-11 -2.1358606e-11  2.5636986e-12  6.060536       9.090804       12.121072      667.81222    
        35   0             -249.8346       31008.906      31008.906      31008.906      31008.906     -6.5867781e-11  5.1824487e-11  4.8529288e-11  6.06114        9.09171        12.12228       668.0119     
        36   0             -249.83844      30592.838      30592.838      30592.838      30592.838     -2.198419e-11  -1.4324838e-11 -3.6602374e-13  6.061744       9.092616       12.123488      668.21163    
        37   0             -249.84223      30177.288      30177.288      30177.288      30177.288     -3.2614377e-11 -5.4887153e-12  1.9360196e-11  6.062348       9.093522       12.124696      668.41139    
        38   0             -249.84597      29762.254      29762.254      29762.254      29762.254      1.7819547e-11  6.3184501e-13 -1.2470625e-12  6.062952       9.094428       12.125904      668.6112     
        39   0             -249.84965      29347.737      29347.737      29347.737      29347.737      7.6505368e-12 -8.5439813e-12  1.5641802e-11  6.063556       9.095334       12.127112      668.81104    
        40   0             -249.85329      28933.735      28933.735      28933.735      28933.735      5.3623573e-11  2.8748388e-12  3.4730712e-12  6.06416        9.09624        12.12832       669.01092    
        41   0             -249.85687      28520.248      28520.248      28520.248      28520.248      2.1419694e-11 -6.329401e-12   1.5898259e-11  6.064764       9.097146       12.129528      669.21085    
        42   0             -249.86041      28107.276      28107.276      28107.276      28107.276     -2.0912364e-11 -1.5146166e-11 -7.7391595e-12  6.065368       9.098052       12.130736      669.41081    
        43   0             -249.86389      27694.819      27694.819      27694.819      27694.819      5.2381402e-12  3.9348347e-12 -3.3387986e-11  6.065972       9.098958       12.131944      669.61081    
        44   0             -249.86732      27282.875      27282.875      27282.875      27282.875     -3.7083667e-11  8.3154575e-11 -1.8307285e-11  6.066576       9.099864       12.133152      669.81086    
        45   0             -249.87071      26871.445      26871.445      26871.445      26871.445     -5.131931e-12  -2.3976543e-11 -3.6835934e-12  6.06718        9.10077        12.13436       670.01094    
        46   0             -249.87404      26460.527      26460.527      26460.527      26460.527     -3.0520343e-11  3.322538e-11   3.201447e-12   6.067784       9.101676       12.135568      670.21106    
        47   0             -249.87732      26050.122      26050.122      26050.122      26050.122     -4.6469435e-11 -3.5255152e-11  2.9019998e-12  6.068388       9.102582       12.136776      670.41123    
        48   0             -249.88055      25640.23       25640.23       25640.23       25640.23       5.9913931e-11 -2.0241622e-11  1.7506268e-11  6.068992       9.103488       12.137984      670.61143    
        49   0             -249.88372      25230.848      25230.848      25230.848      25230.848     -7.0417096e-12 -2.5837239e-11  1.6572957e-14  6.069596       9.104394       12.139192      670.81167    
        50   0             -249.88685      24821.978      24821.978      24821.978      24821.978      2.1878285e-11  4.4021203e-11  3.2688684e-11  6.0702         9.1053         12.1404        671.01195    
        51   0             -249.88993      24413.619      24413.619      24413.619      24413.619      1.9591856e-11  3.0376662e-11 -2.8554725e-11  6.070804       9.106206       12.141608      671.21227    
        52   0             -249.89296      24005.769      24005.769      24005.769      24005.769      4.3245691e-11  8.0389685e-11 -8.2128288e-12  6.071408       9.107112       12.142816      671.41264    
        53   0             -249.89594      23598.429      23598.429      23598.429      23598.429     -2.7981705e-11 -1.5179268e-11 -8.9883777e-12  6.072012       9.108018       12.144024      671.61304    
        54   0             -249.89886      23191.599      23191.599      23191.599      23191.599     -3.0965224e-12  5.1481584e-11  2.4805816e-11  6.072616       9.108924       12.145232      671.81348    
        55   0             -249.90174      22785.276      22785.276      22785.276      22785.276     -1.3203667e-11 -1.2225503e-11  2.1572471e-11  6.07322        9.10983        12.14644       672.01396    
        56   0             -249.90457      22379.46       22379.46       22379.46       22379.46       4.3328532e-11  6.9295776e-12  3.5970958e-11  6.073824       9.110736       12.147648      672.21448    
        57   0             -249.90734      21974.152      21974.152      21974.152      21974.152      5.3959653e-12 -1.0416066e-11 -1.3458219e-11  6.074428       9.111642       12.148856      672.41504    
        58   0             -249.91007      21569.35       21569.35       21569.35       21569.35      -2.5487194e-11  3.4693337e-11 -1.3140163e-11  6.075032       9.112548       12.150064      672.61564    
        59   0             -249.91274      21165.054      21165.054      21165.054      21165.054     -3.9402666e-11 -1.7647182e-11  6.312007e-12   6.075636       9.113454       12.151272      672.81629    
        60   0             -249.91537      20761.263      20761.263      20761.263      20761.263      1.1363122e-11  2.6875846e-11 -1.9128598e-11  6.07624        9.11436        12.15248       673.01697    
        61   0             -249.91794      20357.978      20357.978      20357.978      20357.978     -3.020769e-11   3.2581582e-11 -7.3155808e-12  6.076844       9.115266       12.153688      673.21769    
        62   0             -249.92047      19955.198      19955.198      19955.198      19955.198     -2.1605014e-11 -4.9196234e-12 -2.0718548e-11  6.077448       9.116172       12.154896      673.41845    
        63   0             -249.92295      19552.922      19552.922      19552.922      19552.922      6.9521993e-11  3.957631e-11  -7.9218635e-13  6.078052       9.117078       12.156104      673.61925    
        64   0             -249.92537      19151.149      19151.149      19151.149      19151.149      4.3273148e-11 -3.3459897e-11 -3.1298533e-11  6.078656       9.117984       12.157312      673.82009    
        65   0             -249.92775      18749.88       18749.88       18749.88       18749.88      -3.8999803e-12  5.1362459e-11  1.1859219e-11  6.07926        9.11889        12.15852       674.02097    
        66   0             -249.93007      18349.114      18349.114      18349.114      18349.114      2.8454199e-11 -1.7346565e-11  1.099825e-11   6.079864       9.119796       12.159728      674.22189    
        67   0             -249.93235      17948.851      17948.851      17948.851      17948.851     -2.084957e-11   3.4452014e-12 -4.6155808e-12  6.080468       9.120702       12.160936      674.42285    
        68   0             -249.93458      17549.089      17549.089      17549.089      17549.089      2.5996311e-11 -2.2807359e-11  1.8704012e-11  6.081072       9.121608       12.162144      674.62385    
        69   0             -249.93675      17149.829      17149.829      17149.829      17149.829     -3.3600523e-11  2.0477675e-11 -4.489273e-11   6.081676       9.122514       12.163352      674.82489    
        70   0             -249.93888      16751.07       16751.07       16751.07       16751.07      -1.8849652e-11  1.6881226e-11  1.2121544e-11  6.08228        9.12342        12.16456       675.02597    
        71   0             -249.94096      16352.812      16352.812      16352.812      16352.812      2.5644281e-11  2.1469817e-11 -3.9515e-12     6.082884       9.124326       12.165768      675.22709    
        72   0             -249.94299      15955.054      15955.054      15955.054      15955.054     -2.3222608e-11 -5.0811032e-11 -4.2548272e-11  6.083488       9.125232       12.166976      675.42825    
        73   0             -249.94497      15557.795      15557.795      15557.795      15557.795      5.2912273e-12  1.783698e-11  -5.1997099e-12  6.084092       9.126138       12.168184      675.62945    
        74   0             -249.9469       15161.034      15161.034      15161.034      15161.034      1.0130103e-11 -2.8737938e-11  2.3210779e-11  6.084696       9.127044       12.169392      675.83069    
        75   0             -249.94878      14764.771      14764.771      14764.771      14764.771     -1.4888707e-11 -2.0457556e-11 -2.6657314e-11  6.0853         9.12795        12.1706        676.03197    
        76   0             -249.95061      14369.005      14369.005      14369.005      14369.005     -2.3986136e-11 -5.7754018e-11 -2.2637997e-11  6.085904       9.128856       12.171808      676.23329    
        77   0             -249.95239      13973.737      13973.737      13973.737      13973.737      2.1546671e-11 -4.0759274e-12 -4.2074089e-11  6.086508       9.129762       12.173016      676.43465    
        78   0             -249.95412      13578.965      13578.965      13578.965      13578.965      1.6027335e-11 -4.8715837e-11  3.8644064e-11  6.087112       9.130668       12.174224      676.63605    
        79   0             -249.9558       13184.69       13184.69       13184.69       13184.69       3.5162708e-12  8.1962792e-12 -7.9269025e-11  6.087716       9.131574       12.175432      676.83749    
        80   0             -249.95743      12790.91       12790.91       12790.91       12790.91      -6.6783127e-12  2.0821221e-11  2.2282647e-11  6.08832        9.13248        12.17664       677.03897    
        81   0             -249.95902      12397.625      12397.625      12397.625      12397.625      2.5886484e-12  2.5001012e-11 -3.0992719e-11  6.088924       9.133386       12.177848      677.24049    
        82   0             -249.96055      12004.836      12004.836      12004.836      12004.836      1.5441476e-12  4.6869105e-11  9.9941473e-12  6.089528       9.134292       12.179056      677.44205    
        83   0             -249.96204      11612.54       11612.54       11612.54       11612.54       3.2019757e-11 -1.6143375e-11 -1.5454328e-11  6.090132       9.135198       12.180264      677.64365    
        84   0             -249.96348      11220.739      11220.739      11220.739      11220.739      1.8680044e-11 -5.7534668e-11 -6.0027618e-11  6.090736       9.136104       12.181472      677.84529    
        85   0             -249.96486      10829.431      10829.431      10829.431      10829.431      1.7316448e-11 -2.5676308e-11 -2.1905203e-11  6.09134        9.13701        12.18268       678.04697    
        86   0             -249.9662       10438.616      10438.616      10438.616      10438.616      3.5619302e-12  3.3454508e-11  2.484911e-11   6.091944       9.137916       12.183888      678.24869    
        87   0             -249.96749      10048.294      10048.294      10048.294      10048.294      3.0320466e-11 -3.3886991e-11  2.2973676e-11  6.092548       9.138822       12.185096      678.45045    
        88   0             -249.96873      9658.4645      9658.4645      9658.4645      9658.4645     -6.1820248e-12 -2.0640673e-12  6.2577279e-12  6.093152       9.139728       12.186304      678.65225    
        89   0             -249.96993      9269.1263      9269.1263      9269.1263      9269.1263      4.9330063e-12  1.297028e-11   1.72282e-11    6.093756       9.140634       12.187512      678.85409    
        90   0             -249.97107      8880.2795      8880.2795      8880.2795      8880.2795      1.3562054e-11  1.0314201e-12 -2.0382826e-11  6.09436        9.14154        12.18872       679.05597    
        91   0             -249.97216      8491.9226      8491.9226      8491.9226      8491.9226      1.0989284e-11  1.2340628e-11 -9.7055602e-12  6.094964       9.142446       12.189928      679.25789    
        92   0             -249.97321      8104.0554      8104.0554      8104.0554      8104.0554      3.3582872e-11  6.5448063e-13  7.840678e-11   6.095568       9.143352       12.191136      679.45985    
        93   0             -249.97421      7716.6773      7716.6773      7716.6773      7716.6773     -3.7283128e-11 -4.7435744e-11  3.3532164e-12  6.096172       9.144258       12.192344      679.66185    
        94   0             -249.97516      7329.7878      7329.7878      7329.7878      7329.7878      2.3817132e-12  1.4144733e-11  5.4780178e-12  6.096776       9.145164       12.193552      679.86389    
        95   0             -249.97606      6943.3865      6943.3865      6943.3865      6943.3865      1.431769e-11   7.6015563e-12 -6.4310801e-11  6.09738        9.14607        12.19476       680.06597    
        96   0             -249.97691      6557.473       6557.473       6557.473       6557.473      -9.8045269e-11 -1.2600126e-11  3.5561445e-11  6.097984       9.146976       12.195968      680.26808    
        97   0             -249.97771      6172.0469      6172.0469      6172.0469      6172.0469      2.8912588e-11 -2.86727e-11   -1.6533773e-11  6.098588       9.147882       12.197176      680.47024    
        98   0             -249.97847      5787.1076      5787.1076      5787.1076      5787.1076     -2.3008952e-11  7.5294518e-12  5.667505e-12   6.099192       9.148788       12.198384      680.67244    
        99   0             -249.97917      5402.6548      5402.6548      5402.6548      5402.6548      2.8199827e-12  1.1168363e-11  9.4539213e-12  6.099796       9.149694       12.199592      680.87468    
       100   0             -249.97983      5018.688       5018.688       5018.688       5018.688      -1.073346e-11   2.6949548e-11 -1.4772466e-11  6.1004         9.1506         12.2008        681.07696    
       101   0             -249.98044      4635.2069      4635.2069      4635.2069      4635.2069     -3.0546284e-13  3.0042025e-11 -5.5449648e-11  6.101004       9.151506       12.202008      681.27928    
       102   0             -249.981        4252.2109      4252.2109      4252.2109      4252.2109      2.6546787e-12 -3.5987523e-11  1.8434225e-11  6.101608       9.152412       12.203216      681.48165    
       103   0             -249.98151      3869.6996      3869.6996      3869.6996      3869.6996     -2.1778022e-12  1.3422002e-11  1.6227087e-11  6.102212       9.153318       12.204424      681.68405    
       104   0             -249.98198      3487.6726      3487.6726      3487.6726      3487.6726     -9.7483345e-12 -6.5052114e-12  1.8325458e-11  6.102816       9.154224       12.205632      681.88649    
       105   0             -249.98239      3106.1295      3106.1295      3106.1295      3106.1295      1.5137842e-11  5.2156634e-13  1.9395748e-11  6.10342        9.15513        12.20684       682.08897    
       106   0             -249.98276      2725.0698      2725.0698      2725.0698      2725.0698      4.8762621e-12  2.0286167e-11  2.1231226e-11  6.104024       9.156036       12.208048      682.29149    
       107   0             -249.98308      2344.4931      2344.4931      2344.4931      2344.4931      2.8242647e-11 -6.2876599e-12 -5.341253e-11   6.104628       9.156942       12.209256      682.49405    
       108   0             -249.98336      1964.399       1964.399       1964.399       1964.399       4.1853177e-11  2.5550287e-11 -6.9111164e-11  6.105232       9.157848       12.210464      682.69665    
       109   0             -249.98358      1584.7863      1584.7863      1584.7863      1584.7863     -2.7613522e-11 -2.367055e-11  -5.2127305e-11  6.105836       9.158754       12.211672      682.89929    
       110   0             -249.98376      1205.6544      1205.6544      1205.6544      1205.6544      2.8506596e-12  2.2361545e-11 -1.2987273e-11  6.10644        9.15966        12.21288       683.10197    
       111   0             -249.98389      827.00298      827.00298      827.00298      827.00298     -1.3320127e-11 -1.6888207e-11  1.1958413e-11  6.107044       9.160566       12.214088      683.30469    
       112   0             -249.98397      448.83148      448.83148      448.83148      448.83148     -1.9891747e-12  6.9777378e-12  2.1030804e-11  6.107648       9.161472       12.215296      683.50745    
       113   0             -249.984        71.139508      71.139508      71.139508      71.139508     -2.2022719e-11 -1.1544812e-11 -1.8959508e-11  6.108252       9.162378       12.216504      683.71025    
       114   0             -249.984       -0.025225849   -0.025225848   -0.025225851   -0.025225848    1.8479473e-11  1.4617191e-11 -3.4421126e-11  6.1083659      9.1625488      12.216732      683.7485     
       115   0             -249.984       -1.1728011e-06 -1.1718961e-06 -1.1744888e-06 -1.1720184e-06 -1.4342306e-11 -2.6681658e-11  4.6014072e-12  6.1083659      9.1625488      12.216732      683.74848    
       116   0             -249.984        1.0475383e-10  7.8149128e-10 -1.0770219e-09  6.0979213e-10 -1.2127044e-11 -4.7152229e-13  1.9218598e-11  6.1083659      9.1625488      12.216732      683.74848    
Loop time of 0.017406 on 4 procs for 116 steps with 48 atoms

22.4% CPU use with 4 MPI tasks x 1 OpenMP threads

Minimization stats:
  Stopping criterion = force tolerance
  Energy initial, next-to-last, final = 
     -249.667694211782  -249.984000001238  -249.984000001238
  Force two-norm initial, final = 32.802567 7.6065243e-13
  Force max component initial, final = 18.938571 4.5448805e-13
  Final line search alpha, max atom move = 1 4.5448805e-13
  Iterations, force evaluations = 116 119

MPI task timing breakdown:
Section |  min time  |  avg time  |  max time  |%varavg| %total
---------------------------------------------------------------
Pair    | 0.011383   | 0.011525   | 0.011651   |   0.1 | 66.21
Neigh   | 0          | 0          | 0          |   0.0 |  0.00
Comm    | 0.000948   | 0.0010703  | 0.001209   |   0.3 |  6.15
Output  | 0.001062   | 0.0011217  | 0.001277   |   0.3 |  6.44
Modify  | 0          | 0          | 0          |   0.0 |  0.00
Other   |            | 0.003689   |            |       | 21.19

Nlocal:             12 ave          12 max          12 min
Histogram: 4 0 0 0 0 0 0 0 0 0
Nghost:            293 ave         293 max         293 min
Histogram: 4 0 0 0 0 0 0 0 0 0
Neighs:            348 ave         348 max         348 min
Histogram: 4 0 0 0 0 0 0 0 0 0
FullNghs:          696 ave         696 max         696 min
Histogram: 4 0 0 0 0 0 0 0 0 0

Total # of neighbors = 2784
Ave neighs/atom = 58
Neighbor list builds = 0
Dangerous builds = 0

variable tmp equal pxx
variable pxx0 equal ${tmp}
variable pxx0 equal 7.81491284823522e-10
variable tmp equal pyy
variable pyy0 equal ${tmp}
variable pyy0 equal -1.07702194379806e-09
variable tmp equal pzz
variable pzz0 equal ${tmp}
variable pzz0 equal 6.09792134362961e-10
variable tmp equal pyz
variable pyz0 equal ${tmp}
variable pyz0 equal 1.92185980913241e-11
variable tmp equal pxz
variable pxz0 equal ${tmp}
variable pxz0 equal -4.71522288196616e-13
variable tmp equal pxy
variable pxy0 equal ${tmp}
variable pxy0 equal -1.21270435855083e-11

variable tmp equal lx
variable lx0 equal ${tmp}
variable lx0 equal 6.10836585120296
variable tmp equal ly
variable ly0 equal ${tmp}
variable ly0 equal 9.16254877680446
variable tmp equal lz
variable lz0 equal ${tmp}
variable lz0 equal 12.2167317024059

# These formulas define the derivatives w.r.t. strain components
# Constants uses $, variables use v_
variable d1 equal -(v_pxx1-${pxx0})/(v_delta/v_len0)*${cfac}
variable d1 equal -(v_pxx1-7.81491284823522e-10)/(v_delta/v_len0)*${cfac}
variable d1 equal -(v_pxx1-7.81491284823522e-10)/(v_delta/v_len0)*0.0001
variable d2 equal -(v_pyy1-${pyy0})/(v_delta/v_len0)*${cfac}
variable d2 equal -(v_pyy1--1.07702194379806e-09)/(v_delta/v_len0)*${cfac}
variable d2 equal -(v_pyy1--1.07702194379806e-09)/(v_delta/v_len0)*0.0001
variable d3 equal -(v_pzz1-${pzz0})/(v_delta/v_len0)*${cfac}
variable d3 equal -(v_pzz1-6.09792134362961e-10)/(v_delta/v_len0)*${cfac}
variable d3 equal -(v_pzz1-6.09792134362961e-10)/(v_delta/v_len0)*0.0001
variable d4 equal -(v_pyz1-${pyz0})/(v_delta/v_len0)*${cfac}
variable d4 equal -(v_pyz1-1.92185980913241e-11)/(v_delta/v_len0)*${cfac}
variable d4 equal -(v_pyz1-1.92185980913241e-11)/(v_delta/v_len0)*0.0001
variable d5 equal -(v_pxz1-${pxz0})/(v_delta/v_len0)*${cfac}
variable d5 equal -(v_pxz1--4.71522288196616e-13)/(v_delta/v_len0)*${cfac}
variable d5 equal -(v_pxz1--4.71522288196616e-13)/(v_delta/v_len0)*0.0001
variable d6 equal -(v_pxy1-${pxy0})/(v_delta/v_len0)*${cfac}
variable d6 equal -(v_pxy1--1.21270435855083e-11)/(v_delta/v_len0)*${cfac}
variable d6 equal -(v_pxy1--1.21270435855083e-11)/(v_delta/v_len0)*0.0001

displace_atoms all random ${atomjiggle} ${atomjiggle} ${atomjiggle} 87287 units box
displace_atoms all random 1e-05 ${atomjiggle} ${atomjiggle} 87287 units box
displace_atoms all random 1e-05 1e-05 ${atomjiggle} 87287 units box
displace_atoms all random 1e-05 1e-05 1e-05 87287 units box
Displacing atoms ...

# Write restart
unfix 3
write_restart restart.equil
System init for write_restart ...

# uxx Perturbation

variable dir equal 1
include displace.mod
# NOTE: This script should not need to be
# modified. See in.elastic for more info.
#
# Find which reference length to use

if "${dir} == 1" then    "variable len0 equal ${lx0}"
variable len0 equal ${lx0}
variable len0 equal 6.10836585120296
if "${dir} == 2" then    "variable len0 equal ${ly0}"
if "${dir} == 3" then    "variable len0 equal ${lz0}"
if "${dir} == 4" then    "variable len0 equal ${lz0}"
if "${dir} == 5" then    "variable len0 equal ${lz0}"
if "${dir} == 6" then    "variable len0 equal ${ly0}"

# Reset box and simulation parameters

clear
  using 1 OpenMP thread(s) per MPI task
Loaded 1 plugins from C:\Program Files\LAMMPS 64-bit 23Jun2022\plugins
Loaded 0 plugins from C:\Program Files\LAMMPS 64-bit 23Jun2022-MPI\plugins
Loaded 1 plugins from C:\Program Files\LAMMPS 64-bit 22Dec2022-MSMPI\plugins
Loaded 1 plugins from C:\Program Files\LAMMPS 64-bit 28Mar2023-MPI\plugins
box tilt large

The 'box' command has been removed and will be ignored

read_restart restart.equil
Reading restart file ...
  restart file = 22 Dec 2022, LAMMPS = 22 Dec 2022
  restoring atom style atomic from restart
  triclinic box = (-0.034182926 -0.051274388 -0.068365851) to (6.0741829 9.1112744 12.148366) with tilt (0 0 0)
  1 by 2 by 2 MPI processor grid
  pair style meam stores no restart info
  48 atoms
  read_restart CPU = 0.000 seconds
include potential.mod
# NOTE: This script can be modified for different pair styles
# See in.elastic for more info.

# Choose potential
#-----------------------
#pair_style	sw
#pair_coeff * * Si.sw Si
#-----------------------
#pair_style morse	2.83994742	# D0[eV] a[1/A] r0[A] rc[A], 1NN for BCC
#pair_coeff 1 1	2.1173	1.0202	2.4595	2.6497	#	Fe-Fe
#-----------------------
#pair_style smatb # R0(A)   p       q     A(eV)   xi(eV)  Rcs(A)   Rc(A), 4NN: Rcs=4NN, Rc=(4NN+5NN)/2
#pair_coeff 1 1	2.4802	7.0149	2.3779	0.3144	3.0551	4.033	4.176	#	Co	Co
#-----------------------
#pair_style eam/alloy
#pair_coeff * * AlCrFeCoNi_Zhou04.eam.alloy Fe
#-----------------------
pair_style meam
pair_coeff * * ./../../library.meam Ti V N ./../../TiVN.meam Ti V
#-----------------------

# Setup neighbor style
neighbor 1.0 nsq
neigh_modify once no every 1 delay 0 check yes

# Setup minimization style
min_style	     cg
min_modify	     dmax ${dmax} line quadratic
min_modify	     dmax 0.01 line quadratic

# Setup output
thermo		1
thermo_style custom step temp pe press pxx pyy pzz pxy pxz pyz lx ly lz vol
thermo_modify norm no

# Negative deformation

variable delta equal -${up}*${len0}
variable delta equal -1e-06*${len0}
variable delta equal -1e-06*6.10836585120296
variable deltaxy equal -${up}*xy
variable deltaxy equal -1e-06*xy
variable deltaxz equal -${up}*xz
variable deltaxz equal -1e-06*xz
variable deltayz equal -${up}*yz
variable deltayz equal -1e-06*yz
if "${dir} == 1" then    "change_box all x delta 0 ${delta} xy delta ${deltaxy} xz delta ${deltaxz} remap units box"
change_box all x delta 0 ${delta} xy delta ${deltaxy} xz delta ${deltaxz} remap units box
change_box all x delta 0 -6.10836585120296e-06 xy delta ${deltaxy} xz delta ${deltaxz} remap units box
change_box all x delta 0 -6.10836585120296e-06 xy delta -0 xz delta ${deltaxz} remap units box
change_box all x delta 0 -6.10836585120296e-06 xy delta -0 xz delta -0 remap units box
Changing box ...
  triclinic box = (-0.034182926 -0.051274388 -0.068365851) to (6.0741768 9.1112744 12.148366) with tilt (0 0 0)
  triclinic box = (-0.034182926 -0.051274388 -0.068365851) to (6.0741768 9.1112744 12.148366) with tilt (0 0 0)
  triclinic box = (-0.034182926 -0.051274388 -0.068365851) to (6.0741768 9.1112744 12.148366) with tilt (0 0 0)
if "${dir} == 2" then    "change_box all y delta 0 ${delta} yz delta ${deltayz} remap units box"
if "${dir} == 3" then    "change_box all z delta 0 ${delta} remap units box"
if "${dir} == 4" then    "change_box all yz delta ${delta} remap units box"
if "${dir} == 5" then    "change_box all xz delta ${delta} remap units box"
if "${dir} == 6" then    "change_box all xy delta ${delta} remap units box"

# Relax atoms positions

minimize ${etol} ${ftol} ${maxiter} ${maxeval}
minimize 0 ${ftol} ${maxiter} ${maxeval}
minimize 0 1e-10 ${maxiter} ${maxeval}
minimize 0 1e-10 1000 ${maxeval}
minimize 0 1e-10 1000 100000
Neighbor list info ...
  update: every = 1 steps, delay = 0 steps, check = yes
  max neighbors/atom: 2000, page size: 100000
  master list distance cutoff = 6
  ghost atom cutoff = 6
  2 neighbor lists, perpetual/occasional/extra = 2 0 0
  (1) pair meam, perpetual
      attributes: full, newton on
      pair build: full/nsq
      stencil: none
      bin: none
  (2) pair meam, perpetual, half/full from (1)
      attributes: half, newton on
      pair build: halffull/newton
      stencil: none
      bin: none
Per MPI rank memory allocation (min/avg/max) = 9.768 | 9.77 | 9.772 Mbytes
   Step          Temp          PotEng         Press           Pxx            Pyy            Pzz            Pxy            Pxz            Pyz             Lx             Ly             Lz           Volume    
       116   0             -249.984        1.2721507      1.8146712      1.0008814      1.0008996     -1.4337473e-06 -2.9206087e-06 -4.5668261e-06  6.1083597      9.1625488      12.216732      683.7478     
       117   0             -249.984        1.2721167      1.8146437      1.0008499      1.0008566     -6.3616788e-07 -1.0001863e-06 -7.7276895e-07  6.1083597      9.1625488      12.216732      683.7478     
       118   0             -249.984        1.2721147      1.814643       1.0008491      1.0008519     -1.154824e-07  -3.3021747e-07 -9.3801843e-08  6.1083597      9.1625488      12.216732      683.7478     
       119   0             -249.984        1.2721145      1.8146417      1.00085        1.0008519     -2.9392563e-08 -1.4693865e-07 -2.7871312e-08  6.1083597      9.1625488      12.216732      683.7478     
       120   0             -249.984        1.2721145      1.8146414      1.0008507      1.0008515     -2.0238427e-09 -4.2978357e-08  1.2137412e-09  6.1083597      9.1625488      12.216732      683.7478     
       121   0             -249.984        1.2721146      1.8146414      1.000851       1.0008512     -7.844375e-10  -1.5625354e-08 -2.9222511e-09  6.1083597      9.1625488      12.216732      683.7478     
       122   0             -249.984        1.2721146      1.8146414      1.0008511      1.0008512      1.5924945e-10 -3.3242029e-09 -2.2457857e-09  6.1083597      9.1625488      12.216732      683.7478     
       123   0             -249.984        1.2721146      1.8146414      1.0008511      1.0008511     -1.7651219e-10  2.2366438e-10 -5.8401447e-10  6.1083597      9.1625488      12.216732      683.7478     
       124   0             -249.984        1.2721146      1.8146414      1.0008511      1.0008511     -9.3553583e-11  4.7022201e-11 -2.8047475e-11  6.1083597      9.1625488      12.216732      683.7478     
       125   0             -249.984        1.2721146      1.8146414      1.0008511      1.0008511     -1.9716456e-11 -9.4954928e-12  6.4580326e-12  6.1083597      9.1625488      12.216732      683.7478     
       126   0             -249.984        1.2721146      1.8146414      1.0008511      1.0008511     -4.6727619e-12 -3.4209789e-11 -4.8769071e-11  6.1083597      9.1625488      12.216732      683.7478     
       127   0             -249.984        1.2721146      1.8146414      1.0008511      1.0008511     -4.4678192e-11  3.4860165e-11  2.6459134e-11  6.1083597      9.1625488      12.216732      683.7478     
       128   0             -249.984        1.2721146      1.8146414      1.0008511      1.0008511     -2.1370357e-12  3.7526708e-11  2.8748661e-12  6.1083597      9.1625488      12.216732      683.7478     
       129   0             -249.984        1.2721146      1.8146414      1.0008511      1.0008511      5.8707227e-12 -1.4373314e-11  3.3226095e-11  6.1083597      9.1625488      12.216732      683.7478     
       130   0             -249.984        1.2721146      1.8146414      1.0008511      1.0008511      4.7909598e-12  4.6176712e-12 -3.8474834e-11  6.1083597      9.1625488      12.216732      683.7478     
       131   0             -249.984        1.2721146      1.8146414      1.0008511      1.0008511      8.8526877e-12  5.5216941e-11 -7.8654874e-13  6.1083597      9.1625488      12.216732      683.7478     
       132   0             -249.984        1.2721146      1.8146414      1.0008511      1.0008511      1.8102396e-12 -3.6290993e-11 -4.15377e-11    6.1083597      9.1625488      12.216732      683.7478     
       133   0             -249.984        1.2721146      1.8146414      1.0008511      1.0008511     -2.9101385e-11 -1.7560158e-12  2.2804832e-11  6.1083597      9.1625488      12.216732      683.7478     
       134   0             -249.984        1.2721146      1.8146414      1.0008511      1.0008511      8.1342899e-12  3.2518811e-11 -2.7268039e-11  6.1083597      9.1625488      12.216732      683.7478     
       135   0             -249.984        1.2721146      1.8146414      1.0008511      1.0008511     -3.4477102e-11  3.9022573e-11  5.9184236e-12  6.1083597      9.1625488      12.216732      683.7478     
       136   0             -249.984        1.2721146      1.8146414      1.0008511      1.0008511      7.9172619e-12  1.5739105e-11 -3.8185214e-11  6.1083597      9.1625488      12.216732      683.7478     
       137   0             -249.984        1.2721146      1.8146414      1.0008511      1.0008511      3.3580565e-11 -3.0502645e-11 -3.7277736e-11  6.1083597      9.1625488      12.216732      683.7478     
       138   0             -249.984        1.2721146      1.8146414      1.0008511      1.0008511     -7.112554e-12   2.7380839e-11  3.9212605e-11  6.1083597      9.1625488      12.216732      683.7478     
Loop time of 0.006152 on 4 procs for 22 steps with 48 atoms

0.0% CPU use with 4 MPI tasks x 1 OpenMP threads

Minimization stats:
  Stopping criterion = force tolerance
  Energy initial, next-to-last, final = 
     -249.983999986051  -249.984000000851  -249.984000000851
  Force two-norm initial, final = 0.00046638019 8.608666e-11
  Force max component initial, final = 9.6313773e-05 2.1894205e-11
  Final line search alpha, max atom move = 1 2.1894205e-11
  Iterations, force evaluations = 22 44

MPI task timing breakdown:
Section |  min time  |  avg time  |  max time  |%varavg| %total
---------------------------------------------------------------
Pair    | 0.005085   | 0.0052218  | 0.005449   |   0.2 | 84.88
Neigh   | 0          | 0          | 0          |   0.0 |  0.00
Comm    | 0.000298   | 0.00052225 | 0.000652   |   0.0 |  8.49
Output  | 0.000185   | 0.0001935  | 0.000214   |   0.0 |  3.15
Modify  | 0          | 0          | 0          |   0.0 |  0.00
Other   |            | 0.0002145  |            |       |  3.49

Nlocal:             12 ave          15 max          10 min
Histogram: 1 0 1 0 1 0 0 0 0 1
Nghost:            293 ave         295 max         290 min
Histogram: 1 0 0 0 0 0 1 0 1 1
Neighs:            348 ave         434 max         290 min
Histogram: 1 1 0 0 1 0 0 0 0 1
FullNghs:          696 ave         870 max         580 min
Histogram: 1 0 1 0 1 0 0 0 0 1

Total # of neighbors = 2784
Ave neighs/atom = 58
Neighbor list builds = 0
Dangerous builds = 0

# Obtain new stress tensor

variable tmp equal pxx
variable pxx1 equal ${tmp}
variable pxx1 equal 1.81464142253808
variable tmp equal pyy
variable pyy1 equal ${tmp}
variable pyy1 equal 1.00085114011216
variable tmp equal pzz
variable pzz1 equal ${tmp}
variable pzz1 equal 1.00085114182408
variable tmp equal pxy
variable pxy1 equal ${tmp}
variable pxy1 equal -7.1125540092502e-12
variable tmp equal pxz
variable pxz1 equal ${tmp}
variable pxz1 equal 2.73808388747389e-11
variable tmp equal pyz
variable pyz1 equal ${tmp}
variable pyz1 equal 3.92126050200249e-11

# Compute elastic constant from pressure tensor

variable C1neg equal ${d1}
variable C1neg equal 181.464142175659
variable C2neg equal ${d2}
variable C2neg equal 100.085114118918
variable C3neg equal ${d3}
variable C3neg equal 100.085114121429
variable C4neg equal ${d4}
variable C4neg equal 1.99940069287008e-09
variable C5neg equal ${d5}
variable C5neg equal 2.78523611629355e-09
variable C6neg equal ${d6}
variable C6neg equal 5.0144895762581e-10

# Reset box and simulation parameters

clear
  using 1 OpenMP thread(s) per MPI task
Loaded 1 plugins from C:\Program Files\LAMMPS 64-bit 23Jun2022\plugins
Loaded 0 plugins from C:\Program Files\LAMMPS 64-bit 23Jun2022-MPI\plugins
Loaded 1 plugins from C:\Program Files\LAMMPS 64-bit 22Dec2022-MSMPI\plugins
Loaded 1 plugins from C:\Program Files\LAMMPS 64-bit 28Mar2023-MPI\plugins
box tilt large

The 'box' command has been removed and will be ignored

read_restart restart.equil
Reading restart file ...
  restart file = 22 Dec 2022, LAMMPS = 22 Dec 2022
  restoring atom style atomic from restart
  triclinic box = (-0.034182926 -0.051274388 -0.068365851) to (6.0741829 9.1112744 12.148366) with tilt (0 0 0)
  1 by 2 by 2 MPI processor grid
  pair style meam stores no restart info
  48 atoms
  read_restart CPU = 0.000 seconds
include potential.mod
# NOTE: This script can be modified for different pair styles
# See in.elastic for more info.

# Choose potential
#-----------------------
#pair_style	sw
#pair_coeff * * Si.sw Si
#-----------------------
#pair_style morse	2.83994742	# D0[eV] a[1/A] r0[A] rc[A], 1NN for BCC
#pair_coeff 1 1	2.1173	1.0202	2.4595	2.6497	#	Fe-Fe
#-----------------------
#pair_style smatb # R0(A)   p       q     A(eV)   xi(eV)  Rcs(A)   Rc(A), 4NN: Rcs=4NN, Rc=(4NN+5NN)/2
#pair_coeff 1 1	2.4802	7.0149	2.3779	0.3144	3.0551	4.033	4.176	#	Co	Co
#-----------------------
#pair_style eam/alloy
#pair_coeff * * AlCrFeCoNi_Zhou04.eam.alloy Fe
#-----------------------
pair_style meam
pair_coeff * * ./../../library.meam Ti V N ./../../TiVN.meam Ti V
#-----------------------

# Setup neighbor style
neighbor 1.0 nsq
neigh_modify once no every 1 delay 0 check yes

# Setup minimization style
min_style	     cg
min_modify	     dmax ${dmax} line quadratic
min_modify	     dmax 0.01 line quadratic

# Setup output
thermo		1
thermo_style custom step temp pe press pxx pyy pzz pxy pxz pyz lx ly lz vol
thermo_modify norm no

# Positive deformation

variable delta equal ${up}*${len0}
variable delta equal 1e-06*${len0}
variable delta equal 1e-06*6.10836585120296
variable deltaxy equal ${up}*xy
variable deltaxy equal 1e-06*xy
variable deltaxz equal ${up}*xz
variable deltaxz equal 1e-06*xz
variable deltayz equal ${up}*yz
variable deltayz equal 1e-06*yz
if "${dir} == 1" then    "change_box all x delta 0 ${delta} xy delta ${deltaxy} xz delta ${deltaxz} remap units box"
change_box all x delta 0 ${delta} xy delta ${deltaxy} xz delta ${deltaxz} remap units box
change_box all x delta 0 6.10836585120296e-06 xy delta ${deltaxy} xz delta ${deltaxz} remap units box
change_box all x delta 0 6.10836585120296e-06 xy delta 0 xz delta ${deltaxz} remap units box
change_box all x delta 0 6.10836585120296e-06 xy delta 0 xz delta 0 remap units box
Changing box ...
  triclinic box = (-0.034182926 -0.051274388 -0.068365851) to (6.074189 9.1112744 12.148366) with tilt (0 0 0)
  triclinic box = (-0.034182926 -0.051274388 -0.068365851) to (6.074189 9.1112744 12.148366) with tilt (0 0 0)
  triclinic box = (-0.034182926 -0.051274388 -0.068365851) to (6.074189 9.1112744 12.148366) with tilt (0 0 0)
if "${dir} == 2" then    "change_box all y delta 0 ${delta} yz delta ${deltayz} remap units box"
if "${dir} == 3" then    "change_box all z delta 0 ${delta} remap units box"
if "${dir} == 4" then    "change_box all yz delta ${delta} remap units box"
if "${dir} == 5" then    "change_box all xz delta ${delta} remap units box"
if "${dir} == 6" then    "change_box all xy delta ${delta} remap units box"

# Relax atoms positions

minimize ${etol} ${ftol} ${maxiter} ${maxeval}
minimize 0 ${ftol} ${maxiter} ${maxeval}
minimize 0 1e-10 ${maxiter} ${maxeval}
minimize 0 1e-10 1000 ${maxeval}
minimize 0 1e-10 1000 100000
Neighbor list info ...
  update: every = 1 steps, delay = 0 steps, check = yes
  max neighbors/atom: 2000, page size: 100000
  master list distance cutoff = 6
  ghost atom cutoff = 6
  2 neighbor lists, perpetual/occasional/extra = 2 0 0
  (1) pair meam, perpetual
      attributes: full, newton on
      pair build: full/nsq
      stencil: none
      bin: none
  (2) pair meam, perpetual, half/full from (1)
      attributes: half, newton on
      pair build: halffull/newton
      stencil: none
      bin: none
Per MPI rank memory allocation (min/avg/max) = 9.768 | 9.77 | 9.772 Mbytes
   Step          Temp          PotEng         Press           Pxx            Pyy            Pzz            Pxy            Pxz            Pyz             Lx             Ly             Lz           Volume    
       116   0             -249.984       -1.2720716     -1.8145988     -1.0008171     -1.0007989     -1.4338306e-06 -2.9207071e-06 -4.5667767e-06  6.108372       9.1625488      12.216732      683.74917    
       117   0             -249.984       -1.2721056     -1.8146262     -1.0008486     -1.0008419     -6.3620555e-07 -1.0002069e-06 -7.7274587e-07  6.108372       9.1625488      12.216732      683.74917    
       118   0             -249.984       -1.2721077     -1.8146269     -1.0008494     -1.0008466     -1.1540732e-07 -3.3022357e-07 -9.3860475e-08  6.108372       9.1625488      12.216732      683.74917    
       119   0             -249.984       -1.2721078     -1.8146282     -1.0008485     -1.0008466     -2.9423141e-08 -1.4691748e-07 -2.7897591e-08  6.108372       9.1625488      12.216732      683.74917    
       120   0             -249.984       -1.2721078     -1.8146285     -1.0008478     -1.000847      -2.0698453e-09 -4.3032317e-08  1.2102725e-09  6.108372       9.1625488      12.216732      683.74917    
       121   0             -249.984       -1.2721077     -1.8146285     -1.0008475     -1.0008473     -7.7152572e-10 -1.5541034e-08 -2.9740842e-09  6.108372       9.1625488      12.216732      683.74917    
       122   0             -249.984       -1.2721077     -1.8146285     -1.0008474     -1.0008473      1.2157451e-10 -3.3084572e-09 -2.16371e-09    6.108372       9.1625488      12.216732      683.74917    
       123   0             -249.984       -1.2721077     -1.8146285     -1.0008474     -1.0008474     -2.0259528e-10  2.0460795e-10 -6.0359975e-10  6.108372       9.1625488      12.216732      683.74917    
       124   0             -249.984       -1.2721077     -1.8146285     -1.0008474     -1.0008474     -3.9190685e-11  4.7867594e-11 -1.0660051e-12  6.108372       9.1625488      12.216732      683.74917    
       125   0             -249.984       -1.2721077     -1.8146285     -1.0008474     -1.0008474     -9.6670982e-12  1.1706749e-11 -1.4343816e-11  6.108372       9.1625488      12.216732      683.74917    
       126   0             -249.984       -1.2721077     -1.8146285     -1.0008474     -1.0008474      2.9139518e-11 -3.5380396e-11 -4.8876691e-11  6.108372       9.1625488      12.216732      683.74917    
       127   0             -249.984       -1.2721077     -1.8146285     -1.0008474     -1.0008474      2.2579047e-11 -2.2893197e-11  2.0861792e-11  6.108372       9.1625488      12.216732      683.74917    
       128   0             -249.984       -1.2721077     -1.8146285     -1.0008474     -1.0008474      2.785975e-11   1.1056374e-11 -3.6361039e-11  6.108372       9.1625488      12.216732      683.74917    
       129   0             -249.984       -1.2721077     -1.8146285     -1.0008474     -1.0008474      1.0893179e-11  1.6389448e-11  3.4937328e-12  6.108372       9.1625488      12.216732      683.74917    
       130   0             -249.984       -1.2721077     -1.8146285     -1.0008474     -1.0008474      3.1280649e-12  1.2682311e-11  2.2728571e-11  6.108372       9.1625488      12.216732      683.74917    
       131   0             -249.984       -1.2721077     -1.8146285     -1.0008474     -1.0008474      1.5705744e-11 -3.1348071e-11  1.1263681e-11  6.108372       9.1625488      12.216732      683.74917    
       132   0             -249.984       -1.2721077     -1.8146285     -1.0008474     -1.0008474      3.477864e-11   3.4469871e-12 -2.8263871e-11  6.108372       9.1625488      12.216732      683.74917    
       133   0             -249.984       -1.2721077     -1.8146285     -1.0008474     -1.0008474      1.5884677e-11  2.0291697e-11  1.7945267e-11  6.108372       9.1625488      12.216732      683.74917    
       134   0             -249.984       -1.2721077     -1.8146285     -1.0008474     -1.0008474      4.6138188e-11 -9.1052489e-13  2.5370719e-11  6.108372       9.1625488      12.216732      683.74917    
       135   0             -249.984       -1.2721077     -1.8146285     -1.0008474     -1.0008474      1.917686e-11  -2.6665372e-12 -5.4682304e-12  6.108372       9.1625488      12.216732      683.74917    
       136   0             -249.984       -1.2721077     -1.8146285     -1.0008474     -1.0008474      9.6647576e-12  1.6259373e-12 -5.7182182e-12  6.108372       9.1625488      12.216732      683.74917    
       137   0             -249.984       -1.2721077     -1.8146285     -1.0008474     -1.0008474     -2.7070564e-11 -7.4793116e-12 -2.5982478e-11  6.108372       9.1625488      12.216732      683.74917    
       138   0             -249.984       -1.2721077     -1.8146285     -1.0008474     -1.0008474      3.3731089e-11  1.0015774e-11  6.2608748e-11  6.108372       9.1625488      12.216732      683.74917    
Loop time of 0.0063545 on 4 procs for 22 steps with 48 atoms

0.0% CPU use with 4 MPI tasks x 1 OpenMP threads

Minimization stats:
  Stopping criterion = force tolerance
  Energy initial, next-to-last, final = 
     -249.983999986051  -249.984000000851  -249.984000000851
  Force two-norm initial, final = 0.00046637881 7.8415184e-11
  Force max component initial, final = 9.6313157e-05 2.1003282e-11
  Final line search alpha, max atom move = 1 2.1003282e-11
  Iterations, force evaluations = 22 44

MPI task timing breakdown:
Section |  min time  |  avg time  |  max time  |%varavg| %total
---------------------------------------------------------------
Pair    | 0.005208   | 0.0053897  | 0.005656   |   0.2 | 84.82
Neigh   | 0          | 0          | 0          |   0.0 |  0.00
Comm    | 0.000304   | 0.000569   | 0.00075    |   0.0 |  8.95
Output  | 0.000181   | 0.00019125 | 0.000213   |   0.0 |  3.01
Modify  | 0          | 0          | 0          |   0.0 |  0.00
Other   |            | 0.0002045  |            |       |  3.22

Nlocal:             12 ave          15 max          10 min
Histogram: 1 0 1 0 1 0 0 0 0 1
Nghost:            293 ave         295 max         290 min
Histogram: 1 0 0 0 0 0 1 0 1 1
Neighs:            348 ave         434 max         290 min
Histogram: 1 1 0 0 1 0 0 0 0 1
FullNghs:          696 ave         870 max         580 min
Histogram: 1 0 1 0 1 0 0 0 0 1

Total # of neighbors = 2784
Ave neighs/atom = 58
Neighbor list builds = 0
Dangerous builds = 0

# Obtain new stress tensor

variable tmp equal pe
variable e1 equal ${tmp}
variable e1 equal -249.984000000851
variable tmp equal press
variable p1 equal ${tmp}
variable p1 equal -1.27210774658941
variable tmp equal pxx
variable pxx1 equal ${tmp}
variable pxx1 equal -1.81462852312941
variable tmp equal pyy
variable pyy1 equal ${tmp}
variable pyy1 equal -1.00084735913126
variable tmp equal pzz
variable pzz1 equal ${tmp}
variable pzz1 equal -1.00084735750754
variable tmp equal pxy
variable pxy1 equal ${tmp}
variable pxy1 equal 3.37310885782774e-11
variable tmp equal pxz
variable pxz1 equal ${tmp}
variable pxz1 equal 1.00157737610923e-11
variable tmp equal pyz
variable pyz1 equal ${tmp}
variable pyz1 equal 6.26087481149448e-11

# Compute elastic constant from pressure tensor

variable C1pos equal ${d1}
variable C1pos equal 181.46285239109
variable C2pos equal ${d2}
variable C2pos equal 100.084735805424
variable C3pos equal ${d3}
variable C3pos equal 100.084735811733
variable C4pos equal ${d4}
variable C4pos equal -4.33901500236207e-09
variable C5pos equal ${d5}
variable C5pos equal -1.04872960492889e-09
variable C6pos equal ${d6}
variable C6pos equal -4.58581321637857e-09

# Combine positive and negative

variable C1${dir} equal 0.5*(${C1neg}+${C1pos})
variable C11 equal 0.5*(${C1neg}+${C1pos})
variable C11 equal 0.5*(181.464142175659+${C1pos})
variable C11 equal 0.5*(181.464142175659+181.46285239109)
variable C2${dir} equal 0.5*(${C2neg}+${C2pos})
variable C21 equal 0.5*(${C2neg}+${C2pos})
variable C21 equal 0.5*(100.085114118918+${C2pos})
variable C21 equal 0.5*(100.085114118918+100.084735805424)
variable C3${dir} equal 0.5*(${C3neg}+${C3pos})
variable C31 equal 0.5*(${C3neg}+${C3pos})
variable C31 equal 0.5*(100.085114121429+${C3pos})
variable C31 equal 0.5*(100.085114121429+100.084735811733)
variable C4${dir} equal 0.5*(${C4neg}+${C4pos})
variable C41 equal 0.5*(${C4neg}+${C4pos})
variable C41 equal 0.5*(1.99940069287008e-09+${C4pos})
variable C41 equal 0.5*(1.99940069287008e-09+-4.33901500236207e-09)
variable C5${dir} equal 0.5*(${C5neg}+${C5pos})
variable C51 equal 0.5*(${C5neg}+${C5pos})
variable C51 equal 0.5*(2.78523611629355e-09+${C5pos})
variable C51 equal 0.5*(2.78523611629355e-09+-1.04872960492889e-09)
variable C6${dir} equal 0.5*(${C6neg}+${C6pos})
variable C61 equal 0.5*(${C6neg}+${C6pos})
variable C61 equal 0.5*(5.0144895762581e-10+${C6pos})
variable C61 equal 0.5*(5.0144895762581e-10+-4.58581321637857e-09)

# Delete dir to make sure it is not reused

variable dir delete

# uyy Perturbation

variable dir equal 2
include displace.mod
# NOTE: This script should not need to be
# modified. See in.elastic for more info.
#
# Find which reference length to use

if "${dir} == 1" then    "variable len0 equal ${lx0}"
if "${dir} == 2" then    "variable len0 equal ${ly0}"
variable len0 equal ${ly0}
variable len0 equal 9.16254877680446
if "${dir} == 3" then    "variable len0 equal ${lz0}"
if "${dir} == 4" then    "variable len0 equal ${lz0}"
if "${dir} == 5" then    "variable len0 equal ${lz0}"
if "${dir} == 6" then    "variable len0 equal ${ly0}"

# Reset box and simulation parameters

clear
  using 1 OpenMP thread(s) per MPI task
Loaded 1 plugins from C:\Program Files\LAMMPS 64-bit 23Jun2022\plugins
Loaded 0 plugins from C:\Program Files\LAMMPS 64-bit 23Jun2022-MPI\plugins
Loaded 1 plugins from C:\Program Files\LAMMPS 64-bit 22Dec2022-MSMPI\plugins
Loaded 1 plugins from C:\Program Files\LAMMPS 64-bit 28Mar2023-MPI\plugins
box tilt large

The 'box' command has been removed and will be ignored

read_restart restart.equil
Reading restart file ...
  restart file = 22 Dec 2022, LAMMPS = 22 Dec 2022
  restoring atom style atomic from restart
  triclinic box = (-0.034182926 -0.051274388 -0.068365851) to (6.0741829 9.1112744 12.148366) with tilt (0 0 0)
  1 by 2 by 2 MPI processor grid
  pair style meam stores no restart info
  48 atoms
  read_restart CPU = 0.000 seconds
include potential.mod
# NOTE: This script can be modified for different pair styles
# See in.elastic for more info.

# Choose potential
#-----------------------
#pair_style	sw
#pair_coeff * * Si.sw Si
#-----------------------
#pair_style morse	2.83994742	# D0[eV] a[1/A] r0[A] rc[A], 1NN for BCC
#pair_coeff 1 1	2.1173	1.0202	2.4595	2.6497	#	Fe-Fe
#-----------------------
#pair_style smatb # R0(A)   p       q     A(eV)   xi(eV)  Rcs(A)   Rc(A), 4NN: Rcs=4NN, Rc=(4NN+5NN)/2
#pair_coeff 1 1	2.4802	7.0149	2.3779	0.3144	3.0551	4.033	4.176	#	Co	Co
#-----------------------
#pair_style eam/alloy
#pair_coeff * * AlCrFeCoNi_Zhou04.eam.alloy Fe
#-----------------------
pair_style meam
pair_coeff * * ./../../library.meam Ti V N ./../../TiVN.meam Ti V
#-----------------------

# Setup neighbor style
neighbor 1.0 nsq
neigh_modify once no every 1 delay 0 check yes

# Setup minimization style
min_style	     cg
min_modify	     dmax ${dmax} line quadratic
min_modify	     dmax 0.01 line quadratic

# Setup output
thermo		1
thermo_style custom step temp pe press pxx pyy pzz pxy pxz pyz lx ly lz vol
thermo_modify norm no

# Negative deformation

variable delta equal -${up}*${len0}
variable delta equal -1e-06*${len0}
variable delta equal -1e-06*9.16254877680446
variable deltaxy equal -${up}*xy
variable deltaxy equal -1e-06*xy
variable deltaxz equal -${up}*xz
variable deltaxz equal -1e-06*xz
variable deltayz equal -${up}*yz
variable deltayz equal -1e-06*yz
if "${dir} == 1" then    "change_box all x delta 0 ${delta} xy delta ${deltaxy} xz delta ${deltaxz} remap units box"
if "${dir} == 2" then    "change_box all y delta 0 ${delta} yz delta ${deltayz} remap units box"
change_box all y delta 0 ${delta} yz delta ${deltayz} remap units box
change_box all y delta 0 -9.16254877680446e-06 yz delta ${deltayz} remap units box
change_box all y delta 0 -9.16254877680446e-06 yz delta -0 remap units box
Changing box ...
  triclinic box = (-0.034182926 -0.051274388 -0.068365851) to (6.0741829 9.1112652 12.148366) with tilt (0 0 0)
  triclinic box = (-0.034182926 -0.051274388 -0.068365851) to (6.0741829 9.1112652 12.148366) with tilt (0 0 0)
if "${dir} == 3" then    "change_box all z delta 0 ${delta} remap units box"
if "${dir} == 4" then    "change_box all yz delta ${delta} remap units box"
if "${dir} == 5" then    "change_box all xz delta ${delta} remap units box"
if "${dir} == 6" then    "change_box all xy delta ${delta} remap units box"

# Relax atoms positions

minimize ${etol} ${ftol} ${maxiter} ${maxeval}
minimize 0 ${ftol} ${maxiter} ${maxeval}
minimize 0 1e-10 ${maxiter} ${maxeval}
minimize 0 1e-10 1000 ${maxeval}
minimize 0 1e-10 1000 100000
Neighbor list info ...
  update: every = 1 steps, delay = 0 steps, check = yes
  max neighbors/atom: 2000, page size: 100000
  master list distance cutoff = 6
  ghost atom cutoff = 6
  2 neighbor lists, perpetual/occasional/extra = 2 0 0
  (1) pair meam, perpetual
      attributes: full, newton on
      pair build: full/nsq
      stencil: none
      bin: none
  (2) pair meam, perpetual, half/full from (1)
      attributes: half, newton on
      pair build: halffull/newton
      stencil: none
      bin: none
Per MPI rank memory allocation (min/avg/max) = 9.768 | 9.77 | 9.772 Mbytes
   Step          Temp          PotEng         Press           Pxx            Pyy            Pzz            Pxy            Pxz            Pyz             Lx             Ly             Lz           Volume    
       116   0             -249.984        1.2721507      1.0008809      1.8146717      1.0008996     -1.4337846e-06 -2.9206711e-06 -4.5667395e-06  6.1083659      9.1625396      12.216732      683.7478     
       117   0             -249.984        1.2721167      1.0008534      1.8146402      1.0008566     -6.3612548e-07 -1.0001741e-06 -7.7277832e-07  6.1083659      9.1625396      12.216732      683.7478     
       118   0             -249.984        1.2721147      1.0008527      1.8146393      1.0008519     -1.1544332e-07 -3.3024713e-07 -9.3850569e-08  6.1083659      9.1625396      12.216732      683.7478     
       119   0             -249.984        1.2721145      1.0008514      1.8146403      1.0008519     -2.9398247e-08 -1.4690594e-07 -2.7919634e-08  6.1083659      9.1625396      12.216732      683.7478     
       120   0             -249.984        1.2721145      1.0008511      1.814641       1.0008515     -2.0645119e-09 -4.3033704e-08  1.2156548e-09  6.1083659      9.1625396      12.216732      683.7478     
       121   0             -249.984        1.2721146      1.0008512      1.8146413      1.0008512     -8.2285581e-10 -1.5527342e-08 -2.953899e-09   6.1083659      9.1625396      12.216732      683.7478     
       122   0             -249.984        1.2721146      1.0008512      1.8146414      1.0008512      1.4273499e-10 -3.3152928e-09 -2.2079368e-09  6.1083659      9.1625396      12.216732      683.7478     
       123   0             -249.984        1.2721146      1.0008511      1.8146414      1.0008511     -1.7250821e-10  2.0694971e-10 -6.7178782e-10  6.1083659      9.1625396      12.216732      683.7478     
       124   0             -249.984        1.2721146      1.0008511      1.8146414      1.0008511     -5.4745608e-11  5.4111302e-11 -4.4250988e-11  6.1083659      9.1625396      12.216732      683.7478     
       125   0             -249.984        1.2721146      1.0008511      1.8146414      1.0008511     -2.3230795e-11 -2.0161663e-11 -2.3656419e-11  6.1083659      9.1625396      12.216732      683.7478     
       126   0             -249.984        1.2721146      1.0008511      1.8146414      1.0008511     -1.0695238e-11 -1.6714669e-11 -4.3036614e-12  6.1083659      9.1625396      12.216732      683.7478     
       127   0             -249.984        1.2721146      1.0008511      1.8146414      1.0008511      6.1957227e-12  7.1151159e-11 -2.8217182e-11  6.1083659      9.1625396      12.216732      683.7478     
       128   0             -249.984        1.2721146      1.0008511      1.8146414      1.0008511      6.9482317e-11 -9.3654176e-12  1.6962625e-11  6.1083659      9.1625396      12.216732      683.7478     
       129   0             -249.984        1.2721146      1.0008511      1.8146414      1.0008511     -1.3392029e-11 -3.609588e-11  -1.174742e-12   6.1083659      9.1625396      12.216732      683.7478     
       130   0             -249.984        1.2721146      1.0008511      1.8146414      1.0008511     -8.9552719e-11 -1.9706399e-11 -6.2344658e-12  6.1083659      9.1625396      12.216732      683.7478     
       131   0             -249.984        1.2721146      1.0008511      1.8146414      1.0008511     -2.5608388e-11  2.6925576e-11  7.3401054e-12  6.1083659      9.1625396      12.216732      683.7478     
       132   0             -249.984        1.2721146      1.0008511      1.8146414      1.0008511      4.3474362e-11 -2.6730463e-11 -1.4267628e-11  6.1083659      9.1625396      12.216732      683.7478     
       133   0             -249.984        1.2721146      1.0008511      1.8146414      1.0008511     -2.3833092e-11  4.6241749e-11 -2.0183003e-11  6.1083659      9.1625396      12.216732      683.7478     
       134   0             -249.984        1.2721146      1.0008511      1.8146414      1.0008511      1.2229005e-11 -1.0536095e-11 -2.2975556e-11  6.1083659      9.1625396      12.216732      683.7478     
       135   0             -249.984        1.2721146      1.0008511      1.8146414      1.0008511     -2.1245982e-11 -3.063272e-11   1.7433131e-11  6.1083659      9.1625396      12.216732      683.7478     
       136   0             -249.984        1.2721146      1.0008511      1.8146414      1.0008511     -1.2259542e-11 -1.6389481e-11  1.7485974e-11  6.1083659      9.1625396      12.216732      683.7478     
       137   0             -249.984        1.2721146      1.0008511      1.8146414      1.0008511      1.0061267e-11  5.0144007e-11  3.9784733e-12  6.1083659      9.1625396      12.216732      683.7478     
       138   0             -249.984        1.2721146      1.0008511      1.8146414      1.0008511      7.3895201e-12 -2.0031588e-11  1.030135e-11   6.1083659      9.1625396      12.216732      683.7478     
Loop time of 0.006437 on 4 procs for 22 steps with 48 atoms

0.0% CPU use with 4 MPI tasks x 1 OpenMP threads

Minimization stats:
  Stopping criterion = force tolerance
  Energy initial, next-to-last, final = 
     -249.983999986051  -249.984000000851  -249.984000000851
  Force two-norm initial, final = 0.00046638028 8.0486559e-11
  Force max component initial, final = 9.631349e-05 2.2707281e-11
  Final line search alpha, max atom move = 1 2.2707281e-11
  Iterations, force evaluations = 22 44

MPI task timing breakdown:
Section |  min time  |  avg time  |  max time  |%varavg| %total
---------------------------------------------------------------
Pair    | 0.005201   | 0.005359   | 0.005539   |   0.2 | 83.25
Neigh   | 0          | 0          | 0          |   0.0 |  0.00
Comm    | 0.000377   | 0.00055375 | 0.000705   |   0.0 |  8.60
Output  | 0.000185   | 0.00022575 | 0.00033    |   0.0 |  3.51
Modify  | 0          | 0          | 0          |   0.0 |  0.00
Other   |            | 0.0002985  |            |       |  4.64

Nlocal:             12 ave          15 max          10 min
Histogram: 1 0 1 0 1 0 0 0 0 1
Nghost:            293 ave         295 max         290 min
Histogram: 1 0 0 0 0 0 1 0 1 1
Neighs:            348 ave         434 max         290 min
Histogram: 1 1 0 0 1 0 0 0 0 1
FullNghs:          696 ave         870 max         580 min
Histogram: 1 0 1 0 1 0 0 0 0 1

Total # of neighbors = 2784
Ave neighs/atom = 58
Neighbor list builds = 0
Dangerous builds = 0

# Obtain new stress tensor

variable tmp equal pxx
variable pxx1 equal ${tmp}
variable pxx1 equal 1.00085114173225
variable tmp equal pyy
variable pyy1 equal ${tmp}
variable pyy1 equal 1.81464142070415
variable tmp equal pzz
variable pzz1 equal ${tmp}
variable pzz1 equal 1.00085114169817
variable tmp equal pxy
variable pxy1 equal ${tmp}
variable pxy1 equal 7.38952013140516e-12
variable tmp equal pxz
variable pxz1 equal ${tmp}
variable pxz1 equal -2.00315875853197e-11
variable tmp equal pyz
variable pyz1 equal ${tmp}
variable pyz1 equal 1.03013496018864e-11

# Compute elastic constant from pressure tensor

variable C1neg equal ${d1}
variable C1neg equal 100.085114095076
variable C2neg equal ${d2}
variable C2neg equal 181.464142178117
variable C3neg equal ${d3}
variable C3neg equal 100.085114108838
variable C4neg equal ${d4}
variable C4neg equal -8.9172484894377e-10
variable C5neg equal ${d5}
variable C5neg equal -1.95600652971231e-09
variable C6neg equal ${d6}
variable C6neg equal 1.95165637169135e-09

# Reset box and simulation parameters

clear
  using 1 OpenMP thread(s) per MPI task
Loaded 1 plugins from C:\Program Files\LAMMPS 64-bit 23Jun2022\plugins
Loaded 0 plugins from C:\Program Files\LAMMPS 64-bit 23Jun2022-MPI\plugins
Loaded 1 plugins from C:\Program Files\LAMMPS 64-bit 22Dec2022-MSMPI\plugins
Loaded 1 plugins from C:\Program Files\LAMMPS 64-bit 28Mar2023-MPI\plugins
box tilt large

The 'box' command has been removed and will be ignored

read_restart restart.equil
Reading restart file ...
  restart file = 22 Dec 2022, LAMMPS = 22 Dec 2022
  restoring atom style atomic from restart
  triclinic box = (-0.034182926 -0.051274388 -0.068365851) to (6.0741829 9.1112744 12.148366) with tilt (0 0 0)
  1 by 2 by 2 MPI processor grid
  pair style meam stores no restart info
  48 atoms
  read_restart CPU = 0.000 seconds
include potential.mod
# NOTE: This script can be modified for different pair styles
# See in.elastic for more info.

# Choose potential
#-----------------------
#pair_style	sw
#pair_coeff * * Si.sw Si
#-----------------------
#pair_style morse	2.83994742	# D0[eV] a[1/A] r0[A] rc[A], 1NN for BCC
#pair_coeff 1 1	2.1173	1.0202	2.4595	2.6497	#	Fe-Fe
#-----------------------
#pair_style smatb # R0(A)   p       q     A(eV)   xi(eV)  Rcs(A)   Rc(A), 4NN: Rcs=4NN, Rc=(4NN+5NN)/2
#pair_coeff 1 1	2.4802	7.0149	2.3779	0.3144	3.0551	4.033	4.176	#	Co	Co
#-----------------------
#pair_style eam/alloy
#pair_coeff * * AlCrFeCoNi_Zhou04.eam.alloy Fe
#-----------------------
pair_style meam
pair_coeff * * ./../../library.meam Ti V N ./../../TiVN.meam Ti V
#-----------------------

# Setup neighbor style
neighbor 1.0 nsq
neigh_modify once no every 1 delay 0 check yes

# Setup minimization style
min_style	     cg
min_modify	     dmax ${dmax} line quadratic
min_modify	     dmax 0.01 line quadratic

# Setup output
thermo		1
thermo_style custom step temp pe press pxx pyy pzz pxy pxz pyz lx ly lz vol
thermo_modify norm no

# Positive deformation

variable delta equal ${up}*${len0}
variable delta equal 1e-06*${len0}
variable delta equal 1e-06*9.16254877680446
variable deltaxy equal ${up}*xy
variable deltaxy equal 1e-06*xy
variable deltaxz equal ${up}*xz
variable deltaxz equal 1e-06*xz
variable deltayz equal ${up}*yz
variable deltayz equal 1e-06*yz
if "${dir} == 1" then    "change_box all x delta 0 ${delta} xy delta ${deltaxy} xz delta ${deltaxz} remap units box"
if "${dir} == 2" then    "change_box all y delta 0 ${delta} yz delta ${deltayz} remap units box"
change_box all y delta 0 ${delta} yz delta ${deltayz} remap units box
change_box all y delta 0 9.16254877680446e-06 yz delta ${deltayz} remap units box
change_box all y delta 0 9.16254877680446e-06 yz delta 0 remap units box
Changing box ...
  triclinic box = (-0.034182926 -0.051274388 -0.068365851) to (6.0741829 9.1112836 12.148366) with tilt (0 0 0)
  triclinic box = (-0.034182926 -0.051274388 -0.068365851) to (6.0741829 9.1112836 12.148366) with tilt (0 0 0)
if "${dir} == 3" then    "change_box all z delta 0 ${delta} remap units box"
if "${dir} == 4" then    "change_box all yz delta ${delta} remap units box"
if "${dir} == 5" then    "change_box all xz delta ${delta} remap units box"
if "${dir} == 6" then    "change_box all xy delta ${delta} remap units box"

# Relax atoms positions

minimize ${etol} ${ftol} ${maxiter} ${maxeval}
minimize 0 ${ftol} ${maxiter} ${maxeval}
minimize 0 1e-10 ${maxiter} ${maxeval}
minimize 0 1e-10 1000 ${maxeval}
minimize 0 1e-10 1000 100000
Neighbor list info ...
  update: every = 1 steps, delay = 0 steps, check = yes
  max neighbors/atom: 2000, page size: 100000
  master list distance cutoff = 6
  ghost atom cutoff = 6
  2 neighbor lists, perpetual/occasional/extra = 2 0 0
  (1) pair meam, perpetual
      attributes: full, newton on
      pair build: full/nsq
      stencil: none
      bin: none
  (2) pair meam, perpetual, half/full from (1)
      attributes: half, newton on
      pair build: halffull/newton
      stencil: none
      bin: none
Per MPI rank memory allocation (min/avg/max) = 9.768 | 9.77 | 9.772 Mbytes
   Step          Temp          PotEng         Press           Pxx            Pyy            Pzz            Pxy            Pxz            Pyz             Lx             Ly             Lz           Volume    
       116   0             -249.984       -1.2720716     -1.0008176     -1.8145982     -1.0007989     -1.4338368e-06 -2.9205697e-06 -4.56671e-06    6.1083659      9.1625579      12.216732      683.74917    
       117   0             -249.984       -1.2721056     -1.0008451     -1.8146298     -1.0008419     -6.361311e-07  -1.0001138e-06 -7.7274924e-07  6.1083659      9.1625579      12.216732      683.74917    
       118   0             -249.984       -1.2721077     -1.0008458     -1.8146306     -1.0008466     -1.154585e-07  -3.3025525e-07 -9.3863539e-08  6.1083659      9.1625579      12.216732      683.74917    
       119   0             -249.984       -1.2721078     -1.0008471     -1.8146297     -1.0008466     -2.9384987e-08 -1.4694655e-07 -2.7893735e-08  6.1083659      9.1625579      12.216732      683.74917    
       120   0             -249.984       -1.2721078     -1.0008474     -1.8146289     -1.000847      -2.0540917e-09 -4.3081875e-08  1.1906678e-09  6.1083659      9.1625579      12.216732      683.74917    
       121   0             -249.984       -1.2721077     -1.0008473     -1.8146286     -1.0008473     -8.050203e-10  -1.5482175e-08 -2.9869393e-09  6.1083659      9.1625579      12.216732      683.74917    
       122   0             -249.984       -1.2721077     -1.0008473     -1.8146286     -1.0008473      1.4228711e-10 -3.2698249e-09 -2.2096508e-09  6.1083659      9.1625579      12.216732      683.74917    
       123   0             -249.984       -1.2721077     -1.0008474     -1.8146285     -1.0008474     -2.2115473e-10  2.1846094e-10 -6.0075843e-10  6.1083659      9.1625579      12.216732      683.74917    
       124   0             -249.984       -1.2721077     -1.0008474     -1.8146285     -1.0008474     -6.7707102e-11  5.3460818e-11 -4.741538e-11   6.1083659      9.1625579      12.216732      683.74917    
       125   0             -249.984       -1.2721077     -1.0008474     -1.8146285     -1.0008474      8.1191203e-12  2.256801e-11   2.5268082e-11  6.1083659      9.1625579      12.216732      683.74917    
       126   0             -249.984       -1.2721077     -1.0008474     -1.8146285     -1.0008474      2.7381509e-11 -3.1543184e-11 -5.5400765e-11  6.1083659      9.1625579      12.216732      683.74917    
[...]
#pair_style morse	2.83994742	# D0[eV] a[1/A] r0[A] rc[A], 1NN for BCC
#pair_coeff 1 1	2.1173	1.0202	2.4595	2.6497	#	Fe-Fe
#-----------------------
#pair_style smatb # R0(A)   p       q     A(eV)   xi(eV)  Rcs(A)   Rc(A), 4NN: Rcs=4NN, Rc=(4NN+5NN)/2
#pair_coeff 1 1	2.4802	7.0149	2.3779	0.3144	3.0551	4.033	4.176	#	Co	Co
#-----------------------
#pair_style eam/alloy
#pair_coeff * * AlCrFeCoNi_Zhou04.eam.alloy Fe
#-----------------------
pair_style meam
pair_coeff * * ./../../library.meam Ti V N ./../../TiVN.meam Ti V
#-----------------------

# Setup neighbor style
neighbor 1.0 nsq
neigh_modify once no every 1 delay 0 check yes

# Setup minimization style
min_style	     cg
min_modify	     dmax ${dmax} line quadratic
min_modify	     dmax 0.01 line quadratic

# Setup output
thermo		1
thermo_style custom step temp pe press pxx pyy pzz pxy pxz pyz lx ly lz vol
thermo_modify norm no

# Positive deformation

variable delta equal ${up}*${len0}
variable delta equal 1e-06*${len0}
variable delta equal 1e-06*9.16254877680446
variable deltaxy equal ${up}*xy
variable deltaxy equal 1e-06*xy
variable deltaxz equal ${up}*xz
variable deltaxz equal 1e-06*xz
variable deltayz equal ${up}*yz
variable deltayz equal 1e-06*yz
if "${dir} == 1" then    "change_box all x delta 0 ${delta} xy delta ${deltaxy} xz delta ${deltaxz} remap units box"
if "${dir} == 2" then    "change_box all y delta 0 ${delta} yz delta ${deltayz} remap units box"
if "${dir} == 3" then    "change_box all z delta 0 ${delta} remap units box"
if "${dir} == 4" then    "change_box all yz delta ${delta} remap units box"
if "${dir} == 5" then    "change_box all xz delta ${delta} remap units box"
if "${dir} == 6" then    "change_box all xy delta ${delta} remap units box"
change_box all xy delta ${delta} remap units box
change_box all xy delta 9.16254877680446e-06 remap units box
Changing box ...
  triclinic box = (-0.034182926 -0.051274388 -0.068365851) to (6.0741829 9.1112744 12.148366) with tilt (9.1625488e-06 0 0)

# Relax atoms positions

minimize ${etol} ${ftol} ${maxiter} ${maxeval}
minimize 0 ${ftol} ${maxiter} ${maxeval}
minimize 0 1e-10 ${maxiter} ${maxeval}
minimize 0 1e-10 1000 ${maxeval}
minimize 0 1e-10 1000 100000
Neighbor list info ...
  update: every = 1 steps, delay = 0 steps, check = yes
  max neighbors/atom: 2000, page size: 100000
  master list distance cutoff = 6
  ghost atom cutoff = 6
  2 neighbor lists, perpetual/occasional/extra = 2 0 0
  (1) pair meam, perpetual
      attributes: full, newton on
      pair build: full/nsq
      stencil: none
      bin: none
  (2) pair meam, perpetual, half/full from (1)
      attributes: half, newton on
      pair build: halffull/newton
      stencil: none
      bin: none
Per MPI rank memory allocation (min/avg/max) = 9.768 | 9.77 | 9.772 Mbytes
   Step          Temp          PotEng         Press           Pxx            Pyy            Pzz            Pxy            Pxz            Pyz             Lx             Ly             Lz           Volume    
       116   0             -249.984        3.62956e-05    2.9417015e-05  3.0601659e-05  4.8868126e-05 -0.531268      -2.9206636e-06 -4.5667824e-06  6.1083659      9.1625488      12.216732      683.74848    
       117   0             -249.984        2.2818366e-06  1.9763483e-06 -9.1262014e-07  5.7817816e-06 -0.53126718    -1.000152e-06  -7.7279923e-07  6.1083659      9.1625488      12.216732      683.74848    
       118   0             -249.984        2.1393051e-07  1.2757378e-06 -1.7513961e-06  1.1174498e-06 -0.53126666    -3.3024823e-07 -9.3849637e-08  6.1083659      9.1625488      12.216732      683.74848    
       119   0             -249.984        9.5411614e-08 -4.1025951e-08 -8.2706063e-07  1.1543214e-06 -0.53126657    -1.4688296e-07 -2.7942399e-08  6.1083659      9.1625488      12.216732      683.74848    
       120   0             -249.984        9.8063889e-08 -3.4603544e-07 -8.7473433e-08  7.2770054e-07 -0.53126654    -4.2992232e-08  1.2473187e-09  6.1083659      9.1625488      12.216732      683.74848    
       121   0             -249.984        1.1930247e-07 -3.1688626e-07  2.0933131e-07  4.6546235e-07 -0.53126654    -1.5544496e-08 -2.9653518e-09  6.1083659      9.1625488      12.216732      683.74848    
       122   0             -249.984        1.2256935e-07 -3.1207647e-07  2.945629e-07   3.8522161e-07 -0.53126654    -3.3362316e-09 -2.2104823e-09  6.1083659      9.1625488      12.216732      683.74848    
       123   0             -249.984        1.2267375e-07 -3.25818e-07    3.2139831e-07  3.7244095e-07 -0.53126654     1.5875668e-10 -6.189482e-10   6.1083659      9.1625488      12.216732      683.74848    
       124   0             -249.984        1.2221944e-07 -3.2995777e-07  3.243393e-07   3.722768e-07  -0.53126654     7.4142815e-11 -1.1226803e-10  6.1083659      9.1625488      12.216732      683.74848    
       125   0             -249.984        1.2209865e-07 -3.2991784e-07  3.2411467e-07  3.7209911e-07 -0.53126654    -3.6355994e-11 -2.0618938e-12  6.1083659      9.1625488      12.216732      683.74848    
       126   0             -249.984        1.2197529e-07 -3.3003373e-07  3.2393724e-07  3.7202237e-07 -0.53126654    -6.893981e-12   1.1142763e-11  6.1083659      9.1625488      12.216732      683.74848    
       127   0             -249.984        1.2198557e-07 -3.299471e-07   3.2394128e-07  3.7196254e-07 -0.53126654     2.2763145e-11  3.4488197e-11  6.1083659      9.1625488      12.216732      683.74848    
       128   0             -249.984        1.2196662e-07 -3.2997754e-07  3.2401347e-07  3.7186394e-07 -0.53126654     1.3527812e-11  2.4968325e-12  6.1083659      9.1625488      12.216732      683.74848    
       129   0             -249.984        1.2201943e-07 -3.2991055e-07  3.2403415e-07  3.719347e-07  -0.53126654     3.0437577e-11  3.3771768e-11  6.1083659      9.1625488      12.216732      683.74848    
       130   0             -249.984        1.2205759e-07 -3.2993813e-07  3.241572e-07   3.7195369e-07 -0.53126654     3.3689455e-11 -3.1506632e-11  6.1083659      9.1625488      12.216732      683.74848    
       131   0             -249.984        1.2197707e-07 -3.2994372e-07  3.2394622e-07  3.7192872e-07 -0.53126654    -1.8600741e-11  6.0869056e-11  6.1083659      9.1625488      12.216732      683.74848    
       132   0             -249.984        1.2196502e-07 -3.2997403e-07  3.2392476e-07  3.7194433e-07 -0.53126654     4.2924788e-12 -1.3586752e-11  6.1083659      9.1625488      12.216732      683.74848    
       133   0             -249.984        1.2198904e-07 -3.2996232e-07  3.2404963e-07  3.7187981e-07 -0.53126654     2.1202244e-11  4.1413681e-11  6.1083659      9.1625488      12.216732      683.74848    
       134   0             -249.984        1.220053e-07  -3.2994034e-07  3.2411076e-07  3.7184547e-07 -0.53126654     6.893981e-12   2.4392133e-11  6.1083659      9.1625488      12.216732      683.74848    
       135   0             -249.984        1.220549e-07  -3.2993683e-07  3.2419596e-07  3.7190556e-07 -0.53126654     4.6176665e-12 -1.3181284e-11  6.1083659      9.1625488      12.216732      683.74848    
       136   0             -249.984        1.2207701e-07 -3.298952e-07   3.2422458e-07  3.7190166e-07 -0.53126654    -5.723305e-12   1.2577654e-11  6.1083659      9.1625488      12.216732      683.74848    
       137   0             -249.984        1.2204879e-07 -3.2989989e-07  3.2417346e-07  3.7187278e-07 -0.53126654    -3.9282684e-11  2.3543596e-11  6.1083659      9.1625488      12.216732      683.74848    
       138   0             -249.984        1.2212076e-07 -3.2987946e-07  3.2426672e-07  3.7197502e-07 -0.53126654    -2.1072168e-11 -6.2202326e-12  6.1083659      9.1625488      12.216732      683.74848    
Loop time of 0.00653425 on 4 procs for 22 steps with 48 atoms

0.0% CPU use with 4 MPI tasks x 1 OpenMP threads

Minimization stats:
  Stopping criterion = force tolerance
  Energy initial, next-to-last, final = 
     -249.983999986325  -249.984000001125  -249.984000001125
  Force two-norm initial, final = 0.00046637956 8.0489478e-11
  Force max component initial, final = 9.6313411e-05 2.2711583e-11
  Final line search alpha, max atom move = 1 2.2711583e-11
  Iterations, force evaluations = 22 44

MPI task timing breakdown:
Section |  min time  |  avg time  |  max time  |%varavg| %total
---------------------------------------------------------------
Pair    | 0.005257   | 0.0054323  | 0.005698   |   0.2 | 83.14
Neigh   | 0          | 0          | 0          |   0.0 |  0.00
Comm    | 0.000429   | 0.00068875 | 0.000859   |   0.0 | 10.54
Output  | 0.000199   | 0.00020975 | 0.00023    |   0.0 |  3.21
Modify  | 0          | 0          | 0          |   0.0 |  0.00
Other   |            | 0.0002035  |            |       |  3.11

Nlocal:             12 ave          15 max          10 min
Histogram: 1 0 1 0 1 0 0 0 0 1
Nghost:            293 ave         295 max         290 min
Histogram: 1 0 0 0 0 0 1 0 1 1
Neighs:            348 ave         434 max         290 min
Histogram: 1 1 0 0 1 0 0 0 0 1
FullNghs:          696 ave         870 max         580 min
Histogram: 1 0 1 0 1 0 0 0 0 1

Total # of neighbors = 2784
Ave neighs/atom = 58
Neighbor list builds = 0
Dangerous builds = 0

# Obtain new stress tensor

variable tmp equal pe
variable e1 equal ${tmp}
variable e1 equal -249.984000001125
variable tmp equal press
variable p1 equal ${tmp}
variable p1 equal 1.22120760614846e-07
variable tmp equal pxx
variable pxx1 equal ${tmp}
variable pxx1 equal -3.29879464249518e-07
variable tmp equal pyy
variable pyy1 equal ${tmp}
variable pyy1 equal 3.24266723081053e-07
variable tmp equal pzz
variable pzz1 equal ${tmp}
variable pzz1 equal 3.71975023013002e-07
variable tmp equal pxy
variable pxy1 equal ${tmp}
variable pxy1 equal -0.531266538869088
variable tmp equal pxz
variable pxz1 equal ${tmp}
variable pxz1 equal -2.10721684656143e-11
variable tmp equal pyz
variable pyz1 equal ${tmp}
variable pyz1 equal -6.22023259924889e-12

# Compute elastic constant from pressure tensor

variable C1pos equal ${d1}
variable C1pos equal 3.30660955534342e-05
variable C2pos equal ${d2}
variable C2pos equal -3.25343745024851e-05
variable C3pos equal ${d3}
variable C3pos equal -3.71365230878639e-05
variable C4pos equal ${d4}
variable C4pos equal 2.5438830690573e-09
variable C5pos equal ${d5}
variable C5pos equal 2.06006461774177e-09
variable C6pos equal ${d6}
variable C6pos equal 53.1266538856961

# Combine positive and negative

variable C1${dir} equal 0.5*(${C1neg}+${C1pos})
variable C16 equal 0.5*(${C1neg}+${C1pos})
variable C16 equal 0.5*(-3.3071376603062e-05+${C1pos})
variable C16 equal 0.5*(-3.3071376603062e-05+3.30660955534342e-05)
variable C2${dir} equal 0.5*(${C2neg}+${C2pos})
variable C26 equal 0.5*(${C2neg}+${C2pos})
variable C26 equal 0.5*(3.25224466145327e-05+${C2pos})
variable C26 equal 0.5*(3.25224466145327e-05+-3.25343745024851e-05)
variable C3${dir} equal 0.5*(${C3neg}+${C3pos})
variable C36 equal 0.5*(${C3neg}+${C3pos})
variable C36 equal 0.5*(3.71351703066785e-05+${C3pos})
variable C36 equal 0.5*(3.71351703066785e-05+-3.71365230878639e-05)
variable C4${dir} equal 0.5*(${C4neg}+${C4pos})
variable C46 equal 0.5*(${C4neg}+${C4pos})
variable C46 equal 0.5*(-1.6879278463245e-10+${C4pos})
variable C46 equal 0.5*(-1.6879278463245e-10+2.5438830690573e-09)
variable C5${dir} equal 0.5*(${C5neg}+${C5pos})
variable C56 equal 0.5*(${C5neg}+${C5pos})
variable C56 equal 0.5*(1.71211368783116e-09+${C5pos})
variable C56 equal 0.5*(1.71211368783116e-09+2.06006461774177e-09)
variable C6${dir} equal 0.5*(${C6neg}+${C6pos})
variable C66 equal 0.5*(${C6neg}+${C6pos})
variable C66 equal 0.5*(53.1266538897037+${C6pos})
variable C66 equal 0.5*(53.1266538897037+53.1266538856961)

# Delete dir to make sure it is not reused

variable dir delete

# Output final values

variable C11all equal ${C11}
variable C11all equal 181.463497283374
variable C22all equal ${C22}
variable C22all equal 181.463497265815
variable C33all equal ${C33}
variable C33all equal 181.463497278036

variable C12all equal 0.5*(${C12}+${C21})
variable C12all equal 0.5*(100.084924957443+${C21})
variable C12all equal 0.5*(100.084924957443+100.084924962171)
variable C13all equal 0.5*(${C13}+${C31})
variable C13all equal 0.5*(100.084924961833+${C31})
variable C13all equal 0.5*(100.084924961833+100.084924966581)
variable C23all equal 0.5*(${C23}+${C32})
variable C23all equal 0.5*(100.084924954692+${C32})
variable C23all equal 0.5*(100.084924954692+100.084924956696)

variable C44all equal ${C44}
variable C44all equal 53.1266538850956
variable C55all equal ${C55}
variable C55all equal 53.126653884244
variable C66all equal ${C66}
variable C66all equal 53.1266538876999

variable C14all equal 0.5*(${C14}+${C41})
variable C14all equal 0.5*(8.66950634710112e-09+${C41})
variable C14all equal 0.5*(8.66950634710112e-09+-1.169807154746e-09)
variable C15all equal 0.5*(${C15}+${C51})
variable C15all equal 0.5*(-4.52661396669964e-09+${C51})
variable C15all equal 0.5*(-4.52661396669964e-09+8.6825325568233e-10)
variable C16all equal 0.5*(${C16}+${C61})
variable C16all equal 0.5*(-2.64052481389768e-09+${C61})
variable C16all equal 0.5*(-2.64052481389768e-09+-2.04218212937638e-09)

variable C24all equal 0.5*(${C24}+${C42})
variable C24all equal 0.5*(4.96886935425078e-09+${C42})
variable C24all equal 0.5*(4.96886935425078e-09+9.67382912426115e-10)
variable C25all equal 0.5*(${C25}+${C52})
variable C25all equal 0.5*(-4.66319283634977e-09+${C52})
variable C25all equal 0.5*(-4.66319283634977e-09+2.08117971099705e-10)
variable C26all equal 0.5*(${C26}+${C62})
variable C26all equal 0.5*(-5.96394397619848e-09+${C62})
variable C26all equal 0.5*(-5.96394397619848e-09+-1.00359480978838e-09)

variable C34all equal 0.5*(${C34}+${C43})
variable C34all equal 0.5*(3.3559379407999e-09+${C43})
variable C34all equal 0.5*(3.3559379407999e-09+3.15793281885332e-09)
variable C35all equal 0.5*(${C35}+${C53})
variable C35all equal 0.5*(-2.48443467714741e-09+${C53})
variable C35all equal 0.5*(-2.48443467714741e-09+-2.99174836864495e-10)
variable C36all equal 0.5*(${C36}+${C63})
variable C36all equal 0.5*(-6.76390592701945e-10+${C63})
variable C36all equal 0.5*(-6.76390592701945e-10+5.84422118273656e-10)

variable C45all equal 0.5*(${C45}+${C54})
variable C45all equal 0.5*(-3.7086650663223e-10+${C54})
variable C45all equal 0.5*(-3.7086650663223e-10+1.30075113985273e-09)
variable C46all equal 0.5*(${C46}+${C64})
variable C46all equal 0.5*(1.18754514221242e-09+${C64})
variable C46all equal 0.5*(1.18754514221242e-09+3.42731912447897e-09)
variable C56all equal 0.5*(${C56}+${C65})
variable C56all equal 0.5*(1.88608915278647e-09+${C65})
variable C56all equal 0.5*(1.88608915278647e-09+-7.82970356334056e-10)

# Average moduli for cubic crystals

variable C11cubic equal (${C11all}+${C22all}+${C33all})/3.0
variable C11cubic equal (181.463497283374+${C22all}+${C33all})/3.0
variable C11cubic equal (181.463497283374+181.463497265815+${C33all})/3.0
variable C11cubic equal (181.463497283374+181.463497265815+181.463497278036)/3.0
variable C12cubic equal (${C12all}+${C13all}+${C23all})/3.0
variable C12cubic equal (100.084924959807+${C13all}+${C23all})/3.0
variable C12cubic equal (100.084924959807+100.084924964207+${C23all})/3.0
variable C12cubic equal (100.084924959807+100.084924964207+100.084924955694)/3.0
variable C44cubic equal (${C44all}+${C55all}+${C66all})/3.0
variable C44cubic equal (53.1266538850956+${C55all}+${C66all})/3.0
variable C44cubic equal (53.1266538850956+53.126653884244+${C66all})/3.0
variable C44cubic equal (53.1266538850956+53.126653884244+53.1266538876999)/3.0

variable bulkmodulus equal (${C11cubic}+2*${C12cubic})/3.0
variable bulkmodulus equal (181.463497275742+2*${C12cubic})/3.0
variable bulkmodulus equal (181.463497275742+2*100.084924959903)/3.0
variable shearmodulus1 equal ${C44cubic}
variable shearmodulus1 equal 53.1266538856798
variable shearmodulus2 equal (${C11cubic}-${C12cubic})/2.0
variable shearmodulus2 equal (181.463497275742-${C12cubic})/2.0
variable shearmodulus2 equal (181.463497275742-100.084924959903)/2.0
variable poissonratio equal 1.0/(1.0+${C11cubic}/${C12cubic})
variable poissonratio equal 1.0/(1.0+181.463497275742/${C12cubic})
variable poissonratio equal 1.0/(1.0+181.463497275742/100.084924959903)

# For Stillinger-Weber silicon, the analytical results
# are known to be (E. R. Cowley, 1988):
#               C11 = 151.4 GPa
#               C12 = 76.4 GPa
#               C44 = 56.4 GPa

print "========================================="
=========================================
print "Components of the Elastic Constant Tensor"
Components of the Elastic Constant Tensor
print "========================================="
=========================================

print "Elastic Constant C11all = ${C11all} ${cunits}"
Elastic Constant C11all = 181.463497283374 GPa
print "Elastic Constant C22all = ${C22all} ${cunits}"
Elastic Constant C22all = 181.463497265815 GPa
print "Elastic Constant C33all = ${C33all} ${cunits}"
Elastic Constant C33all = 181.463497278036 GPa

print "Elastic Constant C12all = ${C12all} ${cunits}"
Elastic Constant C12all = 100.084924959807 GPa
print "Elastic Constant C13all = ${C13all} ${cunits}"
Elastic Constant C13all = 100.084924964207 GPa
print "Elastic Constant C23all = ${C23all} ${cunits}"
Elastic Constant C23all = 100.084924955694 GPa

print "Elastic Constant C44all = ${C44all} ${cunits}"
Elastic Constant C44all = 53.1266538850956 GPa
print "Elastic Constant C55all = ${C55all} ${cunits}"
Elastic Constant C55all = 53.126653884244 GPa
print "Elastic Constant C66all = ${C66all} ${cunits}"
Elastic Constant C66all = 53.1266538876999 GPa

print "Elastic Constant C14all = ${C14all} ${cunits}"
Elastic Constant C14all = 3.74984959617756e-09 GPa
print "Elastic Constant C15all = ${C15all} ${cunits}"
Elastic Constant C15all = -1.82918035550865e-09 GPa
print "Elastic Constant C16all = ${C16all} ${cunits}"
Elastic Constant C16all = -2.34135347163703e-09 GPa

print "Elastic Constant C24all = ${C24all} ${cunits}"
Elastic Constant C24all = 2.96812613333845e-09 GPa
print "Elastic Constant C25all = ${C25all} ${cunits}"
Elastic Constant C25all = -2.22753743262503e-09 GPa
print "Elastic Constant C26all = ${C26all} ${cunits}"
Elastic Constant C26all = -3.48376939299343e-09 GPa

print "Elastic Constant C34all = ${C34all} ${cunits}"
Elastic Constant C34all = 3.25693537982661e-09 GPa
print "Elastic Constant C35all = ${C35all} ${cunits}"
Elastic Constant C35all = -1.39180475700595e-09 GPa
print "Elastic Constant C36all = ${C36all} ${cunits}"
Elastic Constant C36all = -4.59842372141445e-11 GPa

print "Elastic Constant C45all = ${C45all} ${cunits}"
Elastic Constant C45all = 4.6494231661025e-10 GPa
print "Elastic Constant C46all = ${C46all} ${cunits}"
Elastic Constant C46all = 2.30743213334569e-09 GPa
print "Elastic Constant C56all = ${C56all} ${cunits}"
Elastic Constant C56all = 5.51559398226207e-10 GPa

print "========================================="
=========================================
print "Average properties for a cubic crystal"
Average properties for a cubic crystal
print "========================================="
=========================================

print "Bulk Modulus = ${bulkmodulus} ${cunits}"
Bulk Modulus = 127.211115731849 GPa
print "Shear Modulus 1 = ${shearmodulus1} ${cunits}"
Shear Modulus 1 = 53.1266538856798 GPa
print "Shear Modulus 2 = ${shearmodulus2} ${cunits}"
Shear Modulus 2 = 40.6892861579195 GPa
print "Poisson Ratio = ${poissonratio}"
Poisson Ratio = 0.355480326137775
Total wall time: 0:00:00
