# LAMMPS data file written by OVITO Basic 3.8.4

2 atoms
2 atom types

0.0 2.86 xlo xhi
0.0 2.86 ylo yhi
0.0 2.86 zlo zhi

Masses

1 58.933  # Co
2 26.9820 # Al

Atoms  # atomic

1 1 0.0 0.0 0.0
2 2 1.43 1.43 1.43
