ITEM: TIMESTEP
0
ITEM: NUMBER OF ATOMS
6000
ITEM: BOX BOUNDS pp pp pp
2.6160259541667941e-01 2.7079397404583421e+01
3.4205883378873914e-01 2.6998941166211353e+01
1.1650688999113399e+00 1.0819893110008819e+02
ITEM: ATOMS id type x y z c_peratom fx fy fz 
122 2 6.18337 5.93592 6.03084 -25.3571 -3.0069 -0.569486 -2.78451 
601 3 5.95542 2.88218 3.88268 -26.549 0.760916 1.80036 0.637934 
602 3 5.94285 2.96994 8.80887 -27.8476 2.06921 -1.30451 -0.152388 
1021 3 3.58532 5.79636 3.40542 -27.3653 -0.422223 1.0247 2.4291 
1022 2 3.63542 5.29996 8.75755 -24.2412 -1.21916 3.05328 -1.20301 
1502 3 3.26736 2.81268 6.37299 -27.145 -0.912694 1.76775 1.75295 
3601 1 1.18238 1.81603 2.22294 -8.05929 2.84816 -1.78123 -0.292839 
4020 1 4.7034 4.67844 2.12203 -8.60173 -2.36264 -1.52101 1.01933 
2501 1 2.22731 4.7457 4.61936 -8.62992 0.598798 0.0262189 -0.95463 
3620 1 4.83076 4.54293 4.61957 -7.98188 -0.221692 -2.41493 0.949073 
5681 1 5.37748 0.703144 4.57441 -9.16679 -1.04305 2.01603 -2.28041 
2980 1 2.51767 1.97844 4.71349 -9.39091 0.117585 -0.675196 -0.649878 
5904 1 1.72279 4.72491 9.92742 -7.98094 0.658537 -1.39061 0.687775 
3420 1 1.34237 4.13482 7.02876 -6.58246 0.706656 -3.3281 0.326793 
5742 1 5.3869 4.21769 7.23792 -8.10743 -0.937801 -1.09159 0.545236 
2600 1 6.86271 2.37229 2.33041 -8.5218 0.105734 -1.89631 -0.519982 
5081 1 4.64373 1.56204 7.1446 -8.62858 1.07781 -2.10704 -0.0576211 
5181 1 4.27465 2.00275 2.20465 -9.38479 -1.11447 -1.7806 3.13645 
22 3 1.07354 5.78176 5.98812 -29.1706 -1.16358 2.25744 0.0506506 
5222 1 5.59672 6.50335 8.17174 -7.56482 -1.8348 -0.477952 1.47315 
501 2 0.825596 3.34057 3.7568 -24.048 0.511418 -2.66367 -2.37414 
4923 1 2.67153 6.21396 7.13637 -7.26501 1.5083 1.83802 -1.02785 
3621 1 6.76807 6.57685 4.01077 -6.85544 0.94891 -0.158366 0.753023 
4921 1 1.76418 4.59145 1.91923 -8.63158 3.49801 0.3692 1.67408 
3722 1 3.31667 3.22319 8.48593 -7.53054 2.09014 1.01899 1.09556 
502 3 0.827914 2.9623 8.95514 -29.7403 0.424209 -0.250252 -1.60702 
2 2 0.638725 0.361838 6.15143 -23.6853 1.69731 2.1712 -1.32219 
2582 1 1.89403 1.46406 7.61931 -7.82751 -0.0901818 -2.67581 -1.51393 
5240 1 7.31248 4.94369 1.98241 -7.86727 2.61171 -1.10905 -0.492635 
3103 1 8.02418 3.59256 8.24829 -7.11663 0.133341 2.21808 -0.146321 
2121 1 7.30717 1.71699 7.10516 -6.26138 -1.95698 -0.241623 0.0713774 
3701 1 8.15993 1.42545 4.83864 -6.92508 -0.747977 0.549681 -1.32 
222 3 11.374 5.98834 5.72812 -28.5596 0.797588 -1.53011 1.41085 
701 3 11.5586 3.39582 3.33372 -27.5436 1.0963 -2.32835 0.242085 
702 2 11.5369 3.25851 9.08052 -24.9185 0.179542 1.98601 0.425623 
1121 3 8.91158 5.64901 3.25862 -27.1874 -4.1321 2.60432 1.16475 
1122 3 8.16641 5.41272 9.05 -27.7579 0.740808 -1.68233 -0.687527 
1602 3 8.89063 3.28418 6.16034 -29.0793 -0.260364 -2.6978 0.927716 
5621 1 11.1475 1.74585 4.63564 -7.34757 1.07374 0.545588 -0.58349 
5601 1 10.1566 4.70208 4.32893 -8.64253 0.123425 -2.39982 -0.78719 
4360 1 10.2616 4.60219 6.85007 -7.36033 0.532967 -1.21027 1.82262 
5302 1 12.7309 4.45363 4.96078 -8.2541 -1.47639 1.57833 -1.71867 
2702 1 10.1602 3.92287 1.83566 -8.9468 1.46821 2.91419 3.26004 
2120 1 9.54314 1.42454 2.4967 -7.26679 1.24251 0.467043 -1.45238 
5281 1 12.6709 2.27025 7.31771 -7.8711 -1.42542 -0.112571 1.17732 
3760 1 7.4971 4.23117 4.99241 -8.22797 0.41205 -1.49044 -0.353137 
4501 1 10.0878 1.52351 7.1003 -6.90463 -0.61797 1.42581 0.847704 
2400 1 12.4849 1.99137 1.37202 -7.8072 0.776427 0.607018 2.07326 
2620 1 11.248 6.6004 2.8305 -8.26235 -0.548371 -2.56201 0.159556 
5220 1 7.88184 6.28265 7.06208 -7.54287 4.89585 0.449937 2.38273 
3821 1 12.9916 4.68524 2.18394 -8.13748 -4.75688 -1.59127 0.936331 
4123 1 7.29053 1.45399 10.0505 -8.0808 1.57602 -0.442989 -0.320121 
5702 1 13.4731 5.10622 7.45125 -6.47335 -1.49874 -0.70244 -1.00387 
2123 1 10.4685 1.53233 9.73383 -7.85527 -1.05778 -1.11884 0.974314 
4802 1 11.8413 5.51208 9.81229 -6.94413 1.04964 -0.205899 -1.78299 
1601 3 8.51989 3.07452 1.23155 -28.6762 -0.36273 -1.90219 -1.87036 
1102 3 8.92197 0.425265 8.63574 -28.8852 -0.687138 1.27427 -1.27222 
2820 1 1.70089 7.54316 4.59489 -6.84055 0.653961 -2.65029 -2.22403 
2921 1 3.63038 7.34137 2.21123 -7.71855 -0.849324 -1.47169 1.96755 
522 3 0.683638 7.96886 9.00656 -28.1329 1.62571 2.10389 -3.33017 
2002 1 3.44947 8.75909 7.84201 -7.3263 2.5666 1.72384 -0.227125 
5122 1 3.54124 11.6735 6.87197 -6.36284 -0.522126 -3.05405 -1.63273 
2540 1 3.82073 13.3787 4.23742 -7.28992 2.18079 -0.357734 -2.85579 
5541 1 2.22651 13.2762 2.16 -7.9567 0.256528 -1.93072 0.0460062 
4021 1 6.95921 12.7834 7.79162 -8.74219 2.65033 0.047601 -0.207725 
2522 1 6.37428 8.2958 6.49026 -7.80039 0.806591 1.88256 1.45714 
142 3 5.94985 11.2873 6.5768 -27.736 -2.75217 1.07212 -3.75231 
621 3 5.8516 8.53633 3.81481 -30.1438 0.290001 2.1407 0.254191 
622 3 5.84388 8.45259 8.46034 -27.178 -0.200486 -1.59554 1.60178 
1041 3 3.28374 11.6465 3.35944 -28.2889 -0.936117 -0.701355 2.51724 
1042 3 3.63987 10.9807 9.21226 -26.4861 -5.60267 1.05824 -2.61448 
1522 3 3.24807 8.54376 5.8543 -29.032 -1.63194 0.0542629 1.45957 
4621 1 5.12489 13.0777 1.75419 -7.88928 -0.981635 1.06674 1.36131 
3021 1 2.20436 10.447 1.8853 -9.23652 -0.980537 -0.780016 -0.831132 
3062 1 4.87147 9.88078 5.16244 -6.37349 1.06963 -0.57948 3.83023 
4583 1 4.37186 7.25633 4.9467 -8.2141 0.81322 -1.60843 -0.768448 
5941 1 2.44361 9.88804 4.63766 -7.67249 -3.4903 2.94336 -0.264282 
3721 1 6.62604 12.0059 4.64739 -6.18645 -0.61918 1.24244 2.82238 
3002 1 1.48001 10.7048 8.21995 -7.33453 -0.574736 -0.629569 3.18886 
3403 1 5.40867 10.5813 8.9477 -9.63163 1.01249 -0.310604 -2.90463 
5521 1 0.363334 11.3872 3.57999 -8.32861 -0.207067 -1.29316 0.13201 
5201 1 6.26755 7.98318 1.97567 -7.22669 0.770432 -0.438797 -2.36002 
4560 1 1.53747 12.9836 5.24168 -7.97746 -1.09846 0.125256 1.27123 
42 2 0.797179 10.9899 6.29373 -24.0439 1.45755 0.450793 -1.10085 
4462 1 2.14507 12.8394 9.69091 -8.28779 3.04102 -1.26257 0.488616 
5021 1 4.78082 10.6623 2.94399 -6.34748 -0.330176 -0.803277 -2.4921 
3522 1 2.24399 7.29806 9.88382 -6.98417 1.96438 -3.42113 0.204154 
521 2 0.422665 9.14887 3.48941 -22.974 1.32083 -2.27408 2.25255 
4401 1 0.722539 8.50303 6.62217 -6.45329 0.738696 2.34875 0.837993 
5121 1 0.701858 7.84978 1.80153 -8.81156 1.12391 0.287453 -1.23773 
4542 1 4.56592 13.3675 7.82689 -6.65364 -0.334326 2.59015 3.78598 
5101 1 9.02401 7.03375 1.68924 -8.03025 -0.164387 -1.51936 0.553918 
3702 1 11.3413 7.20982 7.29939 -7.14615 -0.475123 0.79185 1.19627 
3121 1 11.8297 9.17733 1.82855 -7.1888 0.186583 3.43017 -2.71392 
5643 1 12.5942 7.64725 4.95673 -8.36748 1.57315 -0.94036 2.42027 
4622 1 7.94188 10.8942 6.68817 -8.13529 -0.691219 -1.80303 1.11407 
2621 1 7.7423 9.10315 4.26847 -6.7276 1.02991 0.383588 1.07888 
2302 1 12.3037 9.73767 7.85059 -8.30623 -1.30871 2.92124 -1.3993 
2242 1 9.75252 7.15607 5.06864 -8.70342 0.32619 0.969534 -2.13041 
5622 1 12.4519 12.4371 7.70005 -9.58057 1.85187 -0.426897 2.62348 
5501 1 7.17743 10.5903 2.05287 -6.84029 1.6978 -1.29143 -1.22844 
2042 1 9.44714 9.64958 2.3661 -7.8436 2.33941 -0.0306256 0.665659 
5259 1 8.07579 12.9289 2.97081 -6.90575 0.859255 3.04836 -4.50711 
2243 1 12.3711 13.0304 5.25428 -8.06455 -1.63949 -0.188439 -0.269115 
5261 1 9.83304 12.2798 8.10745 -9.08768 0.944457 0.364901 -1.9216 
2801 1 12.8838 10.4015 4.89722 -8.45047 -2.77298 -0.828625 -0.148322 
3540 1 11.1564 11.8971 2.78971 -8.70221 -0.880684 0.0241463 1.5354 
2122 1 9.3283 9.03039 7.98566 -8.91024 -0.880084 0.198 0.753969 
242 2 11.2859 11.2612 6.39683 -22.4894 1.737 2.50833 -0.145831 
721 2 11.2177 8.56066 3.71432 -23.4625 -1.45391 1.27391 -1.10857 
722 2 11.0833 8.39288 9.21588 -24.0403 1.24964 -2.68354 -1.55763 
1141 3 8.82333 11.2107 3.41161 -28.932 -3.23619 -0.0154102 2.51953 
1142 3 8.51289 10.9837 8.65135 -27.0164 -0.711854 -0.599417 3.2512 
1622 3 8.94578 8.57655 6.12656 -27.4351 -4.56296 -1.26675 -0.666721 
3742 1 10.0466 10.065 5.39098 -9.29602 0.471455 -2.2939 -4.14647 
3541 1 9.521 12.9559 5.0521 -7.43226 3.19611 -2.29105 0.807237 
1242 3 13.5748 11.3696 9.05959 -26.9463 3.42807 -3.59141 -0.179712 
2222 1 13.1723 8.14239 9.695 -7.02305 -4.18165 3.63488 6.45248 
5141 1 13.4921 13.6247 2.86419 -7.31894 -2.45971 0.306581 0.829644 
3603 1 1.10654 1.64098 18.3246 -6.68832 1.35725 -1.25099 1.24824 
4603 1 3.84629 1.29042 18.3662 -7.2498 -0.115166 -0.685835 0.51039 
3024 1 4.71786 6.8388 18.3764 -7.59748 -0.17369 0.649871 1.71247 
3104 1 4.70046 4.24795 17.7747 -6.54231 -0.387856 -0.0143074 -1.22836 
24 3 0.640698 5.89788 17.4423 -28.2562 -1.92732 -2.29648 0.282658 
5924 1 1.50515 6.45685 15.9542 -7.7672 0.608127 1.45951 -4.04412 
2423 1 6.37361 1.90384 17.6344 -8.05288 2.30726 -0.810338 -1.88505 
3883 1 1.62406 4.20623 18.1247 -7.41453 0.245836 -0.222187 1.81772 
3904 1 2.30338 3.83986 15.3727 -7.2308 -0.699947 -1.21123 0.224119 
4964 1 1.73775 1.66045 13.3699 -6.62337 2.5359 0.160671 -0.790737 
5903 1 2.1413 1.86552 10.3971 -7.94662 -1.27292 -0.821375 1.17791 
2003 1 4.83761 1.75878 10.1375 -8.48407 -0.841714 -1.42839 -0.994918 
5183 1 4.42168 1.54101 15.7628 -8.18847 0.692229 1.68885 -2.00138 
123 3 6.01518 5.30593 12.2122 -29.4655 -1.24377 -2.2008 -1.30192 
124 3 5.78821 5.70845 16.7977 -29.3509 -0.901914 -0.650868 1.58323 
603 3 6.04985 2.89519 14.9859 -27.9195 1.1375 -1.80805 -1.68677 
1023 2 2.96431 5.60284 14.2571 -24.8872 2.63658 0.361689 3.37087 
1503 3 3.33512 3.02159 11.4468 -28.1348 2.71594 -1.48135 -0.764284 
1504 3 2.89555 2.46655 16.927 -29.3737 -0.964084 1.14241 1.44368 
3504 1 5.2423 3.35688 12.2871 -6.33481 -0.544436 -1.3788 0.976304 
4683 1 2.72933 4.29633 12.6295 -7.75627 -2.81191 0.379472 -0.571369 
5002 1 2.15665 6.70796 18.4886 -7.63408 0.246241 0.588321 1.4509 
4023 1 5.06873 4.38533 14.9045 -7.27721 -3.4864 2.59728 -0.689446 
5022 1 4.50689 5.06843 10.588 -7.83183 0.661079 -0.115698 0.398327 
4083 1 1.51255 0.859674 15.9928 -6.79721 3.32253 -0.154747 -0.84203 
2403 1 4.67026 6.63442 13.0908 -7.51 -0.853709 -1.21625 -0.139522 
503 3 0.267857 2.7489 14.0379 -28.4994 2.00615 2.68286 2.50017 
23 3 0.77315 5.62827 11.4227 -28.2678 0.033366 1.64216 -0.192758 
4022 1 4.0025 6.89365 15.9325 -8.04085 2.10498 0.663167 -1.91013 
3443 1 1.87468 6.82504 12.8318 -8.229 0.316419 0.147446 0.108392 
3982 1 4.98943 0.553367 12.9062 -7.01369 -1.96621 -0.160046 1.00735 
1103 2 8.94699 0.374092 14.4537 -23.3229 -0.582628 -0.078845 -3.53092 
4522 1 7.66635 6.79503 10.1729 -7.46247 0.811183 2.18111 -0.226818 
2384 1 13.2091 3.61505 14.1762 -7.64317 1.78241 -0.292663 1.07411 
3102 1 13.1274 1.75988 10.2769 -8.00274 -2.45027 -1.9148 -1.61233 
4222 1 12.8507 6.81129 18.39 -9.14491 -0.258222 0.772749 0.249424 
4723 1 7.30976 6.84995 17.8742 -7.60905 -0.202223 1.22543 1.93014 
2601 1 7.19151 6.59417 12.8529 -7.37769 2.67424 1.77304 0.370651 
4102 1 8.05352 2.18172 15.278 -8.67675 -0.349326 -2.61107 1.0518 
5203 1 7.6303 1.04287 12.7053 -7.32603 0.546062 0.406704 0.865395 
3124 1 7.46084 4.01713 13.2907 -7.28362 0.258844 -0.235512 0.324896 
3643 1 7.19927 4.34829 10.6016 -7.42975 -2.06191 -1.49013 -0.337651 
4703 1 13.3711 1.11012 16.324 -7.03501 -2.68143 0.627958 1.60331 
3204 1 11.9556 5.78463 14.4048 -7.2175 0.12181 1.66732 -0.826257 
4684 1 9.24603 1.91877 18.1918 -8.9192 1.04615 -2.88989 -0.028533 
4803 1 12.3425 1.21819 13.1194 -7.10219 -0.681987 0.414994 1.59869 
5683 1 9.82473 1.95453 12.4884 -7.774 2.66252 -1.61808 1.9133 
2763 1 9.90174 4.67703 12.8408 -7.94387 -1.18178 -0.071035 1.78133 
3025 1 7.19198 4.55685 15.8865 -7.66705 1.43267 -0.0260566 2.00068 
5202 1 9.66719 4.17522 10.3492 -7.16444 0.873709 0.148305 -1.56832 
223 3 11.1128 5.5117 11.7876 -28.3883 3.28704 -0.0454081 -2.17924 
224 3 11.0067 5.9352 17.5454 -28.0482 1.0943 -1.51448 -1.77307 
703 3 11.2094 3.4387 14.1245 -28.721 1.12947 -2.40403e-05 -0.882413 
1123 3 8.57519 5.54176 14.4221 -29.4846 -1.1529 1.37409 -0.727872 
1603 3 8.4816 2.9604 11.6999 -29.1141 -1.54444 1.45077 -0.96467 
1604 3 8.71898 3.16196 16.9073 -27.3643 -2.06224 4.72091 0.839243 
5104 1 10.9279 1.79392 15.3938 -8.94713 -2.41542 -0.316701 0.298118 
5724 1 9.68562 4.23545 15.3164 -7.15253 2.16453 -4.40059 1.13077 
204 3 10.8821 0.87263 17.0691 -26.7902 3.36072 -3.01007 2.21528 
2703 1 12.0637 3.52008 11.7217 -7.29579 -0.987436 1.50729 0.617911 
4601 1 9.59012 6.33061 16.1412 -7.41224 -0.5778 3.56698 2.35443 
5604 1 12.2597 4.10353 16.9748 -7.43402 0.0878815 0.418913 -1.12992 
203 3 11.3994 0.558704 11.6894 -28.157 -1.00352 0.350767 -1.93673 
4124 1 10.0475 4.35957 18.5453 -7.84382 -2.44878 2.74427 -4.23537 
5623 1 13.3413 6.31232 12.1351 -8.10678 0.20072 0.488523 0.682436 
2704 1 12.0377 1.71932 18.6891 -8.15372 -0.0871803 0.0579691 0.117537 
4604 1 7.4273 4.27791 18.7298 -6.69275 0.216095 -0.772707 -1.64493 
1544 3 2.75038 13.5372 17.291 -28.7008 0.902554 1.11383 -0.94111 
2503 1 6.85667 7.21005 15.463 -8.02048 0.155145 -2.79214 -0.578594 
523 2 0.520044 7.96407 14.5333 -25.5353 -1.16639 1.55997 -0.361835 
2141 1 5.09359 12.8139 10.5968 -8.45822 -5.08449 -1.42889 0.106086 
43 3 0.529582 10.8992 11.5497 -27.4698 -0.91517 0.054234 1.85706 
643 3 5.59765 13.6177 14.3659 -29.7998 0.789651 0.804194 0.0338891 
2923 1 1.74226 9.32469 10.8395 -7.08689 -2.41991 2.64951 -1.35489 
44 3 0.785542 11.0582 17.042 -29.431 -2.39361 -2.18067 -0.169063 
3622 1 3.64349 10.5894 11.6378 -9.22196 1.56997 3.32747 -2.05791 
5024 1 5.23453 9.44811 18.1315 -8.04001 0.673116 -0.129423 2.07915 
5523 1 4.06017 8.93238 13.4821 -7.01665 -0.0401747 1.87166 -0.0524649 
2543 1 6.75442 9.44948 13.487 -6.97802 0.240403 -0.0593466 -2.18315 
5923 1 1.86459 12.0141 15.5456 -8.14834 -0.872891 0.985244 -1.2649 
4144 1 0.709826 12.956 17.7653 -7.42734 -0.0484489 -0.954307 -0.13045 
2043 1 1.52045 9.5468 13.4581 -7.05786 -1.23758 1.24155 -1.15453 
3023 1 4.91568 8.355 10.3188 -7.91961 0.142384 0.905391 0.551303 
5023 1 3.75478 9.83508 16.0917 -6.8859 2.01983 -0.481206 -1.42824 
143 2 5.83652 10.8532 11.3445 -23.6782 1.8654 -2.5418 0.857865 
144 3 5.42873 10.9748 16.8462 -28.7655 -0.889684 1.94224 -1.22687 
623 3 5.57511 8.29815 14.5316 -28.4962 -0.53168 -0.0514892 -0.481263 
1043 2 2.94327 11.048 13.7492 -24.4363 2.83485 0.0409515 3.92803 
1523 3 3.453 8.24054 11.4944 -28.66 -2.88407 -1.16439 2.34899 
1524 3 3.20694 8.27293 17.2993 -29.0609 0.211646 -1.19953 -1.52757 
4444 1 2.40464 9.33961 18.6802 -7.90327 -3.93033 -1.27351 -0.402638 
2023 1 1.25534 9.23329 16.2372 -6.85198 0.0153062 -1.62417 0.309599 
4183 1 4.7337 12.1109 14.9933 -6.26387 -3.17336 -5.26507 0.845128 
5342 1 6.14849 12.0716 13.0435 -6.53066 0.870931 -0.865639 -3.08257 
3144 1 6.42532 12.5054 17.9986 -7.63871 1.15769 -1.67506 0.434885 
3004 1 6.84966 9.54329 16.0558 -7.58252 -0.170969 1.82986 1.31088 
3624 1 3.31682 11.7552 18.1456 -7.89499 0.388369 0.911139 -1.29194 
4063 1 1.48801 12.3858 12.5985 -8.88363 2.1943 -1.61288 0.299055 
543 2 0.467781 13.5948 14.2498 -25.4388 -0.951514 1.25565 0.110668 
1643 2 8.42528 13.3234 11.8934 -24.5803 -2.15463 1.66449 -2.7741 
3203 1 11.9115 9.58362 18.9137 -7.86892 1.34529 0.459208 1.35912 
4042 1 9.79721 12.9807 13.3629 -8.17125 1.82333 -2.54047 2.92266 
1143 3 8.50091 10.8805 14.4506 -27.4234 -1.13898 -1.04119 0.360856 
244 3 10.9531 10.3767 16.9434 -29.2764 1.64758 1.30813 0.814688 
5603 1 9.61223 7.45104 13.7801 -7.91708 -0.0561791 0.913729 -1.03154 
4524 1 7.33607 9.45369 10.2031 -7.80463 0.356607 -0.761952 -1.23112 
3783 1 10.4204 7.22763 11.1633 -8.13964 -2.16009 1.20583 -1.41051 
243 3 10.7918 10.8562 11.7752 -27.5402 2.86442 1.93965 2.94307 
4624 1 10.2077 12.5772 10.7724 -7.41867 -1.34013 1.36242 -0.585068 
5223 1 13.1002 10.3139 16.3258 -7.93458 -0.576635 1.04654 1.87689 
3542 1 9.48817 9.55399 15.8635 -8.13219 -2.13485 0.38655 -2.88396 
4043 1 11.4676 10.5723 14.1348 -7.10123 -0.672649 -1.60527 -1.52393 
5102 1 12.5679 11.6405 10.7224 -8.31256 1.53205 -0.190063 -0.16376 
4724 1 12.0522 12.458 17.8084 -7.76182 2.72258 0.583942 3.06047 
2843 1 10.4497 12.1915 16.0545 -7.36902 -3.81 1.09167 -1.56327 
1623 2 8.50008 8.28329 11.617 -24.5652 -1.09625 -0.898115 2.27146 
3604 1 9.79083 7.09958 18.9004 -7.9399 -0.535327 -1.5075 -5.21675 
5722 1 13.3327 8.28949 14.3189 -7.77811 0.581582 -0.351982 0.24396 
1644 2 8.4397 13.3783 16.8007 -24.5255 0.24932 1.6631 -0.380407 
3663 1 7.34333 12.2142 15.3148 -7.95392 2.15438 -0.354148 2.12087 
1624 3 8.32788 8.02516 16.7135 -28.0942 1.23011 0.746527 0.206773 
5624 1 11.4459 8.36777 16.6629 -7.60636 1.42134 -3.1048 -1.11441 
723 3 11.4287 8.16355 14.2177 -27.9874 -1.14039 -0.0837397 1.29153 
5301 1 10.151 9.9385 10.3086 -8.42978 -1.54165 -0.684286 -1.87286 
4602 1 8.96472 10.2228 12.6434 -8.70303 1.71599 0.99561 -0.0711844 
2743 1 12.9973 12.6379 14.6486 -7.35876 -1.47304 2.74123 1.50802 
4182 1 12.0069 8.8969 12.2691 -7.8437 0.204467 1.44717 -0.812181 
2145 1 9.41054 9.93438 18.4086 -7.62512 -1.26726 0.175718 0.275209 
2541 1 7.40214 11.8808 10.298 -7.95976 3.3192 2.69662 -0.0917252 
4744 1 9.13017 12.7345 18.6301 -8.27956 1.41232 -2.27467 3.36655 
125 2 5.69651 5.61149 22.5501 -24.1127 -0.855097 -0.655554 -1.41296 
604 2 6.03606 2.59004 19.6012 -25.1791 -3.5265 2.0569 -0.929587 
605 3 5.51071 2.54298 25.1461 -27.3581 1.28334 0.23456 -0.42975 
1025 2 2.71408 5.54932 25.321 -22.8706 -0.294242 3.05604 -1.34356 
1505 3 3.03883 2.53043 22.7247 -29.7438 -0.905459 0.202639 -2.93194 
1024 3 3.35835 5.32669 19.7383 -28.5084 -1.02411 -1.19248 -3.91359 
4004 1 5.03104 3.49139 23.06 -7.69027 -0.0611834 0.68312 1.52589 
5003 1 3.6869 5.80968 21.4899 -7.93429 1.52347 2.7801 1.38698 
2524 1 4.19545 1.15224 21.323 -7.51868 0.92061 -1.84302 1.30152 
5505 1 4.05723 1.32352 24.3191 -8.37725 1.66288 1.99105 -1.95239 
3005 1 1.73539 1.81072 21.1113 -6.62985 0.790071 -3.48659 -0.084596 
5404 1 2.38714 3.89851 23.9666 -7.30584 0.558514 2.1285 1.21618 
1506 2 2.73181 3.04249 27.6203 -22.5125 -0.837443 -0.223488 1.44787 
5644 1 6.8297 3.93983 21.0562 -7.91764 -0.181755 0.848352 2.66954 
5605 1 6.53236 0.709888 25.803 -7.56734 -1.36431 4.08163 0.598199 
3485 1 1.25802 6.57408 23.9995 -8.91206 1.82943 0.812565 -1.36146 
3905 1 3.86938 3.49371 20.061 -6.17856 1.32185 -0.244162 0.516831 
4905 1 1.97277 1.60905 26.1818 -8.20242 -1.12214 1.55076 3.61154 
2126 1 4.46493 4.47239 25.9333 -9.23923 -0.768152 -1.15771 0.453477 
3526 1 1.04977 4.52777 26.3207 -9.0676 3.38225 -0.654694 2.21253 
3606 1 6.81362 3.96735 27.023 -8.02758 -1.91601 1.77044 -1.33201 
2625 1 4.30341 6.89085 23.7721 -8.42284 -1.57018 -2.11963 1.11525 
2105 1 6.41378 6.54373 20.5046 -8.53098 -1.26406 0.230362 1.54519 
6 3 0.455993 0.650649 27.5939 -27.1519 -0.946553 -2.20706 0.669416 
2925 1 1.58837 4.21578 21.3388 -6.8211 0.100233 2.61471 0.252423 
504 3 0.649 3.05119 20.0477 -29.1863 0.316264 -2.92582 -1.5214 
2303 1 6.73996 0.790022 20.6379 -7.91147 0.0642626 2.19432 -1.22298 
126 3 5.22183 5.50672 27.6803 -26.6248 1.73803 -0.230029 0.438203 
5805 1 1.1994 1.81042 23.973 -6.55219 -1.94823 -1.14078 -2.54355 
5186 1 4.40451 1.86888 26.9747 -8.42927 1.78834 -0.608218 -0.939186 
1706 3 13.6642 2.72088 27.5321 -29.3705 3.64888 -0.739235 2.57511 
3605 1 7.44312 4.86336 23.6744 -9.19805 -1.01883 0.518896 0.420076 
2684 1 7.00073 1.58229 23.5023 -7.73934 -0.712388 1.70371 -0.628939 
3166 1 12.518 1.72712 26.248 -8.06651 -1.26279 -3.39647 -2.48098 
3106 1 9.09004 1.8447 21.0683 -8.49461 2.59114 -0.47462 -0.668007 
3105 1 12.0742 2.78412 21.512 -7.81603 -0.160622 -1.99573 3.57714 
1124 3 8.11366 5.73233 20.1139 -28.7134 2.1528 -1.65269 -2.6961 
4224 1 12.2657 6.8661 24.0292 -7.90725 6.03402 0.114541 1.28654 
2504 1 10.5314 1.88823 23.6669 -7.66023 -0.985739 0.636667 -1.7292 
225 2 11.5026 5.39273 22.524 -24.9654 -1.70593 2.13145 -0.666039 
705 2 10.7537 2.84455 25.484 -23.4757 2.49097 2.97004 0.0465635 
1125 3 8.29165 5.36805 25.3103 -26.5877 2.74438 1.05211 1.64327 
1605 2 8.19255 3.12775 22.6271 -23.7295 1.55272 -1.56393 -0.489308 
704 2 10.8145 3.18032 19.9486 -24.0196 -0.105539 -2.05745 0.0213457 
5626 1 8.40967 3.03427 25.4793 -8.41674 1.05866 1.91646 -1.58809 
4203 1 9.46248 4.6404 21.3999 -8.1724 1.14804 -2.02584 0.916603 
5363 1 12.6201 4.12412 27.0637 -7.70647 -3.64624 5.18209 -0.939089 
5625 1 10.4013 4.89002 24.3428 -7.32684 -2.05209 -4.29502 1.75921 
4184 1 12.0325 4.97655 20.1561 -6.51547 -3.31079 2.44156 -1.29575 
4205 1 12.8917 4.07317 24.4109 -8.0495 0.635299 0.0559182 -2.46181 
2286 1 6.97779 6.6592 26.2721 -8.76386 0.126633 -1.03303 0.994047 
5085 1 9.63349 1.27804 26.514 -9.11583 0.688283 -0.0952835 0.0798032 
2725 1 9.68667 5.73636 26.9603 -7.79281 -1.05492 -0.460835 -2.0721 
1606 3 8.21079 2.78059 27.5789 -27.5221 0.859448 -1.66832 2.26189 
3925 1 1.61571 7.36148 26.8365 -7.7602 1.33086 -1.21305 -0.95261 
4225 1 6.86637 7.55241 22.9036 -7.3481 -0.11418 -2.21634 0.767322 
5421 1 1.78042 12.4376 20.5013 -7.90442 0.446892 -0.882383 1.87748 
1545 3 2.95152 13.5855 22.6969 -27.2645 -0.929371 0.959508 -1.60865 
4045 1 1.53238 12.2337 23.6996 -8.84718 0.617663 1.27221 -1.19659 
5506 1 4.55923 9.5314 26.406 -7.53189 -2.65824 3.75605 1.21544 
3644 1 1.98503 9.22129 24.0385 -7.86425 0.166681 -1.7678 -0.110815 
4024 1 1.23922 7.01686 21.0289 -8.36061 0.720659 0.67832 0.571268 
2044 1 5.12986 11.5916 20.5989 -8.43368 -0.592094 -0.0905957 -1.13546 
4005 1 4.82335 9.40745 23.3684 -7.38327 -2.20383 0.348655 1.40926 
3945 1 1.83524 10.0277 26.4397 -7.60305 0.0953719 0.375505 -0.285979 
5005 1 6.08997 11.6846 25.7268 -7.40565 1.67156 -0.284231 -1.49568 
145 3 5.6669 10.9518 22.4698 -28.139 3.91849 -0.558541 -0.825423 
625 2 5.48007 8.15468 25.1977 -24.5905 4.35069 0.465408 -4.35436 
1045 2 3.23558 10.8009 24.8354 -24.2965 -0.460708 0.153695 1.15483 
1525 2 2.70061 7.80504 22.4139 -24.1511 1.31516 2.03557 0.0293848 
5025 1 3.98451 8.87278 20.6659 -8.51231 2.81113 -3.68454 2.10376 
4625 1 4.09155 11.8472 23.0342 -8.28963 -4.34615 0.683198 1.50237 
624 3 5.78096 8.18115 19.6972 -27.2005 0.123938 0.91594 -1.44996 
1526 3 2.83535 8.87586 27.8381 -29.1505 0.588952 -2.71077 -0.297922 
3565 1 1.5928 9.82105 21.5131 -7.79773 -0.831354 0.210886 -1.39092 
5565 1 0.499897 12.4288 26.1483 -7.50429 -0.74334 -1.34776 2.24387 
2546 1 3.77021 12.4496 26.2673 -8.2828 -1.56544 0.959166 -0.313746 
525 3 0.368687 8.2229 25.1647 -28.4 -0.399343 -0.264633 1.13269 
2045 1 6.15921 12.9734 23.0773 -7.65857 1.70779 -0.354299 1.74714 
644 3 6.05871 13.5031 20.0117 -28.9875 0.303723 0.578119 0.0270111 
4626 1 4.27355 7.09502 26.4539 -8.23987 -2.83455 -4.28754 3.66445 
1044 2 3.23567 10.6547 19.996 -23.7825 -1.32213 4.89812 1.64602 
524 3 0.411915 8.5033 19.6521 -29.2489 -1.88958 1.72009 1.49978 
645 3 5.43497 13.6186 25.0398 -28.9586 1.66459 1.2534 1.46138 
744 2 10.9943 13.6559 19.6464 -24.1815 -0.15672 1.10518 -0.91461 
4685 1 9.95213 7.16383 23.7894 -6.12068 -3.99674 1.8412 0.440307 
1646 3 8.58625 13.6324 27.9162 -26.6207 -0.590756 0.924928 -1.26318 
4105 1 9.83249 8.40701 26.8816 -7.79708 -1.69931 0.838501 -0.0536764 
3523 1 7.6624 12.1758 20.9246 -7.53088 -1.05007 2.05236 0.352112 
5544 1 7.48453 9.44523 20.3393 -8.13109 -1.81049 -1.89612 -0.375662 
2125 1 7.41597 10.1986 23.0191 -6.5328 -0.123787 1.28595 -0.0654614 
1244 2 13.4341 11.1796 19.6484 -24.4992 -1.41227 -3.11671 -0.0778497 
2666 1 8.23323 10.9093 27.6143 -8.39723 1.66031 2.13559 -1.33574 
724 3 10.9348 7.94887 19.9271 -27.3569 1.72798 3.2895 2.77799 
2523 1 9.34148 7.12235 21.1134 -7.207 -1.13318 1.00576 2.18161 
5205 1 12.2899 7.53705 21.475 -7.94445 -0.29703 -0.190622 -1.75239 
5524 1 11.6123 11.9487 20.8816 -8.19656 -0.354375 -0.116982 -0.406915 
3704 1 7.33947 9.15306 25.535 -6.79817 1.82811 -0.0482387 1.04987 
2624 1 9.46216 11.9923 22.86 -7.66709 0.0210289 4.642 2.32745 
4727 1 11.817 9.48436 26.2584 -7.27904 2.61687 2.44107 -1.51398 
5325 1 10.1734 9.63998 21.6269 -7.60347 -2.36382 -3.20166 -6.58555 
5825 1 12.1182 11.9358 23.993 -8.45842 -0.128373 4.32908 0.614682 
4605 1 9.75831 9.78075 24.101 -7.05144 -0.275395 -0.633174 4.24949 
4125 1 10.7913 11.8215 26.3942 -8.24954 -2.65758 1.92461 -2.51884 
1144 3 8.5629 11.0051 19.9138 -27.1125 1.71032 -1.58943 -0.327169 
1645 3 8.09224 13.6237 23.0244 -27.7517 -0.361409 0.796162 -2.65073 
245 3 10.9571 10.6752 22.7716 -28.1706 0.769574 3.08682 -0.157304 
725 3 11.1114 7.89125 25.5238 -28.4396 -1.73695 -1.40868 -4.34441 
1145 2 8.45255 11.0926 25.3771 -24.0148 -1.78386 -1.93091 -1.51699 
1625 3 8.59171 8.39494 22.5893 -29.5729 0.968998 1.71976 1.37445 
3125 1 12.3381 9.69208 23.4636 -7.62518 4.56502 -4.6798 2.18632 
745 3 11.1399 13.6225 24.7562 -25.9893 -0.427978 -0.0647421 3.22962 
246 3 10.6417 10.5601 27.8112 -28.239 1.29032 -1.53842 2.04294 
3724 1 12.5003 7.0638 26.7088 -9.27281 1.45726 -3.54629 1.15613 
1245 3 13.2238 10.71 25.2244 -28.0359 0.544116 -0.407796 -1.57706 
3544 1 8.43261 13.3023 25.2985 -8.91745 2.37851 -1.33328 -0.61558 
1626 3 8.3319 8.07259 27.8654 -27.835 -2.41748 0.440072 0.932974 
2505 1 5.1708 6.25714 29.5987 -7.55018 -0.0576045 -0.037137 -0.786079 
4025 1 0.645459 2.54114 28.2791 -8.60633 2.40199 1.76705 -1.31364 
2026 1 0.896572 1.31626 31.598 -8.05275 1.42813 -2.13491 0.0240636 
3086 1 5.47982 0.964683 29.5497 -7.16152 -1.5906 1.22475 1.40364 
3505 1 2.82939 1.03501 29.339 -7.55987 -1.20233 2.23607 -3.50491 
3487 1 1.94092 3.81279 31.6476 -7.00888 -0.0950986 0.209808 -0.5579 
4127 1 2.02026 2.09669 34.5032 -8.04728 0.939512 -0.830543 1.32512 
5086 1 4.85294 1.65091 34.5459 -7.74436 -0.435636 0.600297 1.45283 
5106 1 4.21385 3.91236 28.791 -8.64089 1.50892 0.415417 0.979158 
4507 1 1.7998 5.05577 29.3634 -7.1967 -0.941631 -1.6906 -3.51347 
127 3 5.56264 5.93705 33.2792 -27.4037 0.536552 -4.61049 -0.470714 
606 3 5.42182 2.63399 30.4179 -27.7212 0.983395 3.15935 0.7069 
607 2 5.73875 3.31423 35.9671 -24.6419 0.504903 -0.71793 0.344812 
1026 3 3.14167 5.77331 30.749 -29.0829 -1.3564 -1.06388 -1.59213 
1027 2 3.04429 5.74156 35.7261 -23.7961 -1.59659 -0.104137 0.286169 
1507 3 2.88725 2.96483 33.0419 -27.5368 1.20319 1.80568 0.324524 
5507 1 1.4988 4.87219 34.4113 -7.73175 0.374352 -0.903914 -0.184262 
5608 1 4.34584 4.35275 34.3689 -8.41878 -0.795537 0.338665 0.546573 
4006 1 6.93616 1.61965 31.776 -8.39723 0.595844 1.2184 -0.930369 
2106 1 4.51924 4.3635 31.7015 -7.44663 -1.0432 -0.0937064 -0.345681 
507 2 0.449518 3.01094 36.1281 -23.9334 -0.166092 -1.36839 -4.45238 
4787 1 4.19415 1.60668 31.9931 -9.17928 -0.593763 -0.0409672 -0.233107 
1007 3 3.29228 0.856136 35.831 -27.57 0.628525 -2.20139 -0.650244 
3108 1 0.364525 6.81766 31.1439 -6.34998 1.09206 0.505148 2.28961 
5627 1 4.77283 6.94755 35.0816 -8.76812 -3.6898 0.460277 -1.53837 
4186 1 7.75306 0.809527 28.2082 -6.88614 1.63958 2.7821 -1.3218 
4705 1 12.2887 1.85287 28.7811 -7.10714 0.010565 0.30102 2.34917 
2605 1 11.7347 4.60487 29.9155 -6.80097 2.6954 -1.85403 2.08313 
1707 2 13.2569 2.95811 33.7285 -24.9167 1.96552 1.25251 -2.34023 
5746 1 12.6938 6.76957 29.8408 -7.14155 -0.687255 2.82501 -0.679369 
226 3 11.5421 5.52962 28.1942 -28.3538 -1.21288 -0.5098 -0.0879536 
5527 1 7.06468 4.72326 31.9381 -7.03056 1.09815 0.408285 -0.541738 
5526 1 7.49833 3.46361 29.3359 -7.52465 -1.02371 0.794558 2.18908 
5606 1 11.9108 1.62168 34.6443 -8.10897 -0.677869 -0.679856 0.420604 
3706 1 9.81633 1.305 29.8244 -7.6476 -0.759271 -1.28225 -1.99602 
2269 1 9.56064 6.4066 34.5586 -8.16243 -1.11564 2.87955 0.580875 
5107 1 7.14611 4.37744 34.5084 -8.34632 -1.08922 0.945278 2.02273 
3827 1 7.62676 1.41131 34.4961 -6.78735 0.977047 0.884239 -0.174302 
5006 1 9.62245 1.50471 32.3387 -7.3946 -0.49338 0.957578 1.42323 
3806 1 10.0298 3.67628 28.5327 -7.27989 -1.98252 -0.852014 -2.3463 
3187 1 12.3641 1.80826 31.9459 -7.22099 -0.0104791 4.1827 -0.598012 
1127 2 8.17638 5.79336 36.1549 -24.0832 1.27339 -3.01085 2.59246 
4606 1 9.75075 4.09678 31.4336 -8.24463 -0.793346 -0.742739 2.7033 
707 3 10.6877 2.90752 36.2202 -29.1568 4.66548 -0.414335 -0.691073 
227 3 10.7602 5.53873 33.1968 -29.1492 0.876196 0.294445 0.288865 
706 3 10.8992 2.77824 30.5046 -29.096 1.53617 -1.11615 -1.04365 
1126 2 8.68904 5.41606 30.0706 -24.2365 -1.39023 -4.37445 1.73878 
1607 2 8.21843 3.18279 33.0272 -25.0745 0.540643 -1.65647 -0.113666 
5128 1 12.509 4.77583 32.6333 -7.71162 0.564796 -3.69736 -0.590655 
4627 1 9.50395 6.63137 31.8403 -7.9639 -0.992419 0.557415 0.200039 
5785 1 10.0153 3.95451 34.3682 -7.31881 0.0316171 -2.62167 -2.71623 
4246 1 12.4758 3.99839 35.765 -6.36596 -0.248822 -1.56965 -2.56162 
2626 1 12.3085 6.47643 35.0363 -7.12679 1.16753 0.865454 -0.528668 
1226 3 13.6603 5.36737 30.8883 -29.2929 -0.110492 -0.877918 -0.741655 
4126 1 10.2062 6.62826 29.2786 -7.9169 -0.392852 1.92726 -1.12285 
5707 1 10.2069 0.924851 36.7882 -7.74901 -3.06767 3.31853 0.672949 
3107 1 9.43827 4.08367 36.8021 -7.38703 -2.10347 0.677727 3.25225 
646 3 5.56733 13.3825 30.508 -26.8113 0.0173917 1.60382 0.982063 
47 2 0.385034 10.9881 33.0971 -24.0809 1.50728 0.808788 0.741003 
3527 1 1.91293 7.43653 34.3324 -8.65162 0.631526 -0.871371 1.26327 
2547 1 6.45148 11.7493 36.3946 -6.73965 -0.755791 3.34412 -1.48779 
2127 1 3.60376 7.04552 32.2845 -8.57361 1.45402 -2.74629 0.313181 
527 3 0.796243 8.91098 35.4601 -28.5101 -2.58174 -1.12036 4.21218 
146 2 5.72871 11.2563 27.9276 -24.8366 0.309059 -2.87432 -3.05341 
5226 1 6.27836 7.46874 32.4644 -8.68675 -0.385927 1.42242 0.468029 
3626 1 1.49771 9.57324 29.0008 -6.82522 -2.84134 0.305725 0.528943 
4067 1 2.09518 12.3713 34.2733 -7.82655 -3.85969 2.78613 -2.57534 
3926 1 1.45448 12.3311 31.4646 -8.83081 0.576212 0.0642427 1.41358 
5926 1 2.96381 7.3997 29.6289 -6.15907 0.253406 0.878406 -1.09624 
2027 1 4.82782 9.68118 34.6612 -9.70531 -1.33598 1.63066 -3.0249 
2526 1 2.18687 9.94667 34.3644 -8.7167 1.01066 -0.698754 -1.07817 
3046 1 3.98427 9.87945 29.0931 -7.24223 2.53647 0.169439 0.490363 
5846 1 1.34566 12.0644 28.7852 -7.60061 0.975915 2.03302 0.82366 
4026 1 4.27701 9.59796 31.6891 -9.17257 1.66708 0.495797 1.68178 
147 3 5.63447 10.7064 32.8023 -25.8 1.37234 2.28914 0.216699 
626 2 5.73155 8.30674 30.3149 -24.6181 -2.09904 -1.33255 -0.0614189 
627 2 6.09454 8.52343 35.8361 -21.9072 -4.02293 5.22909 7.02084 