LAMMPS (22 Dec 2022)
  using 1 OpenMP thread(s) per MPI task
Loaded 1 plugins from C:\Program Files\LAMMPS 64-bit 23Jun2022\plugins
Loaded 0 plugins from C:\Program Files\LAMMPS 64-bit 23Jun2022-MPI\plugins
Loaded 1 plugins from C:\Program Files\LAMMPS 64-bit 22Dec2022-MSMPI\plugins
Loaded 1 plugins from C:\Program Files\LAMMPS 64-bit 28Mar2023-MPI\plugins
#------------------------------------------------------------------------------------------
# LAMMPS 64-bit 22Dec2022-MSMPI
#------------------------------------------------------------------------------------------
clear
  using 1 OpenMP thread(s) per MPI task
Loaded 1 plugins from C:\Program Files\LAMMPS 64-bit 23Jun2022\plugins
Loaded 0 plugins from C:\Program Files\LAMMPS 64-bit 23Jun2022-MPI\plugins
Loaded 1 plugins from C:\Program Files\LAMMPS 64-bit 22Dec2022-MSMPI\plugins
Loaded 1 plugins from C:\Program Files\LAMMPS 64-bit 28Mar2023-MPI\plugins
#echo both
# ---------- Initializing Simulation ---------------------------------
units metal
dimension 3
boundary p p p
atom_style atomic
atom_modify map array

#read_data ./../../CoAl.data
read_data ./../../Al12W.data
Reading data file ...
  orthogonal box = (0 0 0) to (7.588544 7.588544 7.588544)
  2 by 2 by 2 MPI processor grid
  reading atoms ...
  26 atoms
  read_data CPU = 0.001 seconds

replicate 1 1 1
Replication is creating a 1x1x1 = 1 times larger system...
  orthogonal box = (0 0 0) to (7.588544 7.588544 7.588544)
  2 by 2 by 2 MPI processor grid
  26 atoms
  replicate CPU = 0.000 seconds

# ---------- Defining the Interatomic Potential ---------------------
pair_style meam
#pair_coeff * * ./../../library.meam Co Al W ./../../CoAlW.meam Co Al
pair_coeff * * ./../../library.meam Co Al W ./../../CoAlW.meam Al W

# ---------- Running Minimization -------------------------------------
fix 1 all box/relax iso 0.0 vmax 0.001

thermo 10
thermo_style custom step pe etotal lx ly lz vol press pxx pyy pzz

min_style cg
minimize 1e-25 1e-25 5000 10000
Neighbor list info ...
  update: every = 1 steps, delay = 0 steps, check = yes
  max neighbors/atom: 2000, page size: 100000
  master list distance cutoff = 6.5
  ghost atom cutoff = 6.5
  binsize = 3.25, bins = 3 3 3
  2 neighbor lists, perpetual/occasional/extra = 2 0 0
  (1) pair meam, perpetual
      attributes: full, newton on
      pair build: full/bin/atomonly
      stencil: full/bin/3d
      bin: standard
  (2) pair meam, perpetual, half/full from (1)
      attributes: half, newton on
      pair build: halffull/newton
      stencil: none
      bin: none
Per MPI rank memory allocation (min/avg/max) = 9.64 | 9.64 | 9.641 Mbytes
   Step         PotEng         TotEng           Lx             Ly             Lz           Volume         Press           Pxx            Pyy            Pzz      
         0  -105.17365     -105.17365      7.588544       7.588544       7.588544       436.9939      -35867.299     -35867.299     -35867.299     -35867.299    
        10  -105.3576      -105.3576       7.5126586      7.5126586      7.5126586      424.01474     -7964.5209     -7964.5209     -7964.5209     -7964.5209    
        20  -105.44115     -105.44115      7.4974815      7.4974815      7.4974815      421.45014      154.19009      154.19009      154.19009      154.19009    
        30  -105.55343     -105.55343      7.5126586      7.5126586      7.5126586      424.01474      430.07192      430.07192      430.07192      430.07192    
        40  -105.56373     -105.56373      7.5221702      7.5221702      7.5221702      425.62729      0.34990837     0.34990837     0.34990837     0.34990837   
        50  -105.56373     -105.56373      7.5221636      7.5221636      7.5221636      425.62617     -0.00020592849 -0.00020592851 -0.00020592845 -0.00020592852
        57  -105.56373     -105.56373      7.5221636      7.5221636      7.5221636      425.62617      7.179015e-09   7.1928063e-09  7.2316728e-09  7.1125658e-09
Loop time of 0.0153139 on 8 procs for 57 steps with 26 atoms

38.3% CPU use with 8 MPI tasks x 1 OpenMP threads

Minimization stats:
  Stopping criterion = energy tolerance
  Energy initial, next-to-last, final = 
     -105.173654423749  -105.563731176702  -105.563731176702
  Force two-norm initial, final = 29.450326 1.3467945e-09
  Force max component initial, final = 29.348434 2.3284651e-10
  Final line search alpha, max atom move = 1 2.3284651e-10
  Iterations, force evaluations = 57 84

MPI task timing breakdown:
Section |  min time  |  avg time  |  max time  |%varavg| %total
---------------------------------------------------------------
Pair    | 0.008944   | 0.0093485  | 0.00983    |   0.3 | 61.05
Neigh   | 0          | 0          | 0          |   0.0 |  0.00
Comm    | 0.001725   | 0.0021866  | 0.00256    |   0.6 | 14.28
Output  | 9e-05      | 9.5375e-05 | 0.000106   |   0.0 |  0.62
Modify  | 0          | 0          | 0          |   0.0 |  0.00
Other   |            | 0.003683   |            |       | 24.05

Nlocal:           3.25 ave           4 max           3 min
Histogram: 6 0 0 0 0 0 0 0 0 2
Nghost:         312.75 ave         313 max         312 min
Histogram: 2 0 0 0 0 0 0 0 0 6
Neighs:           91.5 ave         113 max          82 min
Histogram: 4 2 0 0 0 0 0 0 0 2
FullNghs:          183 ave         219 max         171 min
Histogram: 6 0 0 0 0 0 0 0 0 2

Total # of neighbors = 1464
Ave neighs/atom = 56.307692
Neighbor list builds = 0
Dangerous builds = 0

variable  natoms equal "count(all)"
variable      x0 equal "lx"
variable      y0 equal "ly"
variable      z0 equal "lz"
variable      v0 equal "vol"
variable   etot0 equal "etotal"
variable   ecoh0 equal "-pe/v_natoms"

unfix 1
write_data ./../step2_elastic/data.in
System init for write_data ...

# ---------- For Equation of States -------------------------------------
change_box all x scale 0.94 y scale 0.94 z scale 0.94 remap
Changing box ...
  orthogonal box = (0.2588551 0.03319019 0.03319019) to (7.3296889 7.5553538 7.5553538)
  orthogonal box = (0.2588551 0.2588551 0.03319019) to (7.3296889 7.3296889 7.5553538)
  orthogonal box = (0.2588551 0.2588551 0.2588551) to (7.3296889 7.3296889 7.3296889)
run 1
WARNING: No fixes with time integration, atoms won't move (src/verlet.cpp:60)
Per MPI rank memory allocation (min/avg/max) = 8.515 | 8.516 | 8.518 Mbytes
   Step         PotEng         TotEng           Lx             Ly             Lz           Volume         Press           Pxx            Pyy            Pzz      
        57  -100.06823     -100.06823      7.0708338      7.0708338      7.0708338      353.51829      289710.54      289710.54      289710.54      289710.54    
        58  -100.06823     -100.06823      7.0708338      7.0708338      7.0708338      353.51829      289710.54      289710.54      289710.54      289710.54    
Loop time of 0.00035825 on 8 procs for 1 steps with 26 atoms

Performance: 241.172 ns/day, 0.100 hours/ns, 2791.347 timesteps/s, 72.575 katom-step/s
0.0% CPU use with 8 MPI tasks x 1 OpenMP threads

MPI task timing breakdown:
Section |  min time  |  avg time  |  max time  |%varavg| %total
---------------------------------------------------------------
Pair    | 0.000221   | 0.00023725 | 0.000274   |   0.0 | 66.22
Neigh   | 0          | 0          | 0          |   0.0 |  0.00
Comm    | 3.6e-05    | 7.1375e-05 | 0.000103   |   0.0 | 19.92
Output  | 2.2e-05    | 3.9125e-05 | 5.9e-05    |   0.0 | 10.92
Modify  | 0          | 5e-07      | 1e-06      |   0.0 |  0.14
Other   |            | 1e-05      |            |       |  2.79

Nlocal:           3.25 ave           5 max           2 min
Histogram: 4 0 0 0 0 0 2 0 0 2
Nghost:         312.75 ave         314 max         311 min
Histogram: 2 0 0 2 0 0 0 0 0 4
Neighs:            139 ave         216 max          83 min
Histogram: 4 0 0 0 0 0 2 0 0 2
FullNghs:          278 ave         432 max         170 min
Histogram: 4 0 0 0 0 0 2 0 0 2

Total # of neighbors = 2224
Ave neighs/atom = 85.538462
Neighbor list builds = 0
Dangerous builds = 0
print "# Lattice constant (Angstroms), Volume (Angstrom), Total energy (eV), Cohesive energy (eV/atom)" file lattice_cohesive_energy.txt screen no


# Loop over lattice constants
variable i loop 49 # Number of steps
label loop

change_box all x scale 1.0025 y scale 1.0025 z scale 1.0025 remap
Changing box ...
  orthogonal box = (0.25001656 0.2588551 0.2588551) to (7.3385274 7.3296889 7.3296889)
  orthogonal box = (0.25001656 0.25001656 0.2588551) to (7.3385274 7.3385274 7.3296889)
  orthogonal box = (0.25001656 0.25001656 0.25001656) to (7.3385274 7.3385274 7.3385274)

run 1
WARNING: No fixes with time integration, atoms won't move (src/verlet.cpp:60)
Per MPI rank memory allocation (min/avg/max) = 8.515 | 8.516 | 8.518 Mbytes
   Step         PotEng         TotEng           Lx             Ly             Lz           Volume         Press           Pxx            Pyy            Pzz      
        58  -100.53524     -100.53524      7.0885109      7.0885109      7.0885109      356.17631      273385.7       273385.7       273385.7       273385.7     
        59  -100.53524     -100.53524      7.0885109      7.0885109      7.0885109      356.17631      273385.7       273385.7       273385.7       273385.7     
Loop time of 0.0002695 on 8 procs for 1 steps with 26 atoms

Performance: 320.594 ns/day, 0.075 hours/ns, 3710.575 timesteps/s, 96.475 katom-step/s
0.0% CPU use with 8 MPI tasks x 1 OpenMP threads

MPI task timing breakdown:
Section |  min time  |  avg time  |  max time  |%varavg| %total
---------------------------------------------------------------
Pair    | 0.000169   | 0.00018675 | 0.000225   |   0.0 | 69.29
Neigh   | 0          | 0          | 0          |   0.0 |  0.00
Comm    | 1.9e-05    | 5.675e-05  | 7.4e-05    |   0.0 | 21.06
Output  | 1.5e-05    | 1.6875e-05 | 1.9e-05    |   0.0 |  6.26
Modify  | 0          | 5e-07      | 2e-06      |   0.0 |  0.19
Other   |            | 8.625e-06  |            |       |  3.20

Nlocal:           3.25 ave           5 max           2 min
Histogram: 4 0 0 0 0 0 2 0 0 2
Nghost:         312.75 ave         314 max         311 min
Histogram: 2 0 0 2 0 0 0 0 0 4
Neighs:            139 ave         216 max          83 min
Histogram: 4 0 0 0 0 0 2 0 0 2
FullNghs:          278 ave         432 max         170 min
Histogram: 4 0 0 0 0 0 2 0 0 2

Total # of neighbors = 2224
Ave neighs/atom = 85.538462
Neighbor list builds = 0
Dangerous builds = 0
variable  natoms equal "count(all)"
variable xlength equal "lx"
variable  volume equal "vol"
variable  etotal equal "etotal"
variable    ecoh equal "-pe/v_natoms"
print "${xlength}, ${volume}, ${etotal}, ${ecoh}" append lattice_cohesive_energy.txt screen no

next i
jump SELF loop

change_box all x scale 1.0025 y scale 1.0025 z scale 1.0025 remap
Changing box ...
  orthogonal box = (0.24115592 0.25001656 0.25001656) to (7.3473881 7.3385274 7.3385274)
  orthogonal box = (0.24115592 0.24115592 0.25001656) to (7.3473881 7.3473881 7.3385274)
  orthogonal box = (0.24115592 0.24115592 0.24115592) to (7.3473881 7.3473881 7.3473881)

run 1
WARNING: No fixes with time integration, atoms won't move (src/verlet.cpp:60)
Per MPI rank memory allocation (min/avg/max) = 8.515 | 8.516 | 8.518 Mbytes
   Step         PotEng         TotEng           Lx             Ly             Lz           Volume         Press           Pxx            Pyy            Pzz      
        59  -100.97886     -100.97886      7.1062322      7.1062322      7.1062322      358.85432      257518.16      257518.16      257518.16      257518.16    
        60  -100.97886     -100.97886      7.1062322      7.1062322      7.1062322      358.85432      257518.16      257518.16      257518.16      257518.16    
Loop time of 0.000273625 on 8 procs for 1 steps with 26 atoms

Performance: 315.761 ns/day, 0.076 hours/ns, 3654.637 timesteps/s, 95.021 katom-step/s
0.0% CPU use with 8 MPI tasks x 1 OpenMP threads

MPI task timing breakdown:
Section |  min time  |  avg time  |  max time  |%varavg| %total
---------------------------------------------------------------
Pair    | 0.000169   | 0.00019413 | 0.000229   |   0.0 | 70.95
Neigh   | 0          | 0          | 0          |   0.0 |  0.00
Comm    | 2e-05      | 5.3e-05    | 7.9e-05    |   0.0 | 19.37
Output  | 1.5e-05    | 1.7125e-05 | 1.8e-05    |   0.0 |  6.26
Modify  | 0          | 5e-07      | 2e-06      |   0.0 |  0.18
Other   |            | 8.875e-06  |            |       |  3.24

Nlocal:           3.25 ave           5 max           2 min
Histogram: 4 0 0 0 0 0 2 0 0 2
Nghost:         312.75 ave         314 max         311 min
Histogram: 2 0 0 2 0 0 0 0 0 4
Neighs:            139 ave         216 max          83 min
Histogram: 4 0 0 0 0 0 2 0 0 2
FullNghs:          278 ave         432 max         170 min
Histogram: 4 0 0 0 0 0 2 0 0 2

Total # of neighbors = 2224
Ave neighs/atom = 85.538462
Neighbor list builds = 0
Dangerous builds = 0
variable  natoms equal "count(all)"
variable xlength equal "lx"
variable  volume equal "vol"
variable  etotal equal "etotal"
variable    ecoh equal "-pe/v_natoms"
print "${xlength}, ${volume}, ${etotal}, ${ecoh}" append lattice_cohesive_energy.txt screen no

next i
jump SELF loop

change_box all x scale 1.0025 y scale 1.0025 z scale 1.0025 remap
Changing box ...
  orthogonal box = (0.23227313 0.24115592 0.24115592) to (7.3562709 7.3473881 7.3473881)
  orthogonal box = (0.23227313 0.23227313 0.24115592) to (7.3562709 7.3562709 7.3473881)
  orthogonal box = (0.23227313 0.23227313 0.23227313) to (7.3562709 7.3562709 7.3562709)

run 1
WARNING: No fixes with time integration, atoms won't move (src/verlet.cpp:60)
Per MPI rank memory allocation (min/avg/max) = 8.515 | 8.516 | 8.518 Mbytes
   Step         PotEng         TotEng           Lx             Ly             Lz           Volume         Press           Pxx            Pyy            Pzz      
        60  -101.39947     -101.39947      7.1239977      7.1239977      7.1239977      361.55246      242098.17      242098.17      242098.17      242098.17    
        61  -101.39947     -101.39947      7.1239977      7.1239977      7.1239977      361.55246      242098.17      242098.17      242098.17      242098.17    
Loop time of 0.000277 on 8 procs for 1 steps with 26 atoms

Performance: 311.913 ns/day, 0.077 hours/ns, 3610.108 timesteps/s, 93.863 katom-step/s
0.0% CPU use with 8 MPI tasks x 1 OpenMP threads

MPI task timing breakdown:
Section |  min time  |  avg time  |  max time  |%varavg| %total
---------------------------------------------------------------
Pair    | 0.000172   | 0.000195   | 0.000228   |   0.0 | 70.40
Neigh   | 0          | 0          | 0          |   0.0 |  0.00
Comm    | 1.8e-05    | 5.175e-05  | 7.5e-05    |   0.0 | 18.68
Output  | 1.5e-05    | 1.75e-05   | 2.5e-05    |   0.0 |  6.32
Modify  | 0          | 0          | 0          |   0.0 |  0.00
Other   |            | 1.275e-05  |            |       |  4.60

Nlocal:           3.25 ave           5 max           2 min
Histogram: 4 0 0 0 0 0 2 0 0 2
Nghost:         312.75 ave         314 max         311 min
Histogram: 2 0 0 2 0 0 0 0 0 4
Neighs:            139 ave         216 max          83 min
Histogram: 4 0 0 0 0 0 2 0 0 2
FullNghs:          278 ave         432 max         170 min
Histogram: 4 0 0 0 0 0 2 0 0 2

Total # of neighbors = 2224
Ave neighs/atom = 85.538462
Neighbor list builds = 0
Dangerous builds = 0
variable  natoms equal "count(all)"
variable xlength equal "lx"
variable  volume equal "vol"
variable  etotal equal "etotal"
variable    ecoh equal "-pe/v_natoms"
print "${xlength}, ${volume}, ${etotal}, ${ecoh}" append lattice_cohesive_energy.txt screen no

next i
jump SELF loop

change_box all x scale 1.0025 y scale 1.0025 z scale 1.0025 remap
Changing box ...
  orthogonal box = (0.22336813 0.23227313 0.23227313) to (7.3651759 7.3562709 7.3562709)
  orthogonal box = (0.22336813 0.22336813 0.23227313) to (7.3651759 7.3651759 7.3562709)
  orthogonal box = (0.22336813 0.22336813 0.22336813) to (7.3651759 7.3651759 7.3651759)

run 1
WARNING: No fixes with time integration, atoms won't move (src/verlet.cpp:60)
Per MPI rank memory allocation (min/avg/max) = 8.515 | 8.516 | 8.518 Mbytes
   Step         PotEng         TotEng           Lx             Ly             Lz           Volume         Press           Pxx            Pyy            Pzz      
        61  -101.79745     -101.79745      7.1418077      7.1418077      7.1418077      364.27089      227116.1       227116.1       227116.1       227116.1     
        62  -101.79745     -101.79745      7.1418077      7.1418077      7.1418077      364.27089      227116.1       227116.1       227116.1       227116.1     
Loop time of 0.000273125 on 8 procs for 1 steps with 26 atoms

Performance: 316.339 ns/day, 0.076 hours/ns, 3661.327 timesteps/s, 95.195 katom-step/s
0.0% CPU use with 8 MPI tasks x 1 OpenMP threads

MPI task timing breakdown:
Section |  min time  |  avg time  |  max time  |%varavg| %total
---------------------------------------------------------------
Pair    | 0.000168   | 0.0001945  | 0.00023    |   0.0 | 71.21
Neigh   | 0          | 0          | 0          |   0.0 |  0.00
Comm    | 2e-05      | 5.425e-05  | 8.1e-05    |   0.0 | 19.86
Output  | 1.4e-05    | 1.65e-05   | 1.8e-05    |   0.0 |  6.04
Modify  | 0          | 2.5e-07    | 1e-06      |   0.0 |  0.09
Other   |            | 7.625e-06  |            |       |  2.79

Nlocal:           3.25 ave           5 max           2 min
Histogram: 4 0 0 0 0 0 2 0 0 2
Nghost:         312.75 ave         314 max         311 min
Histogram: 2 0 0 2 0 0 0 0 0 4
Neighs:            139 ave         216 max          83 min
Histogram: 4 0 0 0 0 0 2 0 0 2
FullNghs:          278 ave         432 max         170 min
Histogram: 4 0 0 0 0 0 2 0 0 2

Total # of neighbors = 2224
Ave neighs/atom = 85.538462
Neighbor list builds = 0
Dangerous builds = 0
variable  natoms equal "count(all)"
variable xlength equal "lx"
variable  volume equal "vol"
variable  etotal equal "etotal"
variable    ecoh equal "-pe/v_natoms"
print "${xlength}, ${volume}, ${etotal}, ${ecoh}" append lattice_cohesive_energy.txt screen no

next i
jump SELF loop

change_box all x scale 1.0025 y scale 1.0025 z scale 1.0025 remap
Changing box ...
  orthogonal box = (0.21444087 0.22336813 0.22336813) to (7.3741031 7.3651759 7.3651759)
  orthogonal box = (0.21444087 0.21444087 0.22336813) to (7.3741031 7.3741031 7.3651759)
  orthogonal box = (0.21444087 0.21444087 0.21444087) to (7.3741031 7.3741031 7.3741031)

run 1
WARNING: No fixes with time integration, atoms won't move (src/verlet.cpp:60)
Per MPI rank memory allocation (min/avg/max) = 8.515 | 8.517 | 8.518 Mbytes
   Step         PotEng         TotEng           Lx             Ly             Lz           Volume         Press           Pxx            Pyy            Pzz      
        62  -102.17319     -102.17319      7.1596623      7.1596623      7.1596623      367.00975      212562.52      212562.52      212562.52      212562.52    
        63  -102.17319     -102.17319      7.1596623      7.1596623      7.1596623      367.00975      212562.52      212562.52      212562.52      212562.52    
Loop time of 0.000264375 on 8 procs for 1 steps with 26 atoms

Performance: 326.809 ns/day, 0.073 hours/ns, 3782.506 timesteps/s, 98.345 katom-step/s
0.0% CPU use with 8 MPI tasks x 1 OpenMP threads

MPI task timing breakdown:
Section |  min time  |  avg time  |  max time  |%varavg| %total
---------------------------------------------------------------
Pair    | 0.00016    | 0.00018688 | 0.000222   |   0.0 | 70.69
Neigh   | 0          | 0          | 0          |   0.0 |  0.00
Comm    | 1.8e-05    | 5.3e-05    | 8.1e-05    |   0.0 | 20.05
Output  | 1.5e-05    | 1.65e-05   | 1.8e-05    |   0.0 |  6.24
Modify  | 0          | 1.25e-07   | 1e-06      |   0.0 |  0.05
Other   |            | 7.875e-06  |            |       |  2.98

Nlocal:           3.25 ave           5 max           2 min
Histogram: 4 0 0 0 0 0 2 0 0 2
Nghost:         312.75 ave         314 max         311 min
Histogram: 2 0 0 2 0 0 0 0 0 4
Neighs:            139 ave         213 max          82 min
Histogram: 4 0 0 0 0 0 1 1 0 2
FullNghs:          278 ave         432 max         170 min
Histogram: 4 0 0 0 0 0 2 0 0 2

Total # of neighbors = 2224
Ave neighs/atom = 85.538462
Neighbor list builds = 0
Dangerous builds = 0
variable  natoms equal "count(all)"
variable xlength equal "lx"
variable  volume equal "vol"
variable  etotal equal "etotal"
variable    ecoh equal "-pe/v_natoms"
print "${xlength}, ${volume}, ${etotal}, ${ecoh}" append lattice_cohesive_energy.txt screen no

next i
jump SELF loop

change_box all x scale 1.0025 y scale 1.0025 z scale 1.0025 remap
Changing box ...
  orthogonal box = (0.20549129 0.21444087 0.21444087) to (7.3830527 7.3741031 7.3741031)
  orthogonal box = (0.20549129 0.20549129 0.21444087) to (7.3830527 7.3830527 7.3741031)
  orthogonal box = (0.20549129 0.20549129 0.20549129) to (7.3830527 7.3830527 7.3830527)

run 1
WARNING: No fixes with time integration, atoms won't move (src/verlet.cpp:60)
Per MPI rank memory allocation (min/avg/max) = 8.515 | 8.517 | 8.518 Mbytes
   Step         PotEng         TotEng           Lx             Ly             Lz           Volume         Press           Pxx            Pyy            Pzz      
        63  -102.52704     -102.52704      7.1775614      7.1775614      7.1775614      369.76922      198428.16      198428.16      198428.16      198428.16    
        64  -102.52704     -102.52704      7.1775614      7.1775614      7.1775614      369.76922      198428.16      198428.16      198428.16      198428.16    
Loop time of 0.000262 on 8 procs for 1 steps with 26 atoms

Performance: 329.771 ns/day, 0.073 hours/ns, 3816.794 timesteps/s, 99.237 katom-step/s
0.0% CPU use with 8 MPI tasks x 1 OpenMP threads

MPI task timing breakdown:
Section |  min time  |  avg time  |  max time  |%varavg| %total
---------------------------------------------------------------
Pair    | 0.00016    | 0.00018525 | 0.00022    |   0.0 | 70.71
Neigh   | 0          | 0          | 0          |   0.0 |  0.00
Comm    | 1.8e-05    | 5.2125e-05 | 7.8e-05    |   0.0 | 19.90
Output  | 1.5e-05    | 1.65e-05   | 1.8e-05    |   0.0 |  6.30
Modify  | 0          | 3.75e-07   | 1e-06      |   0.0 |  0.14
Other   |            | 7.75e-06   |            |       |  2.96

Nlocal:           3.25 ave           5 max           2 min
Histogram: 4 0 0 0 0 0 2 0 0 2
Nghost:         312.75 ave         314 max         311 min
Histogram: 2 0 0 2 0 0 0 0 0 4
Neighs:            139 ave         213 max          82 min
Histogram: 4 0 0 0 0 0 1 1 0 2
FullNghs:          278 ave         432 max         170 min
Histogram: 4 0 0 0 0 0 2 0 0 2

Total # of neighbors = 2224
Ave neighs/atom = 85.538462
Neighbor list builds = 0
Dangerous builds = 0
variable  natoms equal "count(all)"
variable xlength equal "lx"
variable  volume equal "vol"
variable  etotal equal "etotal"
variable    ecoh equal "-pe/v_natoms"
print "${xlength}, ${volume}, ${etotal}, ${ecoh}" append lattice_cohesive_energy.txt screen no

next i
jump SELF loop

change_box all x scale 1.0025 y scale 1.0025 z scale 1.0025 remap
Changing box ...
  orthogonal box = (0.19651934 0.20549129 0.20549129) to (7.3920247 7.3830527 7.3830527)
  orthogonal box = (0.19651934 0.19651934 0.20549129) to (7.3920247 7.3920247 7.3830527)
  orthogonal box = (0.19651934 0.19651934 0.19651934) to (7.3920247 7.3920247 7.3920247)

run 1
WARNING: No fixes with time integration, atoms won't move (src/verlet.cpp:60)
Per MPI rank memory allocation (min/avg/max) = 8.515 | 8.517 | 8.518 Mbytes
   Step         PotEng         TotEng           Lx             Ly             Lz           Volume         Press           Pxx            Pyy            Pzz      
        64  -102.85939     -102.85939      7.1955053      7.1955053      7.1955053      372.54942      184703.93      184703.93      184703.93      184703.93    
        65  -102.85939     -102.85939      7.1955053      7.1955053      7.1955053      372.54942      184703.93      184703.93      184703.93      184703.93    
Loop time of 0.000260625 on 8 procs for 1 steps with 26 atoms

Performance: 331.511 ns/day, 0.072 hours/ns, 3836.930 timesteps/s, 99.760 katom-step/s
0.0% CPU use with 8 MPI tasks x 1 OpenMP threads

MPI task timing breakdown:
Section |  min time  |  avg time  |  max time  |%varavg| %total
---------------------------------------------------------------
Pair    | 0.000158   | 0.00018375 | 0.000218   |   0.0 | 70.50
Neigh   | 0          | 0          | 0          |   0.0 |  0.00
Comm    | 1.9e-05    | 5.35e-05   | 8e-05      |   0.0 | 20.53
Output  | 1.4e-05    | 1.5875e-05 | 1.7e-05    |   0.0 |  6.09
Modify  | 0          | 0          | 0          |   0.0 |  0.00
Other   |            | 7.5e-06    |            |       |  2.88

Nlocal:           3.25 ave           5 max           2 min
Histogram: 4 0 0 0 0 0 2 0 0 2
Nghost:         312.75 ave         314 max         311 min
Histogram: 2 0 0 2 0 0 0 0 0 4
Neighs:            139 ave         213 max          82 min
Histogram: 4 0 0 0 0 0 1 1 0 2
FullNghs:          278 ave         432 max         170 min
Histogram: 4 0 0 0 0 0 2 0 0 2

Total # of neighbors = 2224
Ave neighs/atom = 85.538462
Neighbor list builds = 0
Dangerous builds = 0
variable  natoms equal "count(all)"
variable xlength equal "lx"
variable  volume equal "vol"
variable  etotal equal "etotal"
variable    ecoh equal "-pe/v_natoms"
print "${xlength}, ${volume}, ${etotal}, ${ecoh}" append lattice_cohesive_energy.txt screen no

next i
jump SELF loop

change_box all x scale 1.0025 y scale 1.0025 z scale 1.0025 remap
Changing box ...
  orthogonal box = (0.18752496 0.19651934 0.19651934) to (7.401019 7.3920247 7.3920247)
  orthogonal box = (0.18752496 0.18752496 0.19651934) to (7.401019 7.401019 7.3920247)
  orthogonal box = (0.18752496 0.18752496 0.18752496) to (7.401019 7.401019 7.401019)

run 1
WARNING: No fixes with time integration, atoms won't move (src/verlet.cpp:60)
Per MPI rank memory allocation (min/avg/max) = 8.515 | 8.517 | 8.518 Mbytes
   Step         PotEng         TotEng           Lx             Ly             Lz           Volume         Press           Pxx            Pyy            Pzz      
        65  -103.17059     -103.17059      7.2134941      7.2134941      7.2134941      375.35054      171380.84      171380.84      171380.84      171380.84    
        66  -103.17059     -103.17059      7.2134941      7.2134941      7.2134941      375.35054      171380.84      171380.84      171380.84      171380.84    
Loop time of 0.000260875 on 8 procs for 1 steps with 26 atoms

Performance: 331.193 ns/day, 0.072 hours/ns, 3833.253 timesteps/s, 99.665 katom-step/s
0.0% CPU use with 8 MPI tasks x 1 OpenMP threads

MPI task timing breakdown:
Section |  min time  |  avg time  |  max time  |%varavg| %total
---------------------------------------------------------------
Pair    | 0.000157   | 0.00018312 | 0.000218   |   0.0 | 70.20
Neigh   | 0          | 0          | 0          |   0.0 |  0.00
Comm    | 1.8e-05    | 5.3625e-05 | 8e-05      |   0.0 | 20.56
Output  | 1.5e-05    | 1.6375e-05 | 1.8e-05    |   0.0 |  6.28
Modify  | 0          | 3.75e-07   | 1e-06      |   0.0 |  0.14
Other   |            | 7.375e-06  |            |       |  2.83

Nlocal:           3.25 ave           5 max           2 min
Histogram: 4 0 0 0 0 0 2 0 0 2
Nghost:         312.75 ave         314 max         311 min
Histogram: 2 0 0 2 0 0 0 0 0 4
Neighs:            139 ave         213 max          82 min
Histogram: 4 0 0 0 0 0 1 1 0 2
FullNghs:          278 ave         432 max         170 min
Histogram: 4 0 0 0 0 0 2 0 0 2

Total # of neighbors = 2224
Ave neighs/atom = 85.538462
Neighbor list builds = 0
Dangerous builds = 0
variable  natoms equal "count(all)"
variable xlength equal "lx"
variable  volume equal "vol"
variable  etotal equal "etotal"
variable    ecoh equal "-pe/v_natoms"
print "${xlength}, ${volume}, ${etotal}, ${ecoh}" append lattice_cohesive_energy.txt screen no

next i
jump SELF loop

change_box all x scale 1.0025 y scale 1.0025 z scale 1.0025 remap
Changing box ...
  orthogonal box = (0.17850809 0.18752496 0.18752496) to (7.4100359 7.401019 7.401019)
  orthogonal box = (0.17850809 0.17850809 0.18752496) to (7.4100359 7.4100359 7.401019)
  orthogonal box = (0.17850809 0.17850809 0.17850809) to (7.4100359 7.4100359 7.4100359)

run 1
WARNING: No fixes with time integration, atoms won't move (src/verlet.cpp:60)
Per MPI rank memory allocation (min/avg/max) = 8.515 | 8.517 | 8.518 Mbytes
   Step         PotEng         TotEng           Lx             Ly             Lz           Volume         Press           Pxx            Pyy            Pzz      
        66  -103.46101     -103.46101      7.2315278      7.2315278      7.2315278      378.17271      158450.15      158450.15      158450.15      158450.15    
        67  -103.46101     -103.46101      7.2315278      7.2315278      7.2315278      378.17271      158450.15      158450.15      158450.15      158450.15    
Loop time of 0.000287125 on 8 procs for 1 steps with 26 atoms

Performance: 300.914 ns/day, 0.080 hours/ns, 3482.804 timesteps/s, 90.553 katom-step/s
0.0% CPU use with 8 MPI tasks x 1 OpenMP threads

MPI task timing breakdown:
Section |  min time  |  avg time  |  max time  |%varavg| %total
---------------------------------------------------------------
Pair    | 0.000183   | 0.00019837 | 0.00023    |   0.0 | 69.09
Neigh   | 0          | 0          | 0          |   0.0 |  0.00
Comm    | 2.2e-05    | 5.3375e-05 | 6.8e-05    |   0.0 | 18.59
Output  | 1.8e-05    | 1.9375e-05 | 2.1e-05    |   0.0 |  6.75
Modify  | 0          | 1.25e-07   | 1e-06      |   0.0 |  0.04
Other   |            | 1.587e-05  |            |       |  5.53

Nlocal:           3.25 ave           5 max           2 min
Histogram: 4 0 0 0 0 0 2 0 0 2
Nghost:         312.75 ave         314 max         311 min
Histogram: 2 0 0 2 0 0 0 0 0 4
Neighs:            139 ave         213 max          82 min
Histogram: 4 0 0 0 0 0 1 1 0 2
FullNghs:          278 ave         432 max         170 min
Histogram: 4 0 0 0 0 0 2 0 0 2

Total # of neighbors = 2224
Ave neighs/atom = 85.538462
Neighbor list builds = 0
Dangerous builds = 0
variable  natoms equal "count(all)"
variable xlength equal "lx"
variable  volume equal "vol"
variable  etotal equal "etotal"
variable    ecoh equal "-pe/v_natoms"
print "${xlength}, ${volume}, ${etotal}, ${ecoh}" append lattice_cohesive_energy.txt screen no

next i
jump SELF loop

change_box all x scale 1.0025 y scale 1.0025 z scale 1.0025 remap
Changing box ...
  orthogonal box = (0.16946868 0.17850809 0.17850809) to (7.4190753 7.4100359 7.4100359)
  orthogonal box = (0.16946868 0.16946868 0.17850809) to (7.4190753 7.4190753 7.4100359)
  orthogonal box = (0.16946868 0.16946868 0.16946868) to (7.4190753 7.4190753 7.4190753)

run 1
WARNING: No fixes with time integration, atoms won't move (src/verlet.cpp:60)
Per MPI rank memory allocation (min/avg/max) = 8.515 | 8.517 | 8.518 Mbytes
   Step         PotEng         TotEng           Lx             Ly             Lz           Volume         Press           Pxx            Pyy            Pzz      
        67  -103.73101     -103.73101      7.2496066      7.2496066      7.2496066      381.0161       145903.19      145903.19      145903.19      145903.19    
        68  -103.73101     -103.73101      7.2496066      7.2496066      7.2496066      381.0161       145903.19      145903.19      145903.19      145903.19    
Loop time of 0.00021175 on 8 procs for 1 steps with 26 atoms

Performance: 408.028 ns/day, 0.059 hours/ns, 4722.550 timesteps/s, 122.786 katom-step/s
0.0% CPU use with 8 MPI tasks x 1 OpenMP threads

MPI task timing breakdown:
Section |  min time  |  avg time  |  max time  |%varavg| %total
---------------------------------------------------------------
Pair    | 0.000141   | 0.000151   | 0.000166   |   0.0 | 71.31
Neigh   | 0          | 0          | 0          |   0.0 |  0.00
Comm    | 1.9e-05    | 3.5125e-05 | 4.5e-05    |   0.0 | 16.59
Output  | 1.6e-05    | 1.7e-05    | 1.9e-05    |   0.0 |  8.03
Modify  | 0          | 3.75e-07   | 1e-06      |   0.0 |  0.18
Other   |            | 8.25e-06   |            |       |  3.90

Nlocal:           3.25 ave           5 max           2 min
Histogram: 4 0 0 0 0 0 2 0 0 2
Nghost:         312.75 ave         314 max         311 min
Histogram: 2 0 0 2 0 0 0 0 0 4
Neighs:            139 ave         213 max          82 min
Histogram: 4 0 0 0 0 0 1 1 0 2
FullNghs:          278 ave         432 max         170 min
Histogram: 4 0 0 0 0 0 2 0 0 2

Total # of neighbors = 2224
Ave neighs/atom = 85.538462
Neighbor list builds = 0
Dangerous builds = 0
variable  natoms equal "count(all)"
variable xlength equal "lx"
variable  volume equal "vol"
variable  etotal equal "etotal"
variable    ecoh equal "-pe/v_natoms"
print "${xlength}, ${volume}, ${etotal}, ${ecoh}" append lattice_cohesive_energy.txt screen no

next i
jump SELF loop

change_box all x scale 1.0025 y scale 1.0025 z scale 1.0025 remap
Changing box ...
  orthogonal box = (0.16040667 0.16946868 0.16946868) to (7.4281373 7.4190753 7.4190753)
  orthogonal box = (0.16040667 0.16040667 0.16946868) to (7.4281373 7.4281373 7.4190753)
  orthogonal box = (0.16040667 0.16040667 0.16040667) to (7.4281373 7.4281373 7.4281373)

run 1
WARNING: No fixes with time integration, atoms won't move (src/verlet.cpp:60)
Per MPI rank memory allocation (min/avg/max) = 8.515 | 8.517 | 8.518 Mbytes
   Step         PotEng         TotEng           Lx             Ly             Lz           Volume         Press           Pxx            Pyy            Pzz      
        68  -103.98094     -103.98094      7.2677307      7.2677307      7.2677307      383.88087      133731.51      133731.51      133731.51      133731.51    
        69  -103.98094     -103.98094      7.2677307      7.2677307      7.2677307      383.88087      133731.51      133731.51      133731.51      133731.51    
Loop time of 0.000257 on 8 procs for 1 steps with 26 atoms

Performance: 336.187 ns/day, 0.071 hours/ns, 3891.051 timesteps/s, 101.167 katom-step/s
0.0% CPU use with 8 MPI tasks x 1 OpenMP threads

MPI task timing breakdown:
Section |  min time  |  avg time  |  max time  |%varavg| %total
---------------------------------------------------------------
Pair    | 0.000171   | 0.00018275 | 0.000211   |   0.0 | 71.11
Neigh   | 0          | 0          | 0          |   0.0 |  0.00
Comm    | 1.9e-05    | 4.6875e-05 | 5.8e-05    |   0.0 | 18.24
Output  | 1.7e-05    | 1.8375e-05 | 2e-05      |   0.0 |  7.15
Modify  | 0          | 1.25e-07   | 1e-06      |   0.0 |  0.05
Other   |            | 8.875e-06  |            |       |  3.45

Nlocal:           3.25 ave           5 max           2 min
Histogram: 4 0 0 0 0 0 2 0 0 2
Nghost:         312.75 ave         314 max         311 min
Histogram: 2 0 0 2 0 0 0 0 0 4
Neighs:            139 ave         213 max          82 min
Histogram: 4 0 0 0 0 0 1 1 0 2
FullNghs:          278 ave         432 max         170 min
Histogram: 4 0 0 0 0 0 2 0 0 2

Total # of neighbors = 2224
Ave neighs/atom = 85.538462
Neighbor list builds = 0
Dangerous builds = 0
variable  natoms equal "count(all)"
variable xlength equal "lx"
variable  volume equal "vol"
variable  etotal equal "etotal"
variable    ecoh equal "-pe/v_natoms"
print "${xlength}, ${volume}, ${etotal}, ${ecoh}" append lattice_cohesive_energy.txt screen no

next i
jump SELF loop

change_box all x scale 1.0025 y scale 1.0025 z scale 1.0025 remap
Changing box ...
  orthogonal box = (0.15132201 0.16040667 0.16040667) to (7.437222 7.4281373 7.4281373)
  orthogonal box = (0.15132201 0.15132201 0.16040667) to (7.437222 7.437222 7.4281373)
  orthogonal box = (0.15132201 0.15132201 0.15132201) to (7.437222 7.437222 7.437222)

run 1
WARNING: No fixes with time integration, atoms won't move (src/verlet.cpp:60)
Per MPI rank memory allocation (min/avg/max) = 8.515 | 8.517 | 8.518 Mbytes
   Step         PotEng         TotEng           Lx             Ly             Lz           Volume         Press           Pxx            Pyy            Pzz      
        69  -104.21116     -104.21116      7.2859         7.2859         7.2859         386.76718      121926.77      121926.77      121926.77      121926.77    
        70  -104.21116     -104.21116      7.2859         7.2859         7.2859         386.76718      121926.77      121926.77      121926.77      121926.77    
Loop time of 0.00025025 on 8 procs for 1 steps with 26 atoms

Performance: 345.255 ns/day, 0.070 hours/ns, 3996.004 timesteps/s, 103.896 katom-step/s
0.0% CPU use with 8 MPI tasks x 1 OpenMP threads

MPI task timing breakdown:
Section |  min time  |  avg time  |  max time  |%varavg| %total
---------------------------------------------------------------
Pair    | 0.000165   | 0.00017775 | 0.000205   |   0.0 | 71.03
Neigh   | 0          | 0          | 0          |   0.0 |  0.00
Comm    | 1.9e-05    | 4.5875e-05 | 5.7e-05    |   0.0 | 18.33
Output  | 1.7e-05    | 1.7875e-05 | 2e-05      |   0.0 |  7.14
Modify  | 0          | 2.5e-07    | 1e-06      |   0.0 |  0.10
Other   |            | 8.5e-06    |            |       |  3.40

Nlocal:           3.25 ave           5 max           2 min
Histogram: 4 0 0 0 0 0 2 0 0 2
Nghost:         312.75 ave         314 max         311 min
Histogram: 2 0 0 2 0 0 0 0 0 4
Neighs:            139 ave         213 max          83 min
Histogram: 4 0 0 0 0 0 1 1 0 2
FullNghs:          278 ave         432 max         170 min
Histogram: 4 0 0 0 0 0 2 0 0 2

Total # of neighbors = 2224
Ave neighs/atom = 85.538462
Neighbor list builds = 0
Dangerous builds = 0
variable  natoms equal "count(all)"
variable xlength equal "lx"
variable  volume equal "vol"
variable  etotal equal "etotal"
variable    ecoh equal "-pe/v_natoms"
print "${xlength}, ${volume}, ${etotal}, ${ecoh}" append lattice_cohesive_energy.txt screen no

next i
jump SELF loop

change_box all x scale 1.0025 y scale 1.0025 z scale 1.0025 remap
Changing box ...
  orthogonal box = (0.14221464 0.15132201 0.15132201) to (7.4463294 7.437222 7.437222)
  orthogonal box = (0.14221464 0.14221464 0.15132201) to (7.4463294 7.4463294 7.437222)
  orthogonal box = (0.14221464 0.14221464 0.14221464) to (7.4463294 7.4463294 7.4463294)

run 1
WARNING: No fixes with time integration, atoms won't move (src/verlet.cpp:60)
Per MPI rank memory allocation (min/avg/max) = 8.515 | 8.517 | 8.518 Mbytes
   Step         PotEng         TotEng           Lx             Ly             Lz           Volume         Press           Pxx            Pyy            Pzz      
        70  -104.422       -104.422        7.3041147      7.3041147      7.3041147      389.67519      110480.79      110480.79      110480.79      110480.79    
        71  -104.422       -104.422        7.3041147      7.3041147      7.3041147      389.67519      110480.79      110480.79      110480.79      110480.79    
Loop time of 0.0002475 on 8 procs for 1 steps with 26 atoms

Performance: 349.091 ns/day, 0.069 hours/ns, 4040.404 timesteps/s, 105.051 katom-step/s
0.0% CPU use with 8 MPI tasks x 1 OpenMP threads

MPI task timing breakdown:
Section |  min time  |  avg time  |  max time  |%varavg| %total
---------------------------------------------------------------
Pair    | 0.000162   | 0.00017487 | 0.000203   |   0.0 | 70.66
Neigh   | 0          | 0          | 0          |   0.0 |  0.00
Comm    | 1.9e-05    | 4.5625e-05 | 5.8e-05    |   0.0 | 18.43
Output  | 1.7e-05    | 1.7875e-05 | 2e-05      |   0.0 |  7.22
Modify  | 0          | 2.5e-07    | 1e-06      |   0.0 |  0.10
Other   |            | 8.875e-06  |            |       |  3.59

Nlocal:           3.25 ave           5 max           2 min
Histogram: 4 0 0 0 0 0 2 0 0 2
Nghost:         312.75 ave         314 max         311 min
Histogram: 2 0 0 2 0 0 0 0 0 4
Neighs:            139 ave         213 max          83 min
Histogram: 4 0 0 0 0 0 1 1 0 2
FullNghs:          278 ave         432 max         170 min
Histogram: 4 0 0 0 0 0 2 0 0 2

Total # of neighbors = 2224
Ave neighs/atom = 85.538462
Neighbor list builds = 0
Dangerous builds = 0
variable  natoms equal "count(all)"
variable xlength equal "lx"
variable  volume equal "vol"
variable  etotal equal "etotal"
variable    ecoh equal "-pe/v_natoms"
print "${xlength}, ${volume}, ${etotal}, ${ecoh}" append lattice_cohesive_energy.txt screen no

next i
jump SELF loop

change_box all x scale 1.0025 y scale 1.0025 z scale 1.0025 remap
Changing box ...
  orthogonal box = (0.13308449 0.14221464 0.14221464) to (7.4554595 7.4463294 7.4463294)
  orthogonal box = (0.13308449 0.13308449 0.14221464) to (7.4554595 7.4554595 7.4463294)
  orthogonal box = (0.13308449 0.13308449 0.13308449) to (7.4554595 7.4554595 7.4554595)

run 1
WARNING: No fixes with time integration, atoms won't move (src/verlet.cpp:60)
Per MPI rank memory allocation (min/avg/max) = 8.515 | 8.517 | 8.518 Mbytes
   Step         PotEng         TotEng           Lx             Ly             Lz           Volume         Press           Pxx            Pyy            Pzz      
        71  -104.61383     -104.61383      7.322375       7.322375       7.322375       392.60507      99385.558      99385.558      99385.558      99385.558    
        72  -104.61383     -104.61383      7.322375       7.322375       7.322375       392.60507      99385.558      99385.558      99385.558      99385.558    
Loop time of 0.000249875 on 8 procs for 1 steps with 26 atoms

Performance: 345.773 ns/day, 0.069 hours/ns, 4002.001 timesteps/s, 104.052 katom-step/s
0.0% CPU use with 8 MPI tasks x 1 OpenMP threads

MPI task timing breakdown:
Section |  min time  |  avg time  |  max time  |%varavg| %total
---------------------------------------------------------------
Pair    | 0.000162   | 0.00017475 | 0.000202   |   0.0 | 69.93
Neigh   | 0          | 0          | 0          |   0.0 |  0.00
Comm    | 2e-05      | 4.65e-05   | 5.9e-05    |   0.0 | 18.61
Output  | 1.7e-05    | 1.8e-05    | 2e-05      |   0.0 |  7.20
Modify  | 0          | 0          | 0          |   0.0 |  0.00
Other   |            | 1.063e-05  |            |       |  4.25

Nlocal:           3.25 ave           5 max           2 min
Histogram: 4 0 0 0 0 0 2 0 0 2
Nghost:         312.75 ave         314 max         311 min
Histogram: 2 0 0 2 0 0 0 0 0 4
Neighs:            139 ave         213 max          83 min
Histogram: 4 0 0 0 0 0 1 1 0 2
FullNghs:          278 ave         432 max         170 min
Histogram: 4 0 0 0 0 0 2 0 0 2

Total # of neighbors = 2224
Ave neighs/atom = 85.538462
Neighbor list builds = 0
Dangerous builds = 0
variable  natoms equal "count(all)"
variable xlength equal "lx"
variable  volume equal "vol"
variable  etotal equal "etotal"
variable    ecoh equal "-pe/v_natoms"
print "${xlength}, ${volume}, ${etotal}, ${ecoh}" append lattice_cohesive_energy.txt screen no

next i
jump SELF loop

change_box all x scale 1.0025 y scale 1.0025 z scale 1.0025 remap
Changing box ...
  orthogonal box = (0.12393152 0.13308449 0.13308449) to (7.4646125 7.4554595 7.4554595)
  orthogonal box = (0.12393152 0.12393152 0.13308449) to (7.4646125 7.4646125 7.4554595)
  orthogonal box = (0.12393152 0.12393152 0.12393152) to (7.4646125 7.4646125 7.4646125)

run 1
WARNING: No fixes with time integration, atoms won't move (src/verlet.cpp:60)
Per MPI rank memory allocation (min/avg/max) = 8.515 | 8.517 | 8.518 Mbytes
   Step         PotEng         TotEng           Lx             Ly             Lz           Volume         Press           Pxx            Pyy            Pzz      
        72  -104.78697     -104.78697      7.340681       7.340681       7.340681       395.55697      88633.164      88633.164      88633.164      88633.164    
        73  -104.78697     -104.78697      7.340681       7.340681       7.340681       395.55697      88633.164      88633.164      88633.164      88633.164    
Loop time of 0.000243625 on 8 procs for 1 steps with 26 atoms

Performance: 354.643 ns/day, 0.068 hours/ns, 4104.669 timesteps/s, 106.721 katom-step/s
0.0% CPU use with 8 MPI tasks x 1 OpenMP threads

MPI task timing breakdown:
Section |  min time  |  avg time  |  max time  |%varavg| %total
---------------------------------------------------------------
Pair    | 0.00016    | 0.00017275 | 0.000201   |   0.0 | 70.91
Neigh   | 0          | 0          | 0          |   0.0 |  0.00
Comm    | 1.9e-05    | 4.5875e-05 | 5.8e-05    |   0.0 | 18.83
Output  | 1.6e-05    | 1.7375e-05 | 2e-05      |   0.0 |  7.13
Modify  | 0          | 1.25e-07   | 1e-06      |   0.0 |  0.05
Other   |            | 7.5e-06    |            |       |  3.08

Nlocal:           3.25 ave           5 max           2 min
Histogram: 4 0 0 0 0 0 2 0 0 2
Nghost:         312.75 ave         314 max         311 min
Histogram: 2 0 0 2 0 0 0 0 0 4
Neighs:            139 ave         213 max          83 min
Histogram: 4 0 0 0 0 0 1 1 0 2
FullNghs:          278 ave         432 max         170 min
Histogram: 4 0 0 0 0 0 2 0 0 2

Total # of neighbors = 2224
Ave neighs/atom = 85.538462
Neighbor list builds = 0
Dangerous builds = 0
variable  natoms equal "count(all)"
variable xlength equal "lx"
variable  volume equal "vol"
variable  etotal equal "etotal"
variable    ecoh equal "-pe/v_natoms"
print "${xlength}, ${volume}, ${etotal}, ${ecoh}" append lattice_cohesive_energy.txt screen no

next i
jump SELF loop

change_box all x scale 1.0025 y scale 1.0025 z scale 1.0025 remap
Changing box ...
  orthogonal box = (0.11475567 0.12393152 0.12393152) to (7.4737883 7.4646125 7.4646125)
  orthogonal box = (0.11475567 0.11475567 0.12393152) to (7.4737883 7.4737883 7.4646125)
  orthogonal box = (0.11475567 0.11475567 0.11475567) to (7.4737883 7.4737883 7.4737883)

run 1
WARNING: No fixes with time integration, atoms won't move (src/verlet.cpp:60)
Per MPI rank memory allocation (min/avg/max) = 8.515 | 8.517 | 8.518 Mbytes
   Step         PotEng         TotEng           Lx             Ly             Lz           Volume         Press           Pxx            Pyy            Pzz      
        73  -104.94177     -104.94177      7.3590327      7.3590327      7.3590327      398.53107      78215.885      78215.885      78215.885      78215.885    
        74  -104.94177     -104.94177      7.3590327      7.3590327      7.3590327      398.53107      78215.885      78215.885      78215.885      78215.885    
Loop time of 0.0002585 on 8 procs for 1 steps with 26 atoms

Performance: 334.236 ns/day, 0.072 hours/ns, 3868.472 timesteps/s, 100.580 katom-step/s
0.0% CPU use with 8 MPI tasks x 1 OpenMP threads

MPI task timing breakdown:
Section |  min time  |  avg time  |  max time  |%varavg| %total
---------------------------------------------------------------
Pair    | 0.000163   | 0.00017587 | 0.000203   |   0.0 | 68.04
Neigh   | 0          | 0          | 0          |   0.0 |  0.00
Comm    | 2e-05      | 4.55e-05   | 5.8e-05    |   0.0 | 17.60
Output  | 1.7e-05    | 1.9625e-05 | 3e-05      |   0.0 |  7.59
Modify  | 0          | 1.25e-07   | 1e-06      |   0.0 |  0.05
Other   |            | 1.737e-05  |            |       |  6.72

Nlocal:           3.25 ave           5 max           2 min
Histogram: 4 0 0 0 0 0 2 0 0 2
Nghost:         312.75 ave         314 max         311 min
Histogram: 2 0 0 2 0 0 0 0 0 4
Neighs:            133 ave         205 max          79 min
Histogram: 4 0 0 0 0 0 1 1 0 2
FullNghs:          266 ave         416 max         162 min
Histogram: 4 0 0 0 0 0 2 0 0 2

Total # of neighbors = 2128
Ave neighs/atom = 81.846154
Neighbor list builds = 0
Dangerous builds = 0
variable  natoms equal "count(all)"
variable xlength equal "lx"
variable  volume equal "vol"
variable  etotal equal "etotal"
variable    ecoh equal "-pe/v_natoms"
print "${xlength}, ${volume}, ${etotal}, ${ecoh}" append lattice_cohesive_energy.txt screen no

next i
jump SELF loop

change_box all x scale 1.0025 y scale 1.0025 z scale 1.0025 remap
Changing box ...
  orthogonal box = (0.10555688 0.11475567 0.11475567) to (7.4829871 7.4737883 7.4737883)
  orthogonal box = (0.10555688 0.10555688 0.11475567) to (7.4829871 7.4829871 7.4737883)
  orthogonal box = (0.10555688 0.10555688 0.10555688) to (7.4829871 7.4829871 7.4829871)

run 1
WARNING: No fixes with time integration, atoms won't move (src/verlet.cpp:60)
Per MPI rank memory allocation (min/avg/max) = 8.515 | 8.517 | 8.518 Mbytes
   Step         PotEng         TotEng           Lx             Ly             Lz           Volume         Press           Pxx            Pyy            Pzz      
        74  -105.07855     -105.07855      7.3774302      7.3774302      7.3774302      401.52754      68126.127      68126.127      68126.127      68126.127    
        75  -105.07855     -105.07855      7.3774302      7.3774302      7.3774302      401.52754      68126.127      68126.127      68126.127      68126.127    
Loop time of 0.000244875 on 8 procs for 1 steps with 26 atoms

Performance: 352.833 ns/day, 0.068 hours/ns, 4083.716 timesteps/s, 106.177 katom-step/s
0.0% CPU use with 8 MPI tasks x 1 OpenMP threads

MPI task timing breakdown:
Section |  min time  |  avg time  |  max time  |%varavg| %total
---------------------------------------------------------------
Pair    | 0.000162   | 0.0001745  | 0.000201   |   0.0 | 71.26
Neigh   | 0          | 0          | 0          |   0.0 |  0.00
Comm    | 2e-05      | 4.55e-05   | 5.8e-05    |   0.0 | 18.58
Output  | 1.6e-05    | 1.75e-05   | 2e-05      |   0.0 |  7.15
Modify  | 0          | 0          | 0          |   0.0 |  0.00
Other   |            | 7.375e-06  |            |       |  3.01

Nlocal:           3.25 ave           5 max           2 min
Histogram: 4 0 0 0 0 0 2 0 0 2
Nghost:         312.75 ave         314 max         311 min
Histogram: 2 0 0 2 0 0 0 0 0 4
Neighs:            133 ave         205 max          79 min
Histogram: 4 0 0 0 0 0 1 1 0 2
FullNghs:          266 ave         416 max         162 min
Histogram: 4 0 0 0 0 0 2 0 0 2

Total # of neighbors = 2128
Ave neighs/atom = 81.846154
Neighbor list builds = 0
Dangerous builds = 0
variable  natoms equal "count(all)"
variable xlength equal "lx"
variable  volume equal "vol"
variable  etotal equal "etotal"
variable    ecoh equal "-pe/v_natoms"
print "${xlength}, ${volume}, ${etotal}, ${ecoh}" append lattice_cohesive_energy.txt screen no

next i
jump SELF loop

change_box all x scale 1.0025 y scale 1.0025 z scale 1.0025 remap
Changing box ...
  orthogonal box = (0.096335093 0.10555688 0.10555688) to (7.4922089 7.4829871 7.4829871)
  orthogonal box = (0.096335093 0.096335093 0.10555688) to (7.4922089 7.4922089 7.4829871)
  orthogonal box = (0.096335093 0.096335093 0.096335093) to (7.4922089 7.4922089 7.4922089)

run 1
WARNING: No fixes with time integration, atoms won't move (src/verlet.cpp:60)
Per MPI rank memory allocation (min/avg/max) = 8.515 | 8.517 | 8.518 Mbytes
   Step         PotEng         TotEng           Lx             Ly             Lz           Volume         Press           Pxx            Pyy            Pzz      
        75  -105.19766     -105.19766      7.3958738      7.3958738      7.3958738      404.54653      58356.402      58356.402      58356.402      58356.402    
        76  -105.19766     -105.19766      7.3958738      7.3958738      7.3958738      404.54653      58356.402      58356.402      58356.402      58356.402    
Loop time of 0.000271875 on 8 procs for 1 steps with 26 atoms

Performance: 317.793 ns/day, 0.076 hours/ns, 3678.161 timesteps/s, 95.632 katom-step/s
0.0% CPU use with 8 MPI tasks x 1 OpenMP threads

MPI task timing breakdown:
Section |  min time  |  avg time  |  max time  |%varavg| %total
---------------------------------------------------------------
Pair    | 0.000179   | 0.00019113 | 0.000221   |   0.0 | 70.30
Neigh   | 0          | 0          | 0          |   0.0 |  0.00
Comm    | 2.2e-05    | 5.1375e-05 | 6.3e-05    |   0.0 | 18.90
Output  | 1.7e-05    | 1.825e-05  | 2.1e-05    |   0.0 |  6.71
Modify  | 0          | 3.75e-07   | 1e-06      |   0.0 |  0.14
Other   |            | 1.075e-05  |            |       |  3.95

Nlocal:           3.25 ave           5 max           2 min
Histogram: 4 0 0 0 0 0 2 0 0 2
Nghost:         312.75 ave         314 max         311 min
Histogram: 2 0 0 2 0 0 0 0 0 4
Neighs:            127 ave         195 max          77 min
Histogram: 4 0 0 0 0 0 1 1 0 2
FullNghs:          254 ave         400 max         154 min
Histogram: 4 0 0 0 0 0 2 0 0 2

Total # of neighbors = 2032
Ave neighs/atom = 78.153846
Neighbor list builds = 0
Dangerous builds = 0
variable  natoms equal "count(all)"
variable xlength equal "lx"
variable  volume equal "vol"
variable  etotal equal "etotal"
variable    ecoh equal "-pe/v_natoms"
print "${xlength}, ${volume}, ${etotal}, ${ecoh}" append lattice_cohesive_energy.txt screen no

next i
jump SELF loop

change_box all x scale 1.0025 y scale 1.0025 z scale 1.0025 remap
Changing box ...
  orthogonal box = (0.087090251 0.096335093 0.096335093) to (7.5014537 7.4922089 7.4922089)
  orthogonal box = (0.087090251 0.087090251 0.096335093) to (7.5014537 7.5014537 7.4922089)
  orthogonal box = (0.087090251 0.087090251 0.087090251) to (7.5014537 7.5014537 7.5014537)

run 1
WARNING: No fixes with time integration, atoms won't move (src/verlet.cpp:60)
Per MPI rank memory allocation (min/avg/max) = 8.515 | 8.517 | 8.518 Mbytes
   Step         PotEng         TotEng           Lx             Ly             Lz           Volume         Press           Pxx            Pyy            Pzz      
        76  -105.29941     -105.29941      7.4143635      7.4143635      7.4143635      407.58822      48899.415      48899.415      48899.415      48899.415    
        77  -105.29941     -105.29941      7.4143635      7.4143635      7.4143635      407.58822      48899.415      48899.415      48899.415      48899.415    
Loop time of 0.000245875 on 8 procs for 1 steps with 26 atoms

Performance: 351.398 ns/day, 0.068 hours/ns, 4067.107 timesteps/s, 105.745 katom-step/s
0.0% CPU use with 8 MPI tasks x 1 OpenMP threads

MPI task timing breakdown:
Section |  min time  |  avg time  |  max time  |%varavg| %total
---------------------------------------------------------------
Pair    | 0.000163   | 0.0001745  | 0.000202   |   0.0 | 70.97
Neigh   | 0          | 0          | 0          |   0.0 |  0.00
Comm    | 2e-05      | 4.5875e-05 | 5.7e-05    |   0.0 | 18.66
Output  | 1.6e-05    | 1.7375e-05 | 1.9e-05    |   0.0 |  7.07
Modify  | 0          | 1.25e-07   | 1e-06      |   0.0 |  0.05
Other   |            | 8e-06      |            |       |  3.25

Nlocal:           3.25 ave           5 max           2 min
Histogram: 4 0 0 0 0 0 2 0 0 2
Nghost:         312.75 ave         314 max         311 min
Histogram: 2 0 0 2 0 0 0 0 0 4
Neighs:          125.5 ave         193 max          76 min
Histogram: 4 0 0 0 0 0 1 1 0 2
FullNghs:          251 ave         396 max         152 min
Histogram: 4 0 0 0 0 0 2 0 0 2

Total # of neighbors = 2008
Ave neighs/atom = 77.230769
Neighbor list builds = 0
Dangerous builds = 0
variable  natoms equal "count(all)"
variable xlength equal "lx"
variable  volume equal "vol"
variable  etotal equal "etotal"
variable    ecoh equal "-pe/v_natoms"
print "${xlength}, ${volume}, ${etotal}, ${ecoh}" append lattice_cohesive_energy.txt screen no

next i
jump SELF loop

change_box all x scale 1.0025 y scale 1.0025 z scale 1.0025 remap
Changing box ...
  orthogonal box = (0.077822297 0.087090251 0.087090251) to (7.5107217 7.5014537 7.5014537)
  orthogonal box = (0.077822297 0.077822297 0.087090251) to (7.5107217 7.5107217 7.5014537)
  orthogonal box = (0.077822297 0.077822297 0.077822297) to (7.5107217 7.5107217 7.5107217)

run 1
WARNING: No fixes with time integration, atoms won't move (src/verlet.cpp:60)
Per MPI rank memory allocation (min/avg/max) = 8.515 | 8.517 | 8.518 Mbytes
   Step         PotEng         TotEng           Lx             Ly             Lz           Volume         Press           Pxx            Pyy            Pzz      
        77  -105.38413     -105.38413      7.4328994      7.4328994      7.4328994      410.65278      39747.965      39747.965      39747.965      39747.965    
        78  -105.38413     -105.38413      7.4328994      7.4328994      7.4328994      410.65278      39747.965      39747.965      39747.965      39747.965    
Loop time of 0.000241625 on 8 procs for 1 steps with 26 atoms

Performance: 357.579 ns/day, 0.067 hours/ns, 4138.645 timesteps/s, 107.605 katom-step/s
0.0% CPU use with 8 MPI tasks x 1 OpenMP threads

MPI task timing breakdown:
Section |  min time  |  avg time  |  max time  |%varavg| %total
---------------------------------------------------------------
Pair    | 0.00016    | 0.00017175 | 0.000199   |   0.0 | 71.08
Neigh   | 0          | 0          | 0          |   0.0 |  0.00
Comm    | 2e-05      | 4.525e-05  | 5.7e-05    |   0.0 | 18.73
Output  | 1.6e-05    | 1.7e-05    | 1.9e-05    |   0.0 |  7.04
Modify  | 0          | 5e-07      | 1e-06      |   0.0 |  0.21
Other   |            | 7.125e-06  |            |       |  2.95

Nlocal:           3.25 ave           5 max           2 min
Histogram: 4 0 0 0 0 0 2 0 0 2
Nghost:         312.75 ave         314 max         311 min
Histogram: 2 0 0 2 0 0 0 0 0 4
Neighs:          125.5 ave         193 max          76 min
Histogram: 4 0 0 0 0 0 1 1 0 2
FullNghs:          251 ave         396 max         152 min
Histogram: 4 0 0 0 0 0 2 0 0 2

Total # of neighbors = 2008
Ave neighs/atom = 77.230769
Neighbor list builds = 0
Dangerous builds = 0
variable  natoms equal "count(all)"
variable xlength equal "lx"
variable  volume equal "vol"
variable  etotal equal "etotal"
variable    ecoh equal "-pe/v_natoms"
print "${xlength}, ${volume}, ${etotal}, ${ecoh}" append lattice_cohesive_energy.txt screen no

next i
jump SELF loop

change_box all x scale 1.0025 y scale 1.0025 z scale 1.0025 remap
Changing box ...
  orthogonal box = (0.068531172 0.077822297 0.077822297) to (7.5200128 7.5107217 7.5107217)
  orthogonal box = (0.068531172 0.068531172 0.077822297) to (7.5200128 7.5200128 7.5107217)
  orthogonal box = (0.068531172 0.068531172 0.068531172) to (7.5200128 7.5200128 7.5200128)

run 1
WARNING: No fixes with time integration, atoms won't move (src/verlet.cpp:60)
Per MPI rank memory allocation (min/avg/max) = 8.515 | 8.517 | 8.518 Mbytes
   Step         PotEng         TotEng           Lx             Ly             Lz           Volume         Press           Pxx            Pyy            Pzz      
        78  -105.45214     -105.45214      7.4514817      7.4514817      7.4514817      413.74038      30894.99       30894.99       30894.99       30894.99     
        79  -105.45214     -105.45214      7.4514817      7.4514817      7.4514817      413.74038      30894.99       30894.99       30894.99       30894.99     
Loop time of 0.000238625 on 8 procs for 1 steps with 26 atoms

Performance: 362.074 ns/day, 0.066 hours/ns, 4190.676 timesteps/s, 108.958 katom-step/s
0.0% CPU use with 8 MPI tasks x 1 OpenMP threads

MPI task timing breakdown:
Section |  min time  |  avg time  |  max time  |%varavg| %total
---------------------------------------------------------------
Pair    | 0.000155   | 0.000168   | 0.000195   |   0.0 | 70.40
Neigh   | 0          | 0          | 0          |   0.0 |  0.00
Comm    | 2e-05      | 4.575e-05  | 5.8e-05    |   0.0 | 19.17
Output  | 1.6e-05    | 1.7125e-05 | 1.9e-05    |   0.0 |  7.18
Modify  | 0          | 2.5e-07    | 1e-06      |   0.0 |  0.10
Other   |            | 7.5e-06    |            |       |  3.14

Nlocal:           3.25 ave           5 max           2 min
Histogram: 4 0 0 0 0 0 2 0 0 2
Nghost:         312.75 ave         314 max         311 min
Histogram: 2 0 0 2 0 0 0 0 0 4
Neighs:          125.5 ave         193 max          76 min
Histogram: 4 0 0 0 0 0 1 1 0 2
FullNghs:          251 ave         396 max         152 min
Histogram: 4 0 0 0 0 0 2 0 0 2

Total # of neighbors = 2008
Ave neighs/atom = 77.230769
Neighbor list builds = 0
Dangerous builds = 0
variable  natoms equal "count(all)"
variable xlength equal "lx"
variable  volume equal "vol"
variable  etotal equal "etotal"
variable    ecoh equal "-pe/v_natoms"
print "${xlength}, ${volume}, ${etotal}, ${ecoh}" append lattice_cohesive_energy.txt screen no

next i
jump SELF loop

change_box all x scale 1.0025 y scale 1.0025 z scale 1.0025 remap
Changing box ...
  orthogonal box = (0.05921682 0.068531172 0.068531172) to (7.5293272 7.5200128 7.5200128)
  orthogonal box = (0.05921682 0.05921682 0.068531172) to (7.5293272 7.5293272 7.5200128)
  orthogonal box = (0.05921682 0.05921682 0.05921682) to (7.5293272 7.5293272 7.5293272)

run 1
WARNING: No fixes with time integration, atoms won't move (src/verlet.cpp:60)
Per MPI rank memory allocation (min/avg/max) = 8.515 | 8.517 | 8.518 Mbytes
   Step         PotEng         TotEng           Lx             Ly             Lz           Volume         Press           Pxx            Pyy            Pzz      
        79  -105.50376     -105.50376      7.4701104      7.4701104      7.4701104      416.8512       22333.576      22333.576      22333.576      22333.576    
        80  -105.50376     -105.50376      7.4701104      7.4701104      7.4701104      416.8512       22333.576      22333.576      22333.576      22333.576    
Loop time of 0.00023425 on 8 procs for 1 steps with 26 atoms

Performance: 368.837 ns/day, 0.065 hours/ns, 4268.943 timesteps/s, 110.993 katom-step/s
0.0% CPU use with 8 MPI tasks x 1 OpenMP threads

MPI task timing breakdown:
Section |  min time  |  avg time  |  max time  |%varavg| %total
---------------------------------------------------------------
Pair    | 0.000154   | 0.00016625 | 0.000191   |   0.0 | 70.97
Neigh   | 0          | 0          | 0          |   0.0 |  0.00
Comm    | 2e-05      | 4.3875e-05 | 5.6e-05    |   0.0 | 18.73
Output  | 1.6e-05    | 1.75e-05   | 2e-05      |   0.0 |  7.47
Modify  | 0          | 2.5e-07    | 1e-06      |   0.0 |  0.11
Other   |            | 6.375e-06  |            |       |  2.72

Nlocal:           3.25 ave           5 max           2 min
Histogram: 4 0 0 0 0 0 2 0 0 2
Nghost:         312.75 ave         314 max         311 min
Histogram: 2 0 0 2 0 0 0 0 0 4
Neighs:          122.5 ave         186 max          75 min
Histogram: 4 0 0 0 0 0 1 1 0 2
FullNghs:          245 ave         380 max         150 min
Histogram: 4 0 0 0 0 0 2 0 0 2

Total # of neighbors = 1960
Ave neighs/atom = 75.384615
Neighbor list builds = 0
Dangerous builds = 0
variable  natoms equal "count(all)"
variable xlength equal "lx"
variable  volume equal "vol"
variable  etotal equal "etotal"
variable    ecoh equal "-pe/v_natoms"
print "${xlength}, ${volume}, ${etotal}, ${ecoh}" append lattice_cohesive_energy.txt screen no

next i
jump SELF loop

change_box all x scale 1.0025 y scale 1.0025 z scale 1.0025 remap
Changing box ...
  orthogonal box = (0.049879182 0.05921682 0.05921682) to (7.5386648 7.5293272 7.5293272)
  orthogonal box = (0.049879182 0.049879182 0.05921682) to (7.5386648 7.5386648 7.5293272)
  orthogonal box = (0.049879182 0.049879182 0.049879182) to (7.5386648 7.5386648 7.5386648)

run 1
WARNING: No fixes with time integration, atoms won't move (src/verlet.cpp:60)
Per MPI rank memory allocation (min/avg/max) = 8.515 | 8.517 | 8.518 Mbytes
   Step         PotEng         TotEng           Lx             Ly             Lz           Volume         Press           Pxx            Pyy            Pzz      
        80  -105.53929     -105.53929      7.4887856      7.4887856      7.4887856      419.9854       14056.92       14056.92       14056.92       14056.92     
        81  -105.53929     -105.53929      7.4887856      7.4887856      7.4887856      419.9854       14056.92       14056.92       14056.92       14056.92     
Loop time of 0.000177375 on 8 procs for 1 steps with 26 atoms

Performance: 487.104 ns/day, 0.049 hours/ns, 5637.773 timesteps/s, 146.582 katom-step/s
0.0% CPU use with 8 MPI tasks x 1 OpenMP threads

MPI task timing breakdown:
Section |  min time  |  avg time  |  max time  |%varavg| %total
---------------------------------------------------------------
Pair    | 0.000122   | 0.0001285  | 0.000139   |   0.0 | 72.45
Neigh   | 0          | 0          | 0          |   0.0 |  0.00
Comm    | 1.7e-05    | 2.7375e-05 | 3.4e-05    |   0.0 | 15.43
Output  | 1.4e-05    | 1.4625e-05 | 1.6e-05    |   0.0 |  8.25
Modify  | 0          | 2.5e-07    | 1e-06      |   0.0 |  0.14
Other   |            | 6.625e-06  |            |       |  3.74

Nlocal:           3.25 ave           5 max           2 min
Histogram: 4 0 0 0 0 0 2 0 0 2
Nghost:         312.75 ave         314 max         311 min
Histogram: 2 0 0 2 0 0 0 0 0 4
Neighs:          110.5 ave         165 max          66 min
Histogram: 3 1 0 0 0 0 1 0 1 2
FullNghs:          221 ave         332 max         138 min
Histogram: 4 0 0 0 0 0 0 2 0 2

Total # of neighbors = 1768
Ave neighs/atom = 68
Neighbor list builds = 0
Dangerous builds = 0
variable  natoms equal "count(all)"
variable xlength equal "lx"
variable  volume equal "vol"
variable  etotal equal "etotal"
variable    ecoh equal "-pe/v_natoms"
print "${xlength}, ${volume}, ${etotal}, ${ecoh}" append lattice_cohesive_energy.txt screen no

next i
jump SELF loop

change_box all x scale 1.0025 y scale 1.0025 z scale 1.0025 remap
Changing box ...
  orthogonal box = (0.0405182 0.049879182 0.049879182) to (7.5480258 7.5386648 7.5386648)
  orthogonal box = (0.0405182 0.0405182 0.049879182) to (7.5480258 7.5480258 7.5386648)
  orthogonal box = (0.0405182 0.0405182 0.0405182) to (7.5480258 7.5480258 7.5480258)

run 1
WARNING: No fixes with time integration, atoms won't move (src/verlet.cpp:60)
Per MPI rank memory allocation (min/avg/max) = 8.515 | 8.517 | 8.518 Mbytes
   Step         PotEng         TotEng           Lx             Ly             Lz           Volume         Press           Pxx            Pyy            Pzz      
        81  -105.55906     -105.55906      7.5075076      7.5075076      7.5075076      423.14318      6058.3563      6058.3563      6058.3563      6058.3563    
        82  -105.55906     -105.55906      7.5075076      7.5075076      7.5075076      423.14318      6058.3563      6058.3563      6058.3563      6058.3563    
Loop time of 0.000214 on 8 procs for 1 steps with 26 atoms

Performance: 403.738 ns/day, 0.059 hours/ns, 4672.897 timesteps/s, 121.495 katom-step/s
0.0% CPU use with 8 MPI tasks x 1 OpenMP threads

MPI task timing breakdown:
Section |  min time  |  avg time  |  max time  |%varavg| %total
---------------------------------------------------------------
Pair    | 0.00013    | 0.0001455  | 0.000167   |   0.0 | 67.99
Neigh   | 0          | 0          | 0          |   0.0 |  0.00
Comm    | 2e-05      | 4.1375e-05 | 5.8e-05    |   0.0 | 19.33
Output  | 1.5e-05    | 1.7375e-05 | 1.9e-05    |   0.0 |  8.12
Modify  | 0          | 3.75e-07   | 1e-06      |   0.0 |  0.18
Other   |            | 9.375e-06  |            |       |  4.38

Nlocal:           3.25 ave           5 max           2 min
Histogram: 4 0 0 0 0 0 2 0 0 2
Nghost:         312.75 ave         314 max         311 min
Histogram: 2 0 0 2 0 0 0 0 0 4
Neighs:           97.5 ave         145 max          58 min
Histogram: 3 1 0 0 0 0 1 0 1 2
FullNghs:          195 ave         292 max         122 min
Histogram: 4 0 0 0 0 0 0 2 0 2

Total # of neighbors = 1560
Ave neighs/atom = 60
Neighbor list builds = 0
Dangerous builds = 0
variable  natoms equal "count(all)"
variable xlength equal "lx"
variable  volume equal "vol"
variable  etotal equal "etotal"
variable    ecoh equal "-pe/v_natoms"
print "${xlength}, ${volume}, ${etotal}, ${ecoh}" append lattice_cohesive_energy.txt screen no

next i
jump SELF loop

change_box all x scale 1.0025 y scale 1.0025 z scale 1.0025 remap
Changing box ...
  orthogonal box = (0.031133816 0.0405182 0.0405182) to (7.5574102 7.5480258 7.5480258)
  orthogonal box = (0.031133816 0.031133816 0.0405182) to (7.5574102 7.5574102 7.5480258)
  orthogonal box = (0.031133816 0.031133816 0.031133816) to (7.5574102 7.5574102 7.5574102)

run 1
WARNING: No fixes with time integration, atoms won't move (src/verlet.cpp:60)
Per MPI rank memory allocation (min/avg/max) = 8.515 | 8.517 | 8.518 Mbytes
   Step         PotEng         TotEng           Lx             Ly             Lz           Volume         Press           Pxx            Pyy            Pzz      
        82  -105.56337     -105.56337      7.5262764      7.5262764      7.5262764      426.32469     -1668.6676     -1668.6676     -1668.6676     -1668.6676    
        83  -105.56337     -105.56337      7.5262764      7.5262764      7.5262764      426.32469     -1668.6676     -1668.6676     -1668.6676     -1668.6676    
Loop time of 0.000205375 on 8 procs for 1 steps with 26 atoms

Performance: 420.694 ns/day, 0.057 hours/ns, 4869.142 timesteps/s, 126.598 katom-step/s
0.0% CPU use with 8 MPI tasks x 1 OpenMP threads

MPI task timing breakdown:
Section |  min time  |  avg time  |  max time  |%varavg| %total
---------------------------------------------------------------
Pair    | 0.000128   | 0.00013975 | 0.000161   |   0.0 | 68.05
Neigh   | 0          | 0          | 0          |   0.0 |  0.00
Comm    | 2e-05      | 4e-05      | 5.3e-05    |   0.0 | 19.48
Output  | 1.5e-05    | 1.675e-05  | 1.9e-05    |   0.0 |  8.16
Modify  | 0          | 0          | 0          |   0.0 |  0.00
Other   |            | 8.875e-06  |            |       |  4.32

Nlocal:           3.25 ave           5 max           2 min
Histogram: 4 0 0 0 0 0 2 0 0 2
Nghost:         312.75 ave         314 max         311 min
Histogram: 2 0 0 2 0 0 0 0 0 4
Neighs:           91.5 ave         135 max          56 min
Histogram: 4 0 0 0 0 0 0 1 1 2
FullNghs:          183 ave         276 max         114 min
Histogram: 4 0 0 0 0 0 0 2 0 2

Total # of neighbors = 1464
Ave neighs/atom = 56.307692
Neighbor list builds = 0
Dangerous builds = 0
variable  natoms equal "count(all)"
variable xlength equal "lx"
variable  volume equal "vol"
variable  etotal equal "etotal"
variable    ecoh equal "-pe/v_natoms"
print "${xlength}, ${volume}, ${etotal}, ${ecoh}" append lattice_cohesive_energy.txt screen no

next i
jump SELF loop

change_box all x scale 1.0025 y scale 1.0025 z scale 1.0025 remap
Changing box ...
  orthogonal box = (0.02172597 0.031133816 0.031133816) to (7.566818 7.5574102 7.5574102)
  orthogonal box = (0.02172597 0.02172597 0.031133816) to (7.566818 7.566818 7.5574102)
  orthogonal box = (0.02172597 0.02172597 0.02172597) to (7.566818 7.566818 7.566818)

run 1
WARNING: No fixes with time integration, atoms won't move (src/verlet.cpp:60)
Per MPI rank memory allocation (min/avg/max) = 8.515 | 8.517 | 8.518 Mbytes
   Step         PotEng         TotEng           Lx             Ly             Lz           Volume         Press           Pxx            Pyy            Pzz      
        83  -105.55251     -105.55251      7.5450921      7.5450921      7.5450921      429.53013     -9130.5563     -9130.5563     -9130.5563     -9130.5563    
        84  -105.55251     -105.55251      7.5450921      7.5450921      7.5450921      429.53013     -9130.5563     -9130.5563     -9130.5563     -9130.5563    
Loop time of 0.000197125 on 8 procs for 1 steps with 26 atoms

Performance: 438.301 ns/day, 0.055 hours/ns, 5072.923 timesteps/s, 131.896 katom-step/s
0.0% CPU use with 8 MPI tasks x 1 OpenMP threads

MPI task timing breakdown:
Section |  min time  |  avg time  |  max time  |%varavg| %total
---------------------------------------------------------------
Pair    | 0.000122   | 0.00013313 | 0.000154   |   0.0 | 67.53
Neigh   | 0          | 0          | 0          |   0.0 |  0.00
Comm    | 2e-05      | 3.9375e-05 | 5.1e-05    |   0.0 | 19.97
Output  | 1.5e-05    | 1.6125e-05 | 1.8e-05    |   0.0 |  8.18
Modify  | 0          | 1.25e-07   | 1e-06      |   0.0 |  0.06
Other   |            | 8.375e-06  |            |       |  4.25

Nlocal:           3.25 ave           5 max           2 min
Histogram: 4 0 0 0 0 0 2 0 0 2
Nghost:         312.75 ave         314 max         311 min
Histogram: 2 0 0 2 0 0 0 0 0 4
Neighs:           91.5 ave         135 max          56 min
Histogram: 4 0 0 0 0 0 0 1 1 2
FullNghs:          183 ave         276 max         114 min
Histogram: 4 0 0 0 0 0 0 2 0 2

Total # of neighbors = 1464
Ave neighs/atom = 56.307692
Neighbor list builds = 0
Dangerous builds = 0
variable  natoms equal "count(all)"
variable xlength equal "lx"
variable  volume equal "vol"
variable  etotal equal "etotal"
variable    ecoh equal "-pe/v_natoms"
print "${xlength}, ${volume}, ${etotal}, ${ecoh}" append lattice_cohesive_energy.txt screen no

next i
jump SELF loop

change_box all x scale 1.0025 y scale 1.0025 z scale 1.0025 remap
Changing box ...
  orthogonal box = (0.012294605 0.02172597 0.02172597) to (7.5762494 7.566818 7.566818)
  orthogonal box = (0.012294605 0.012294605 0.02172597) to (7.5762494 7.5762494 7.566818)
  orthogonal box = (0.012294605 0.012294605 0.012294605) to (7.5762494 7.5762494 7.5762494)

run 1
WARNING: No fixes with time integration, atoms won't move (src/verlet.cpp:60)
Per MPI rank memory allocation (min/avg/max) = 8.515 | 8.517 | 8.518 Mbytes
   Step         PotEng         TotEng           Lx             Ly             Lz           Volume         Press           Pxx            Pyy            Pzz      
        84  -105.52679     -105.52679      7.5639548      7.5639548      7.5639548      432.75966     -16333.624     -16333.624     -16333.624     -16333.624    
        85  -105.52679     -105.52679      7.5639548      7.5639548      7.5639548      432.75966     -16333.624     -16333.624     -16333.624     -16333.624    
Loop time of 0.000195875 on 8 procs for 1 steps with 26 atoms

Performance: 441.098 ns/day, 0.054 hours/ns, 5105.297 timesteps/s, 132.738 katom-step/s
0.0% CPU use with 8 MPI tasks x 1 OpenMP threads

MPI task timing breakdown:
Section |  min time  |  avg time  |  max time  |%varavg| %total
---------------------------------------------------------------
Pair    | 0.000121   | 0.00013262 | 0.000154   |   0.0 | 67.71
Neigh   | 0          | 0          | 0          |   0.0 |  0.00
Comm    | 1.8e-05    | 3.925e-05  | 5.1e-05    |   0.0 | 20.04
Output  | 1.5e-05    | 1.625e-05  | 1.7e-05    |   0.0 |  8.30
Modify  | 0          | 1.25e-07   | 1e-06      |   0.0 |  0.06
Other   |            | 7.625e-06  |            |       |  3.89

Nlocal:           3.25 ave           5 max           2 min
Histogram: 4 0 0 0 0 0 2 0 0 2
Nghost:         312.75 ave         314 max         311 min
Histogram: 2 0 0 2 0 0 0 0 0 4
Neighs:           91.5 ave         135 max          56 min
Histogram: 4 0 0 0 0 0 0 1 1 2
FullNghs:          183 ave         276 max         114 min
Histogram: 4 0 0 0 0 0 0 2 0 2

Total # of neighbors = 1464
Ave neighs/atom = 56.307692
Neighbor list builds = 0
Dangerous builds = 0
variable  natoms equal "count(all)"
variable xlength equal "lx"
variable  volume equal "vol"
variable  etotal equal "etotal"
variable    ecoh equal "-pe/v_natoms"
print "${xlength}, ${volume}, ${etotal}, ${ecoh}" append lattice_cohesive_energy.txt screen no

next i
jump SELF loop

change_box all x scale 1.0025 y scale 1.0025 z scale 1.0025 remap
Changing box ...
  orthogonal box = (0.0028396618 0.012294605 0.012294605) to (7.5857043 7.5762494 7.5762494)
  orthogonal box = (0.0028396618 0.0028396618 0.012294605) to (7.5857043 7.5857043 7.5762494)
  orthogonal box = (0.0028396618 0.0028396618 0.0028396618) to (7.5857043 7.5857043 7.5857043)

run 1
WARNING: No fixes with time integration, atoms won't move (src/verlet.cpp:60)
Per MPI rank memory allocation (min/avg/max) = 8.515 | 8.517 | 8.518 Mbytes
   Step         PotEng         TotEng           Lx             Ly             Lz           Volume         Press           Pxx            Pyy            Pzz      
        85  -105.48651     -105.48651      7.5828647      7.5828647      7.5828647      436.01348     -23284.05      -23284.05      -23284.05      -23284.05     
        86  -105.48651     -105.48651      7.5828647      7.5828647      7.5828647      436.01348     -23284.05      -23284.05      -23284.05      -23284.05     
Loop time of 0.000192625 on 8 procs for 1 steps with 26 atoms

Performance: 448.540 ns/day, 0.054 hours/ns, 5191.434 timesteps/s, 134.977 katom-step/s
0.0% CPU use with 8 MPI tasks x 1 OpenMP threads

MPI task timing breakdown:
Section |  min time  |  avg time  |  max time  |%varavg| %total
---------------------------------------------------------------
Pair    | 0.000118   | 0.0001295  | 0.000151   |   0.0 | 67.23
Neigh   | 0          | 0          | 0          |   0.0 |  0.00
Comm    | 1.8e-05    | 3.8875e-05 | 5.1e-05    |   0.0 | 20.18
Output  | 1.5e-05    | 1.6125e-05 | 1.8e-05    |   0.0 |  8.37
Modify  | 0          | 0          | 0          |   0.0 |  0.00
Other   |            | 8.125e-06  |            |       |  4.22

Nlocal:           3.25 ave           5 max           2 min
Histogram: 4 0 0 0 0 0 2 0 0 2
Nghost:         312.75 ave         314 max         311 min
Histogram: 2 0 0 2 0 0 0 0 0 4
Neighs:           91.5 ave         135 max          56 min
Histogram: 4 0 0 0 0 0 0 1 1 2
FullNghs:          183 ave         276 max         114 min
Histogram: 4 0 0 0 0 0 0 2 0 2

Total # of neighbors = 1464
Ave neighs/atom = 56.307692
Neighbor list builds = 0
Dangerous builds = 0
variable  natoms equal "count(all)"
variable xlength equal "lx"
variable  volume equal "vol"
variable  etotal equal "etotal"
variable    ecoh equal "-pe/v_natoms"
print "${xlength}, ${volume}, ${etotal}, ${ecoh}" append lattice_cohesive_energy.txt screen no

next i
jump SELF loop

change_box all x scale 1.0025 y scale 1.0025 z scale 1.0025 remap
Changing box ...
  orthogonal box = (-0.006638919 0.0028396618 0.0028396618) to (7.5951829 7.5857043 7.5857043)
  orthogonal box = (-0.006638919 -0.006638919 0.0028396618) to (7.5951829 7.5951829 7.5857043)
  orthogonal box = (-0.006638919 -0.006638919 -0.006638919) to (7.5951829 7.5951829 7.5951829)

run 1
WARNING: No fixes with time integration, atoms won't move (src/verlet.cpp:60)
Per MPI rank memory allocation (min/avg/max) = 8.515 | 8.517 | 8.518 Mbytes
   Step         PotEng         TotEng           Lx             Ly             Lz           Volume         Press           Pxx            Pyy            Pzz      
        86  -105.43196     -105.43196      7.6018218      7.6018218      7.6018218      439.29176     -29987.876     -29987.876     -29987.876     -29987.876    
[...]
Neigh   | 0          | 0          | 0          |   0.0 |  0.00
Comm    | 2.2e-05    | 5.875e-05  | 8.2e-05    |   0.0 | 19.50
Output  | 3.4e-05    | 3.575e-05  | 3.8e-05    |   0.0 | 11.87
Modify  | 0          | 2.5e-07    | 1e-06      |   0.0 |  0.08
Other   |            | 9.875e-06  |            |       |  3.28

Nlocal:           3.25 ave           5 max           2 min
Histogram: 4 0 0 0 0 0 2 0 0 2
Nghost:         312.75 ave         314 max         311 min
Histogram: 2 0 0 2 0 0 0 0 0 4
Neighs:           91.5 ave         135 max          56 min
Histogram: 4 0 0 0 0 0 0 1 1 2
FullNghs:          183 ave         276 max         114 min
Histogram: 4 0 0 0 0 0 0 2 0 2

Total # of neighbors = 1464
Ave neighs/atom = 56.307692
Neighbor list builds = 0
Dangerous builds = 0
variable  natoms equal "count(all)"
variable xlength equal "lx"
variable  volume equal "vol"
variable  etotal equal "etotal"
variable    ecoh equal "-pe/v_natoms"
print "${xlength}, ${volume}, ${etotal}, ${ecoh}" append lattice_cohesive_energy.txt screen no

next i
jump SELF loop

change_box all x scale 1.0025 y scale 1.0025 z scale 1.0025 remap
Changing box ...
  orthogonal box = (-0.14185434 -0.13203856 -0.13203856) to (7.7303983 7.7205826 7.7205826)
  orthogonal box = (-0.14185434 -0.14185434 -0.13203856) to (7.7303983 7.7303983 7.7205826)
  orthogonal box = (-0.14185434 -0.14185434 -0.14185434) to (7.7303983 7.7303983 7.7303983)

run 1
WARNING: No fixes with time integration, atoms won't move (src/verlet.cpp:60)
Per MPI rank memory allocation (min/avg/max) = 8.515 | 8.517 | 8.518 Mbytes
   Step         PotEng         TotEng           Lx             Ly             Lz           Volume         Press           Pxx            Pyy            Pzz      
       100  -103.32622     -103.32622      7.8722527      7.8722527      7.8722527      487.86209     -101080.02     -101080.02     -101080.02     -101080.02    
       101  -103.32622     -103.32622      7.8722527      7.8722527      7.8722527      487.86209     -101080.02     -101080.02     -101080.02     -101080.02    
Loop time of 0.000251625 on 8 procs for 1 steps with 26 atoms

Performance: 343.368 ns/day, 0.070 hours/ns, 3974.168 timesteps/s, 103.328 katom-step/s
0.0% CPU use with 8 MPI tasks x 1 OpenMP threads

MPI task timing breakdown:
Section |  min time  |  avg time  |  max time  |%varavg| %total
---------------------------------------------------------------
Pair    | 0.000166   | 0.00018038 | 0.000205   |   0.0 | 71.68
Neigh   | 0          | 0          | 0          |   0.0 |  0.00
Comm    | 2e-05      | 4.375e-05  | 5.9e-05    |   0.0 | 17.39
Output  | 1.7e-05    | 1.8375e-05 | 2e-05      |   0.0 |  7.30
Modify  | 0          | 2.5e-07    | 1e-06      |   0.0 |  0.10
Other   |            | 8.875e-06  |            |       |  3.53

Nlocal:           3.25 ave           5 max           2 min
Histogram: 4 0 0 0 0 0 2 0 0 2
Nghost:         312.75 ave         314 max         311 min
Histogram: 2 0 0 2 0 0 0 0 0 4
Neighs:           91.5 ave         135 max          56 min
Histogram: 4 0 0 0 0 0 0 1 1 2
FullNghs:          183 ave         276 max         114 min
Histogram: 4 0 0 0 0 0 0 2 0 2

Total # of neighbors = 1464
Ave neighs/atom = 56.307692
Neighbor list builds = 0
Dangerous builds = 0
variable  natoms equal "count(all)"
variable xlength equal "lx"
variable  volume equal "vol"
variable  etotal equal "etotal"
variable    ecoh equal "-pe/v_natoms"
print "${xlength}, ${volume}, ${etotal}, ${ecoh}" append lattice_cohesive_energy.txt screen no

next i
jump SELF loop

change_box all x scale 1.0025 y scale 1.0025 z scale 1.0025 remap
Changing box ...
  orthogonal box = (-0.15169465 -0.14185434 -0.14185434) to (7.7402387 7.7303983 7.7303983)
  orthogonal box = (-0.15169465 -0.15169465 -0.14185434) to (7.7402387 7.7402387 7.7303983)
  orthogonal box = (-0.15169465 -0.15169465 -0.15169465) to (7.7402387 7.7402387 7.7402387)

run 1
WARNING: No fixes with time integration, atoms won't move (src/verlet.cpp:60)
Per MPI rank memory allocation (min/avg/max) = 8.515 | 8.517 | 8.518 Mbytes
   Step         PotEng         TotEng           Lx             Ly             Lz           Volume         Press           Pxx            Pyy            Pzz      
       101  -103.09057     -103.09057      7.8919333      7.8919333      7.8919333      491.53021     -104737.86     -104737.86     -104737.86     -104737.86    
       102  -103.09057     -103.09057      7.8919333      7.8919333      7.8919333      491.53021     -104737.86     -104737.86     -104737.86     -104737.86    
Loop time of 0.000245875 on 8 procs for 1 steps with 26 atoms

Performance: 351.398 ns/day, 0.068 hours/ns, 4067.107 timesteps/s, 105.745 katom-step/s
0.0% CPU use with 8 MPI tasks x 1 OpenMP threads

MPI task timing breakdown:
Section |  min time  |  avg time  |  max time  |%varavg| %total
---------------------------------------------------------------
Pair    | 0.000155   | 0.00017287 | 0.000199   |   0.0 | 70.31
Neigh   | 0          | 0          | 0          |   0.0 |  0.00
Comm    | 2.1e-05    | 4.6375e-05 | 6.5e-05    |   0.0 | 18.86
Output  | 1.6e-05    | 1.7875e-05 | 1.9e-05    |   0.0 |  7.27
Modify  | 0          | 1.25e-07   | 1e-06      |   0.0 |  0.05
Other   |            | 8.625e-06  |            |       |  3.51

Nlocal:           3.25 ave           5 max           2 min
Histogram: 4 0 0 0 0 0 2 0 0 2
Nghost:         312.75 ave         314 max         311 min
Histogram: 2 0 0 2 0 0 0 0 0 4
Neighs:           91.5 ave         135 max          56 min
Histogram: 4 0 0 0 0 0 0 1 1 2
FullNghs:          183 ave         276 max         114 min
Histogram: 4 0 0 0 0 0 0 2 0 2

Total # of neighbors = 1464
Ave neighs/atom = 56.307692
Neighbor list builds = 0
Dangerous builds = 0
variable  natoms equal "count(all)"
variable xlength equal "lx"
variable  volume equal "vol"
variable  etotal equal "etotal"
variable    ecoh equal "-pe/v_natoms"
print "${xlength}, ${volume}, ${etotal}, ${ecoh}" append lattice_cohesive_energy.txt screen no

next i
jump SELF loop

change_box all x scale 1.0025 y scale 1.0025 z scale 1.0025 remap
Changing box ...
  orthogonal box = (-0.16155957 -0.15169465 -0.15169465) to (7.7501036 7.7402387 7.7402387)
  orthogonal box = (-0.16155957 -0.16155957 -0.15169465) to (7.7501036 7.7501036 7.7402387)
  orthogonal box = (-0.16155957 -0.16155957 -0.16155957) to (7.7501036 7.7501036 7.7501036)

run 1
WARNING: No fixes with time integration, atoms won't move (src/verlet.cpp:60)
Per MPI rank memory allocation (min/avg/max) = 8.515 | 8.517 | 8.518 Mbytes
   Step         PotEng         TotEng           Lx             Ly             Lz           Volume         Press           Pxx            Pyy            Pzz      
       102  -102.84491     -102.84491      7.9116631      7.9116631      7.9116631      495.22591     -108231.52     -108231.52     -108231.52     -108231.52    
       103  -102.84491     -102.84491      7.9116631      7.9116631      7.9116631      495.22591     -108231.52     -108231.52     -108231.52     -108231.52    
Loop time of 0.000243375 on 8 procs for 1 steps with 26 atoms

Performance: 355.008 ns/day, 0.068 hours/ns, 4108.885 timesteps/s, 106.831 katom-step/s
0.0% CPU use with 8 MPI tasks x 1 OpenMP threads

MPI task timing breakdown:
Section |  min time  |  avg time  |  max time  |%varavg| %total
---------------------------------------------------------------
Pair    | 0.000154   | 0.00017188 | 0.000198   |   0.0 | 70.62
Neigh   | 0          | 0          | 0          |   0.0 |  0.00
Comm    | 2e-05      | 4.475e-05  | 6.3e-05    |   0.0 | 18.39
Output  | 1.6e-05    | 1.8125e-05 | 2e-05      |   0.0 |  7.45
Modify  | 0          | 2.5e-07    | 1e-06      |   0.0 |  0.10
Other   |            | 8.375e-06  |            |       |  3.44

Nlocal:           3.25 ave           5 max           2 min
Histogram: 4 0 0 0 0 0 2 0 0 2
Nghost:         312.75 ave         314 max         311 min
Histogram: 2 0 0 2 0 0 0 0 0 4
Neighs:           91.5 ave         135 max          56 min
Histogram: 4 0 0 0 0 0 0 1 1 2
FullNghs:          183 ave         276 max         114 min
Histogram: 4 0 0 0 0 0 0 2 0 2

Total # of neighbors = 1464
Ave neighs/atom = 56.307692
Neighbor list builds = 0
Dangerous builds = 0
variable  natoms equal "count(all)"
variable xlength equal "lx"
variable  volume equal "vol"
variable  etotal equal "etotal"
variable    ecoh equal "-pe/v_natoms"
print "${xlength}, ${volume}, ${etotal}, ${ecoh}" append lattice_cohesive_energy.txt screen no

next i
jump SELF loop

change_box all x scale 1.0025 y scale 1.0025 z scale 1.0025 remap
Changing box ...
  orthogonal box = (-0.17144915 -0.16155957 -0.16155957) to (7.7599931 7.7501036 7.7501036)
  orthogonal box = (-0.17144915 -0.17144915 -0.16155957) to (7.7599931 7.7599931 7.7501036)
  orthogonal box = (-0.17144915 -0.17144915 -0.17144915) to (7.7599931 7.7599931 7.7599931)

run 1
WARNING: No fixes with time integration, atoms won't move (src/verlet.cpp:60)
Per MPI rank memory allocation (min/avg/max) = 8.515 | 8.517 | 8.518 Mbytes
   Step         PotEng         TotEng           Lx             Ly             Lz           Volume         Press           Pxx            Pyy            Pzz      
       103  -102.58947     -102.58947      7.9314423      7.9314423      7.9314423      498.9494      -111565.3      -111565.3      -111565.3      -111565.3     
       104  -102.58947     -102.58947      7.9314423      7.9314423      7.9314423      498.9494      -111565.3      -111565.3      -111565.3      -111565.3     
Loop time of 0.000244125 on 8 procs for 1 steps with 26 atoms

Performance: 353.917 ns/day, 0.068 hours/ns, 4096.262 timesteps/s, 106.503 katom-step/s
0.0% CPU use with 8 MPI tasks x 1 OpenMP threads

MPI task timing breakdown:
Section |  min time  |  avg time  |  max time  |%varavg| %total
---------------------------------------------------------------
Pair    | 0.000158   | 0.00017288 | 0.000197   |   0.0 | 70.81
Neigh   | 0          | 0          | 0          |   0.0 |  0.00
Comm    | 2.1e-05    | 4.4875e-05 | 6.1e-05    |   0.0 | 18.38
Output  | 1.6e-05    | 1.825e-05  | 2e-05      |   0.0 |  7.48
Modify  | 0          | 2.5e-07    | 1e-06      |   0.0 |  0.10
Other   |            | 7.875e-06  |            |       |  3.23

Nlocal:           3.25 ave           5 max           2 min
Histogram: 4 0 0 0 0 0 2 0 0 2
Nghost:         312.75 ave         314 max         311 min
Histogram: 2 0 0 2 0 0 0 0 0 4
Neighs:           91.5 ave         135 max          56 min
Histogram: 4 0 0 0 0 0 0 1 1 2
FullNghs:          183 ave         276 max         114 min
Histogram: 4 0 0 0 0 0 0 2 0 2

Total # of neighbors = 1464
Ave neighs/atom = 56.307692
Neighbor list builds = 0
Dangerous builds = 0
variable  natoms equal "count(all)"
variable xlength equal "lx"
variable  volume equal "vol"
variable  etotal equal "etotal"
variable    ecoh equal "-pe/v_natoms"
print "${xlength}, ${volume}, ${etotal}, ${ecoh}" append lattice_cohesive_energy.txt screen no

next i
jump SELF loop

change_box all x scale 1.0025 y scale 1.0025 z scale 1.0025 remap
Changing box ...
  orthogonal box = (-0.18136345 -0.17144915 -0.17144915) to (7.7699075 7.7599931 7.7599931)
  orthogonal box = (-0.18136345 -0.18136345 -0.17144915) to (7.7699075 7.7699075 7.7599931)
  orthogonal box = (-0.18136345 -0.18136345 -0.18136345) to (7.7699075 7.7699075 7.7699075)

run 1
WARNING: No fixes with time integration, atoms won't move (src/verlet.cpp:60)
Per MPI rank memory allocation (min/avg/max) = 8.515 | 8.517 | 8.518 Mbytes
   Step         PotEng         TotEng           Lx             Ly             Lz           Volume         Press           Pxx            Pyy            Pzz      
       104  -102.32449     -102.32449      7.9512709      7.9512709      7.9512709      502.70089     -114743.46     -114743.46     -114743.46     -114743.46    
       105  -102.32449     -102.32449      7.9512709      7.9512709      7.9512709      502.70089     -114743.46     -114743.46     -114743.46     -114743.46    
Loop time of 0.000241875 on 8 procs for 1 steps with 26 atoms

Performance: 357.209 ns/day, 0.067 hours/ns, 4134.367 timesteps/s, 107.494 katom-step/s
0.0% CPU use with 8 MPI tasks x 1 OpenMP threads

MPI task timing breakdown:
Section |  min time  |  avg time  |  max time  |%varavg| %total
---------------------------------------------------------------
Pair    | 0.000151   | 0.00016925 | 0.000195   |   0.0 | 69.97
Neigh   | 0          | 0          | 0          |   0.0 |  0.00
Comm    | 2.1e-05    | 4.5875e-05 | 6.3e-05    |   0.0 | 18.97
Output  | 1.6e-05    | 1.8375e-05 | 2.1e-05    |   0.0 |  7.60
Modify  | 0          | 1.25e-07   | 1e-06      |   0.0 |  0.05
Other   |            | 8.25e-06   |            |       |  3.41

Nlocal:           3.25 ave           5 max           2 min
Histogram: 4 0 0 0 0 0 2 0 0 2
Nghost:         312.75 ave         314 max         311 min
Histogram: 2 0 0 2 0 0 0 0 0 4
Neighs:           91.5 ave         135 max          56 min
Histogram: 4 0 0 0 0 0 0 1 1 2
FullNghs:          183 ave         276 max         114 min
Histogram: 4 0 0 0 0 0 0 2 0 2

Total # of neighbors = 1464
Ave neighs/atom = 56.307692
Neighbor list builds = 0
Dangerous builds = 0
variable  natoms equal "count(all)"
variable xlength equal "lx"
variable  volume equal "vol"
variable  etotal equal "etotal"
variable    ecoh equal "-pe/v_natoms"
print "${xlength}, ${volume}, ${etotal}, ${ecoh}" append lattice_cohesive_energy.txt screen no

next i
jump SELF loop

change_box all x scale 1.0025 y scale 1.0025 z scale 1.0025 remap
Changing box ...
  orthogonal box = (-0.19130254 -0.18136345 -0.18136345) to (7.7798465 7.7699075 7.7699075)
  orthogonal box = (-0.19130254 -0.19130254 -0.18136345) to (7.7798465 7.7798465 7.7699075)
  orthogonal box = (-0.19130254 -0.19130254 -0.19130254) to (7.7798465 7.7798465 7.7798465)

run 1
WARNING: No fixes with time integration, atoms won't move (src/verlet.cpp:60)
Per MPI rank memory allocation (min/avg/max) = 8.515 | 8.517 | 8.518 Mbytes
   Step         PotEng         TotEng           Lx             Ly             Lz           Volume         Press           Pxx            Pyy            Pzz      
       105  -102.05019     -102.05019      7.9711491      7.9711491      7.9711491      506.48058     -117770.12     -117770.12     -117770.12     -117770.12    
       106  -102.05019     -102.05019      7.9711491      7.9711491      7.9711491      506.48058     -117770.12     -117770.12     -117770.12     -117770.12    
Loop time of 0.00022725 on 8 procs for 1 steps with 26 atoms

Performance: 380.198 ns/day, 0.063 hours/ns, 4400.440 timesteps/s, 114.411 katom-step/s
0.0% CPU use with 8 MPI tasks x 1 OpenMP threads

MPI task timing breakdown:
Section |  min time  |  avg time  |  max time  |%varavg| %total
---------------------------------------------------------------
Pair    | 0.000146   | 0.000159   | 0.000182   |   0.0 | 69.97
Neigh   | 0          | 0          | 0          |   0.0 |  0.00
Comm    | 1.9e-05    | 4.1875e-05 | 5.5e-05    |   0.0 | 18.43
Output  | 1.6e-05    | 1.75e-05   | 1.9e-05    |   0.0 |  7.70
Modify  | 0          | 2.5e-07    | 1e-06      |   0.0 |  0.11
Other   |            | 8.625e-06  |            |       |  3.80

Nlocal:           3.25 ave           5 max           2 min
Histogram: 4 0 0 0 0 0 2 0 0 2
Nghost:         252.75 ave         254 max         251 min
Histogram: 2 0 0 2 0 0 0 0 0 4
Neighs:           91.5 ave         135 max          56 min
Histogram: 4 0 0 0 0 0 0 1 1 2
FullNghs:          183 ave         276 max         114 min
Histogram: 4 0 0 0 0 0 0 2 0 2

Total # of neighbors = 1464
Ave neighs/atom = 56.307692
Neighbor list builds = 0
Dangerous builds = 0
variable  natoms equal "count(all)"
variable xlength equal "lx"
variable  volume equal "vol"
variable  etotal equal "etotal"
variable    ecoh equal "-pe/v_natoms"
print "${xlength}, ${volume}, ${etotal}, ${ecoh}" append lattice_cohesive_energy.txt screen no

next i
jump SELF loop

change_box all x scale 1.0025 y scale 1.0025 z scale 1.0025 remap
Changing box ...
  orthogonal box = (-0.20126648 -0.19130254 -0.19130254) to (7.7898105 7.7798465 7.7798465)
  orthogonal box = (-0.20126648 -0.20126648 -0.19130254) to (7.7898105 7.7898105 7.7798465)
  orthogonal box = (-0.20126648 -0.20126648 -0.20126648) to (7.7898105 7.7898105 7.7898105)

run 1
WARNING: No fixes with time integration, atoms won't move (src/verlet.cpp:60)
Per MPI rank memory allocation (min/avg/max) = 8.515 | 8.517 | 8.518 Mbytes
   Step         PotEng         TotEng           Lx             Ly             Lz           Volume         Press           Pxx            Pyy            Pzz      
       106  -101.76682     -101.76682      7.991077       7.991077       7.991077       510.28868     -120649.36     -120649.36     -120649.36     -120649.36    
       107  -101.76682     -101.76682      7.991077       7.991077       7.991077       510.28868     -120649.36     -120649.36     -120649.36     -120649.36    
Loop time of 0.000187 on 8 procs for 1 steps with 26 atoms

Performance: 462.032 ns/day, 0.052 hours/ns, 5347.594 timesteps/s, 139.037 katom-step/s
0.0% CPU use with 8 MPI tasks x 1 OpenMP threads

MPI task timing breakdown:
Section |  min time  |  avg time  |  max time  |%varavg| %total
---------------------------------------------------------------
Pair    | 0.000116   | 0.00012762 | 0.000145   |   0.0 | 68.25
Neigh   | 0          | 0          | 0          |   0.0 |  0.00
Comm    | 1.8e-05    | 3.5e-05    | 4.7e-05    |   0.0 | 18.72
Output  | 1.5e-05    | 1.675e-05  | 1.9e-05    |   0.0 |  8.96
Modify  | 0          | 1.25e-07   | 1e-06      |   0.0 |  0.07
Other   |            | 7.5e-06    |            |       |  4.01

Nlocal:           3.25 ave           5 max           2 min
Histogram: 4 0 0 0 0 0 2 0 0 2
Nghost:         252.75 ave         254 max         251 min
Histogram: 2 0 0 2 0 0 0 0 0 4
Neighs:           91.5 ave         135 max          56 min
Histogram: 4 0 0 0 0 0 0 1 1 2
FullNghs:          183 ave         276 max         114 min
Histogram: 4 0 0 0 0 0 0 2 0 2

Total # of neighbors = 1464
Ave neighs/atom = 56.307692
Neighbor list builds = 0
Dangerous builds = 0
variable  natoms equal "count(all)"
variable xlength equal "lx"
variable  volume equal "vol"
variable  etotal equal "etotal"
variable    ecoh equal "-pe/v_natoms"
print "${xlength}, ${volume}, ${etotal}, ${ecoh}" append lattice_cohesive_energy.txt screen no

next i
jump SELF loop

print "-------------------------------------------------------------"
-------------------------------------------------------------
print "Show results of 1st step (Running Minimization)"
Show results of 1st step (Running Minimization)
print "The number of atoms = ${natoms};"
The number of atoms = 26;
print "The lattice constant, x (Angstoms) = ${x0};"
The lattice constant, x (Angstoms) = 7.99107695106126;
print "The lattice constant, y (Angstoms) = ${y0};"
The lattice constant, y (Angstoms) = 7.99107695106126;
print "The lattice constant, z (Angstoms) = ${z0};"
The lattice constant, z (Angstoms) = 7.99107695106126;
print "The volume (Angstoms^3) = ${v0};"
The volume (Angstoms^3) = 510.288684792558;
print "The total energy (eV) = ${etot0};"
The total energy (eV) = -101.766817312063;
print "The cohesive energy (eV/atom) = ${ecoh0};"
The cohesive energy (eV/atom) = 3.91410835815627;
print "-------------------------------------------------------------"
-------------------------------------------------------------
print "Simulations completed !"
Simulations completed !
Total wall time: 0:00:00
