LAMMPS (22 Dec 2022)
  using 1 OpenMP thread(s) per MPI task
Loaded 1 plugins from C:\Program Files\LAMMPS 64-bit 23Jun2022\plugins
Loaded 0 plugins from C:\Program Files\LAMMPS 64-bit 23Jun2022-MPI\plugins
Loaded 1 plugins from C:\Program Files\LAMMPS 64-bit 22Dec2022-MSMPI\plugins
Loaded 1 plugins from C:\Program Files\LAMMPS 64-bit 28Mar2023-MPI\plugins
#------------------------------------------------------------------------------------------
# LAMMPS 64-bit 22Dec2022-MSMPI
#------------------------------------------------------------------------------------------
clear
  using 1 OpenMP thread(s) per MPI task
Loaded 1 plugins from C:\Program Files\LAMMPS 64-bit 23Jun2022\plugins
Loaded 0 plugins from C:\Program Files\LAMMPS 64-bit 23Jun2022-MPI\plugins
Loaded 1 plugins from C:\Program Files\LAMMPS 64-bit 22Dec2022-MSMPI\plugins
Loaded 1 plugins from C:\Program Files\LAMMPS 64-bit 28Mar2023-MPI\plugins
#echo both
# ---------- Initializing Simulation ---------------------------------
units metal
dimension 3
boundary p p p
atom_style atomic
atom_modify map array

#read_data ./../../CoAl.data
#read_data ./../../Al12W.data
read_data ./../../Co3Al05W05_SQS-2.data
Reading data file ...
  orthogonal box = (0 0 0) to (7.296 7.296 7.296)
  2 by 2 by 2 MPI processor grid
  reading atoms ...
  32 atoms
  read_data CPU = 0.001 seconds

replicate 1 1 1
Replication is creating a 1x1x1 = 1 times larger system...
  orthogonal box = (0 0 0) to (7.296 7.296 7.296)
  2 by 2 by 2 MPI processor grid
  32 atoms
  replicate CPU = 0.000 seconds

# ---------- Defining the Interatomic Potential ---------------------
pair_style meam
#pair_coeff * * ./../../library.meam Co Al W ./../../CoAlW.meam Co Al
#pair_coeff * * ./../../library.meam Co Al W ./../../CoAlW.meam Al W
pair_coeff * * ./../../library.meam Co Al W ./../../CoAlW.meam Co Al W

# ---------- Running Minimization -------------------------------------
fix 1 all box/relax iso 0.0 vmax 0.001

thermo 10
thermo_style custom step pe etotal lx ly lz vol press pxx pyy pzz

min_style cg
minimize 1e-25 1e-25 5000 10000
Neighbor list info ...
  update: every = 1 steps, delay = 0 steps, check = yes
  max neighbors/atom: 2000, page size: 100000
  master list distance cutoff = 8.5
  ghost atom cutoff = 8.5
  binsize = 4.25, bins = 2 2 2
  2 neighbor lists, perpetual/occasional/extra = 2 0 0
  (1) pair meam, perpetual
      attributes: full, newton on
      pair build: full/bin/atomonly
      stencil: full/bin/3d
      bin: standard
  (2) pair meam, perpetual, half/full from (1)
      attributes: half, newton on
      pair build: halffull/newton
      stencil: none
      bin: none
Per MPI rank memory allocation (min/avg/max) = 9.718 | 9.718 | 9.718 Mbytes
   Step         PotEng         TotEng           Lx             Ly             Lz           Volume         Press           Pxx            Pyy            Pzz      
         0  -143.48829     -143.48829      7.296          7.296          7.296          388.37787     -13904.687     -13904.687     -13904.687     -13904.687    
        10  -143.62967     -143.62967      7.281408       7.281408       7.281408       386.05226     -3563.2851     -3563.2851     -3563.2851     -3563.2851    
        20  -143.85778     -143.85778      7.281408       7.281408       7.281408       386.05226     -5565.9333     -5565.9333     -5565.9333     -5565.9333    
        30  -144.0354      -144.0354       7.2747364      7.2747364      7.2747364      384.99207      370.14104      370.14104      370.14104      370.14104    
        36  -144.03542     -144.03542      7.2751405      7.2751405      7.2751405      385.05623      0.001482216    0.0014822161   0.001482216    0.001482216  
Loop time of 0.0186716 on 8 procs for 36 steps with 32 atoms

73.2% CPU use with 8 MPI tasks x 1 OpenMP threads

Minimization stats:
  Stopping criterion = energy tolerance
  Energy initial, next-to-last, final = 
     -143.488292103039  -144.035422010403  -144.035422010403
  Force two-norm initial, final = 10.574085 2.7999044e-06
  Force max component initial, final = 10.111756 1.0717414e-06
  Final line search alpha, max atom move = 1 1.0717414e-06
  Iterations, force evaluations = 36 49

MPI task timing breakdown:
Section |  min time  |  avg time  |  max time  |%varavg| %total
---------------------------------------------------------------
Pair    | 0.012965   | 0.013731   | 0.014229   |   0.4 | 73.54
Neigh   | 0          | 0          | 0          |   0.0 |  0.00
Comm    | 0.001788   | 0.0022782  | 0.003037   |   1.0 | 12.20
Output  | 4.4e-05    | 4.925e-05  | 5.4e-05    |   0.0 |  0.26
Modify  | 0          | 0          | 0          |   0.0 |  0.00
Other   |            | 0.002613   |            |       | 14.00

Nlocal:              4 ave           4 max           4 min
Histogram: 8 0 0 0 0 0 0 0 0 0
Nghost:            662 ave         662 max         662 min
Histogram: 8 0 0 0 0 0 0 0 0 0
Neighs:            400 ave         400 max         400 min
Histogram: 8 0 0 0 0 0 0 0 0 0
FullNghs:          800 ave         800 max         800 min
Histogram: 8 0 0 0 0 0 0 0 0 0

Total # of neighbors = 6400
Ave neighs/atom = 200
Neighbor list builds = 0
Dangerous builds = 0

variable  natoms equal "count(all)"
variable      x0 equal "lx"
variable      y0 equal "ly"
variable      z0 equal "lz"
variable      v0 equal "vol"
variable   etot0 equal "etotal"
variable   ecoh0 equal "-pe/v_natoms"

unfix 1
write_data ./../step2_elastic/data.in
System init for write_data ...

# ---------- For Equation of States -------------------------------------
change_box all x scale 0.94 y scale 0.94 z scale 0.94 remap
Changing box ...
  orthogonal box = (0.22868397 0.010429753 0.010429753) to (7.067316 7.2855702 7.2855702)
  orthogonal box = (0.22868397 0.22868397 0.010429753) to (7.067316 7.067316 7.2855702)
  orthogonal box = (0.22868397 0.22868397 0.22868397) to (7.067316 7.067316 7.067316)
run 1
WARNING: No fixes with time integration, atoms won't move (src/verlet.cpp:60)
Per MPI rank memory allocation (min/avg/max) = 8.594 | 8.596 | 8.6 Mbytes
   Step         PotEng         TotEng           Lx             Ly             Lz           Volume         Press           Pxx            Pyy            Pzz      
        36  -134.24549     -134.24549      6.8386321      6.8386321      6.8386321      319.82154      571937.07      571937.07      571937.07      571937.07    
        37  -134.24549     -134.24549      6.8386321      6.8386321      6.8386321      319.82154      571937.07      571937.07      571937.07      571937.07    
Loop time of 0.000471625 on 8 procs for 1 steps with 32 atoms

Performance: 183.196 ns/day, 0.131 hours/ns, 2120.329 timesteps/s, 67.851 katom-step/s
0.0% CPU use with 8 MPI tasks x 1 OpenMP threads

MPI task timing breakdown:
Section |  min time  |  avg time  |  max time  |%varavg| %total
---------------------------------------------------------------
Pair    | 0.000375   | 0.000388   | 0.000405   |   0.0 | 82.27
Neigh   | 0          | 0          | 0          |   0.0 |  0.00
Comm    | 4.6e-05    | 6.3e-05    | 7.6e-05    |   0.0 | 13.36
Output  | 1.4e-05    | 1.5625e-05 | 1.6e-05    |   0.0 |  3.31
Modify  | 0          | 2.5e-07    | 1e-06      |   0.0 |  0.05
Other   |            | 4.75e-06   |            |       |  1.01

Nlocal:              4 ave           5 max           3 min
Histogram: 1 0 0 0 0 6 0 0 0 1
Nghost:            761 ave         762 max         760 min
Histogram: 1 0 0 0 0 6 0 0 0 1
Neighs:            496 ave         642 max         362 min
Histogram: 1 0 0 0 5 1 0 0 0 1
FullNghs:          992 ave        1240 max         744 min
Histogram: 1 0 0 0 0 6 0 0 0 1

Total # of neighbors = 7936
Ave neighs/atom = 248
Neighbor list builds = 0
Dangerous builds = 0
print "# Lattice constant (Angstroms), Volume (Angstrom), Total energy (eV), Cohesive energy (eV/atom)" file lattice_cohesive_energy.txt screen no


# Loop over lattice constants
variable i loop 49 # Number of steps
label loop

change_box all x scale 1.0025 y scale 1.0025 z scale 1.0025 remap
Changing box ...
  orthogonal box = (0.22013568 0.22868397 0.22868397) to (7.0758643 7.067316 7.067316)
  orthogonal box = (0.22013568 0.22013568 0.22868397) to (7.0758643 7.0758643 7.067316)
  orthogonal box = (0.22013568 0.22013568 0.22013568) to (7.0758643 7.0758643 7.0758643)

run 1
WARNING: No fixes with time integration, atoms won't move (src/verlet.cpp:60)
Per MPI rank memory allocation (min/avg/max) = 8.649 | 8.653 | 8.678 Mbytes
   Step         PotEng         TotEng           Lx             Ly             Lz           Volume         Press           Pxx            Pyy            Pzz      
        37  -135.07944     -135.07944      6.8557286      6.8557286      6.8557286      322.22621      539550.42      539550.42      539550.42      539550.42    
        38  -135.07944     -135.07944      6.8557286      6.8557286      6.8557286      322.22621      539550.42      539550.42      539550.42      539550.42    
Loop time of 0.000608 on 8 procs for 1 steps with 32 atoms

Performance: 142.105 ns/day, 0.169 hours/ns, 1644.737 timesteps/s, 52.632 katom-step/s
0.0% CPU use with 8 MPI tasks x 1 OpenMP threads

MPI task timing breakdown:
Section |  min time  |  avg time  |  max time  |%varavg| %total
---------------------------------------------------------------
Pair    | 0.000524   | 0.00053737 | 0.000559   |   0.0 | 88.38
Neigh   | 0          | 0          | 0          |   0.0 |  0.00
Comm    | 3.3e-05    | 5.3875e-05 | 6.7e-05    |   0.0 |  8.86
Output  | 1.1e-05    | 1.1875e-05 | 1.3e-05    |   0.0 |  1.95
Modify  | 0          | 2.5e-07    | 1e-06      |   0.0 |  0.04
Other   |            | 4.625e-06  |            |       |  0.76

Nlocal:              4 ave          14 max           0 min
Histogram: 1 3 3 0 0 0 0 0 0 1
Nghost:            662 ave         666 max         652 min
Histogram: 1 0 0 0 0 0 0 3 3 1
Neighs:            496 ave        1736 max           0 min
Histogram: 1 3 3 0 0 0 0 0 0 1
FullNghs:          992 ave        3472 max           0 min
Histogram: 1 3 3 0 0 0 0 0 0 1

Total # of neighbors = 7936
Ave neighs/atom = 248
Neighbor list builds = 0
Dangerous builds = 0
variable  natoms equal "count(all)"
variable xlength equal "lx"
variable  volume equal "vol"
variable  etotal equal "etotal"
variable    ecoh equal "-pe/v_natoms"
print "${xlength}, ${volume}, ${etotal}, ${ecoh}" append lattice_cohesive_energy.txt screen no

next i
jump SELF loop

change_box all x scale 1.0025 y scale 1.0025 z scale 1.0025 remap
Changing box ...
  orthogonal box = (0.21156602 0.22013568 0.22013568) to (7.084434 7.0758643 7.0758643)
  orthogonal box = (0.21156602 0.21156602 0.22013568) to (7.084434 7.084434 7.0758643)
  orthogonal box = (0.21156602 0.21156602 0.21156602) to (7.084434 7.084434 7.084434)

run 1
WARNING: No fixes with time integration, atoms won't move (src/verlet.cpp:60)
Per MPI rank memory allocation (min/avg/max) = 8.649 | 8.653 | 8.678 Mbytes
   Step         PotEng         TotEng           Lx             Ly             Lz           Volume         Press           Pxx            Pyy            Pzz      
        38  -135.87139     -135.87139      6.872868       6.872868       6.872868       324.64895      508082.65      508082.65      508082.65      508082.65    
        39  -135.87139     -135.87139      6.872868       6.872868       6.872868       324.64895      508082.65      508082.65      508082.65      508082.65    
Loop time of 0.000603 on 8 procs for 1 steps with 32 atoms

Performance: 143.284 ns/day, 0.168 hours/ns, 1658.375 timesteps/s, 53.068 katom-step/s
0.0% CPU use with 8 MPI tasks x 1 OpenMP threads

MPI task timing breakdown:
Section |  min time  |  avg time  |  max time  |%varavg| %total
---------------------------------------------------------------
Pair    | 0.000512   | 0.00052613 | 0.000551   |   0.0 | 87.25
Neigh   | 0          | 0          | 0          |   0.0 |  0.00
Comm    | 3.4e-05    | 5.75e-05   | 7e-05      |   0.0 |  9.54
Output  | 1.2e-05    | 1.35e-05   | 1.5e-05    |   0.0 |  2.24
Modify  | 0          | 2.5e-07    | 1e-06      |   0.0 |  0.04
Other   |            | 5.625e-06  |            |       |  0.93

Nlocal:              4 ave          14 max           0 min
Histogram: 1 3 3 0 0 0 0 0 0 1
Nghost:            662 ave         666 max         652 min
Histogram: 1 0 0 0 0 0 0 3 3 1
Neighs:          494.5 ave        1731 max           0 min
Histogram: 1 3 3 0 0 0 0 0 0 1
FullNghs:          989 ave        3466 max           0 min
Histogram: 1 3 3 0 0 0 0 0 0 1

Total # of neighbors = 7912
Ave neighs/atom = 247.25
Neighbor list builds = 0
Dangerous builds = 0
variable  natoms equal "count(all)"
variable xlength equal "lx"
variable  volume equal "vol"
variable  etotal equal "etotal"
variable    ecoh equal "-pe/v_natoms"
print "${xlength}, ${volume}, ${etotal}, ${ecoh}" append lattice_cohesive_energy.txt screen no

next i
jump SELF loop

change_box all x scale 1.0025 y scale 1.0025 z scale 1.0025 remap
Changing box ...
  orthogonal box = (0.20297493 0.21156602 0.21156602) to (7.0930251 7.084434 7.084434)
  orthogonal box = (0.20297493 0.20297493 0.21156602) to (7.0930251 7.0930251 7.084434)
  orthogonal box = (0.20297493 0.20297493 0.20297493) to (7.0930251 7.0930251 7.0930251)

run 1
WARNING: No fixes with time integration, atoms won't move (src/verlet.cpp:60)
Per MPI rank memory allocation (min/avg/max) = 8.649 | 8.653 | 8.678 Mbytes
   Step         PotEng         TotEng           Lx             Ly             Lz           Volume         Press           Pxx            Pyy            Pzz      
        39  -136.62204     -136.62204      6.8900501      6.8900501      6.8900501      327.08991      477514.09      477514.09      477514.09      477514.09    
        40  -136.62204     -136.62204      6.8900501      6.8900501      6.8900501      327.08991      477514.09      477514.09      477514.09      477514.09    
Loop time of 0.00057675 on 8 procs for 1 steps with 32 atoms

Performance: 149.805 ns/day, 0.160 hours/ns, 1733.853 timesteps/s, 55.483 katom-step/s
0.0% CPU use with 8 MPI tasks x 1 OpenMP threads

MPI task timing breakdown:
Section |  min time  |  avg time  |  max time  |%varavg| %total
---------------------------------------------------------------
Pair    | 0.000491   | 0.000504   | 0.000527   |   0.0 | 87.39
Neigh   | 0          | 0          | 0          |   0.0 |  0.00
Comm    | 3.3e-05    | 5.45e-05   | 6.6e-05    |   0.0 |  9.45
Output  | 1.1e-05    | 1.175e-05  | 1.3e-05    |   0.0 |  2.04
Modify  | 0          | 3.75e-07   | 1e-06      |   0.0 |  0.07
Other   |            | 6.125e-06  |            |       |  1.06

Nlocal:              4 ave          14 max           0 min
Histogram: 1 3 3 0 0 0 0 0 0 1
Nghost:            662 ave         666 max         652 min
Histogram: 1 0 0 0 0 0 0 3 3 1
Neighs:          494.5 ave        1731 max           0 min
Histogram: 1 3 3 0 0 0 0 0 0 1
FullNghs:          989 ave        3466 max           0 min
Histogram: 1 3 3 0 0 0 0 0 0 1

Total # of neighbors = 7912
Ave neighs/atom = 247.25
Neighbor list builds = 0
Dangerous builds = 0
variable  natoms equal "count(all)"
variable xlength equal "lx"
variable  volume equal "vol"
variable  etotal equal "etotal"
variable    ecoh equal "-pe/v_natoms"
print "${xlength}, ${volume}, ${etotal}, ${ecoh}" append lattice_cohesive_energy.txt screen no

next i
jump SELF loop

change_box all x scale 1.0025 y scale 1.0025 z scale 1.0025 remap
Changing box ...
  orthogonal box = (0.19436237 0.20297493 0.20297493) to (7.1016376 7.0930251 7.0930251)
  orthogonal box = (0.19436237 0.19436237 0.20297493) to (7.1016376 7.1016376 7.0930251)
  orthogonal box = (0.19436237 0.19436237 0.19436237) to (7.1016376 7.1016376 7.1016376)

run 1
WARNING: No fixes with time integration, atoms won't move (src/verlet.cpp:60)
Per MPI rank memory allocation (min/avg/max) = 8.649 | 8.653 | 8.678 Mbytes
   Step         PotEng         TotEng           Lx             Ly             Lz           Volume         Press           Pxx            Pyy            Pzz      
        40  -137.33209     -137.33209      6.9072753      6.9072753      6.9072753      329.54922      447825.47      447825.47      447825.47      447825.47    
        41  -137.33209     -137.33209      6.9072753      6.9072753      6.9072753      329.54922      447825.47      447825.47      447825.47      447825.47    
Loop time of 0.000584125 on 8 procs for 1 steps with 32 atoms

Performance: 147.914 ns/day, 0.162 hours/ns, 1711.962 timesteps/s, 54.783 katom-step/s
0.0% CPU use with 8 MPI tasks x 1 OpenMP threads

MPI task timing breakdown:
Section |  min time  |  avg time  |  max time  |%varavg| %total
---------------------------------------------------------------
Pair    | 0.000501   | 0.00051275 | 0.000534   |   0.0 | 87.78
Neigh   | 0          | 0          | 0          |   0.0 |  0.00
Comm    | 3.4e-05    | 5.4125e-05 | 6.5e-05    |   0.0 |  9.27
Output  | 1.1e-05    | 1.25e-05   | 1.4e-05    |   0.0 |  2.14
Modify  | 0          | 1.25e-07   | 1e-06      |   0.0 |  0.02
Other   |            | 4.625e-06  |            |       |  0.79

Nlocal:              4 ave          14 max           0 min
Histogram: 1 3 3 0 0 0 0 0 0 1
Nghost:            662 ave         666 max         652 min
Histogram: 1 0 0 0 0 0 0 3 3 1
Neighs:            487 ave        1710 max           0 min
Histogram: 1 3 3 0 0 0 0 0 0 1
FullNghs:          974 ave        3436 max           0 min
Histogram: 1 3 3 0 0 0 0 0 0 1

Total # of neighbors = 7792
Ave neighs/atom = 243.5
Neighbor list builds = 0
Dangerous builds = 0
variable  natoms equal "count(all)"
variable xlength equal "lx"
variable  volume equal "vol"
variable  etotal equal "etotal"
variable    ecoh equal "-pe/v_natoms"
print "${xlength}, ${volume}, ${etotal}, ${ecoh}" append lattice_cohesive_energy.txt screen no

next i
jump SELF loop

change_box all x scale 1.0025 y scale 1.0025 z scale 1.0025 remap
Changing box ...
  orthogonal box = (0.18572827 0.19436237 0.19436237) to (7.1102717 7.1016376 7.1016376)
  orthogonal box = (0.18572827 0.18572827 0.19436237) to (7.1102717 7.1102717 7.1016376)
  orthogonal box = (0.18572827 0.18572827 0.18572827) to (7.1102717 7.1102717 7.1102717)

run 1
WARNING: No fixes with time integration, atoms won't move (src/verlet.cpp:60)
Per MPI rank memory allocation (min/avg/max) = 8.649 | 8.653 | 8.678 Mbytes
   Step         PotEng         TotEng           Lx             Ly             Lz           Volume         Press           Pxx            Pyy            Pzz      
        41  -138.00223     -138.00223      6.9245435      6.9245435      6.9245435      332.02703      418997.77      418997.77      418997.77      418997.77    
        42  -138.00223     -138.00223      6.9245435      6.9245435      6.9245435      332.02703      418997.77      418997.77      418997.77      418997.77    
Loop time of 0.0005825 on 8 procs for 1 steps with 32 atoms

Performance: 148.326 ns/day, 0.162 hours/ns, 1716.738 timesteps/s, 54.936 katom-step/s
0.0% CPU use with 8 MPI tasks x 1 OpenMP threads

MPI task timing breakdown:
Section |  min time  |  avg time  |  max time  |%varavg| %total
---------------------------------------------------------------
Pair    | 0.000483   | 0.00049912 | 0.000518   |   0.0 | 85.69
Neigh   | 0          | 0          | 0          |   0.0 |  0.00
Comm    | 4.1e-05    | 5.9125e-05 | 7.4e-05    |   0.0 | 10.15
Output  | 1.5e-05    | 1.625e-05  | 1.8e-05    |   0.0 |  2.79
Modify  | 0          | 6.25e-07   | 2e-06      |   0.0 |  0.11
Other   |            | 7.375e-06  |            |       |  1.27

Nlocal:              4 ave          14 max           0 min
Histogram: 1 3 3 0 0 0 0 0 0 1
Nghost:            662 ave         666 max         652 min
Histogram: 1 0 0 0 0 0 0 3 3 1
Neighs:            487 ave        1710 max           0 min
Histogram: 1 3 3 0 0 0 0 0 0 1
FullNghs:          974 ave        3436 max           0 min
Histogram: 1 3 3 0 0 0 0 0 0 1

Total # of neighbors = 7792
Ave neighs/atom = 243.5
Neighbor list builds = 0
Dangerous builds = 0
variable  natoms equal "count(all)"
variable xlength equal "lx"
variable  volume equal "vol"
variable  etotal equal "etotal"
variable    ecoh equal "-pe/v_natoms"
print "${xlength}, ${volume}, ${etotal}, ${ecoh}" append lattice_cohesive_energy.txt screen no

next i
jump SELF loop

change_box all x scale 1.0025 y scale 1.0025 z scale 1.0025 remap
Changing box ...
  orthogonal box = (0.1770726 0.18572827 0.18572827) to (7.1189274 7.1102717 7.1102717)
  orthogonal box = (0.1770726 0.1770726 0.18572827) to (7.1189274 7.1189274 7.1102717)
  orthogonal box = (0.1770726 0.1770726 0.1770726) to (7.1189274 7.1189274 7.1189274)

run 1
WARNING: No fixes with time integration, atoms won't move (src/verlet.cpp:60)
Per MPI rank memory allocation (min/avg/max) = 8.649 | 8.653 | 8.678 Mbytes
   Step         PotEng         TotEng           Lx             Ly             Lz           Volume         Press           Pxx            Pyy            Pzz      
        42  -138.63316     -138.63316      6.9418548      6.9418548      6.9418548      334.52346      391012.27      391012.27      391012.27      391012.27    
        43  -138.63316     -138.63316      6.9418548      6.9418548      6.9418548      334.52346      391012.27      391012.27      391012.27      391012.27    
Loop time of 0.000527875 on 8 procs for 1 steps with 32 atoms

Performance: 163.675 ns/day, 0.147 hours/ns, 1894.388 timesteps/s, 60.620 katom-step/s
0.0% CPU use with 8 MPI tasks x 1 OpenMP threads

MPI task timing breakdown:
Section |  min time  |  avg time  |  max time  |%varavg| %total
---------------------------------------------------------------
Pair    | 0.000433   | 0.00044862 | 0.000467   |   0.0 | 84.99
Neigh   | 0          | 0          | 0          |   0.0 |  0.00
Comm    | 3.9e-05    | 5.6125e-05 | 7e-05      |   0.0 | 10.63
Output  | 1.5e-05    | 1.6125e-05 | 1.9e-05    |   0.0 |  3.05
Modify  | 0          | 2.5e-07    | 1e-06      |   0.0 |  0.05
Other   |            | 6.75e-06   |            |       |  1.28

Nlocal:              4 ave          14 max           0 min
Histogram: 1 3 3 0 0 0 0 0 0 1
Nghost:            662 ave         666 max         652 min
Histogram: 1 0 0 0 0 0 0 3 3 1
Neighs:            463 ave        1586 max           0 min
Histogram: 1 3 2 1 0 0 0 0 0 1
FullNghs:          926 ave        3196 max           0 min
Histogram: 1 3 3 0 0 0 0 0 0 1

Total # of neighbors = 7408
Ave neighs/atom = 231.5
Neighbor list builds = 0
Dangerous builds = 0
variable  natoms equal "count(all)"
variable xlength equal "lx"
variable  volume equal "vol"
variable  etotal equal "etotal"
variable    ecoh equal "-pe/v_natoms"
print "${xlength}, ${volume}, ${etotal}, ${ecoh}" append lattice_cohesive_energy.txt screen no

next i
jump SELF loop

change_box all x scale 1.0025 y scale 1.0025 z scale 1.0025 remap
Changing box ...
  orthogonal box = (0.16839528 0.1770726 0.1770726) to (7.1276047 7.1189274 7.1189274)
  orthogonal box = (0.16839528 0.16839528 0.1770726) to (7.1276047 7.1276047 7.1189274)
  orthogonal box = (0.16839528 0.16839528 0.16839528) to (7.1276047 7.1276047 7.1276047)

run 1
WARNING: No fixes with time integration, atoms won't move (src/verlet.cpp:60)
Per MPI rank memory allocation (min/avg/max) = 8.649 | 8.653 | 8.678 Mbytes
   Step         PotEng         TotEng           Lx             Ly             Lz           Volume         Press           Pxx            Pyy            Pzz      
        43  -139.22554     -139.22554      6.9592094      6.9592094      6.9592094      337.03866      363850.6       363850.6       363850.6       363850.6     
        44  -139.22554     -139.22554      6.9592094      6.9592094      6.9592094      337.03866      363850.6       363850.6       363850.6       363850.6     
Loop time of 0.0005335 on 8 procs for 1 steps with 32 atoms

Performance: 161.949 ns/day, 0.148 hours/ns, 1874.414 timesteps/s, 59.981 katom-step/s
0.0% CPU use with 8 MPI tasks x 1 OpenMP threads

MPI task timing breakdown:
Section |  min time  |  avg time  |  max time  |%varavg| %total
---------------------------------------------------------------
Pair    | 0.000436   | 0.00045125 | 0.000469   |   0.0 | 84.58
Neigh   | 0          | 0          | 0          |   0.0 |  0.00
Comm    | 3.8e-05    | 5.575e-05  | 7.1e-05    |   0.0 | 10.45
Output  | 1.5e-05    | 1.5875e-05 | 1.8e-05    |   0.0 |  2.98
Modify  | 0          | 0          | 0          |   0.0 |  0.00
Other   |            | 1.063e-05  |            |       |  1.99

Nlocal:              4 ave          14 max           0 min
Histogram: 1 3 3 0 0 0 0 0 0 1
Nghost:            662 ave         666 max         652 min
Histogram: 1 0 0 0 0 0 0 3 3 1
Neighs:            457 ave        1578 max           0 min
Histogram: 1 3 3 0 0 0 0 0 0 1
FullNghs:          914 ave        3172 max           0 min
Histogram: 1 3 3 0 0 0 0 0 0 1

Total # of neighbors = 7312
Ave neighs/atom = 228.5
Neighbor list builds = 0
Dangerous builds = 0
variable  natoms equal "count(all)"
variable xlength equal "lx"
variable  volume equal "vol"
variable  etotal equal "etotal"
variable    ecoh equal "-pe/v_natoms"
print "${xlength}, ${volume}, ${etotal}, ${ecoh}" append lattice_cohesive_energy.txt screen no

next i
jump SELF loop

change_box all x scale 1.0025 y scale 1.0025 z scale 1.0025 remap
Changing box ...
  orthogonal box = (0.15969627 0.16839528 0.16839528) to (7.1363037 7.1276047 7.1276047)
  orthogonal box = (0.15969627 0.15969627 0.16839528) to (7.1363037 7.1363037 7.1276047)
  orthogonal box = (0.15969627 0.15969627 0.15969627) to (7.1363037 7.1363037 7.1363037)

run 1
WARNING: No fixes with time integration, atoms won't move (src/verlet.cpp:60)
Per MPI rank memory allocation (min/avg/max) = 8.649 | 8.653 | 8.678 Mbytes
   Step         PotEng         TotEng           Lx             Ly             Lz           Volume         Press           Pxx            Pyy            Pzz      
        44  -139.78006     -139.78006      6.9766075      6.9766075      6.9766075      339.57278      337494.69      337494.69      337494.69      337494.69    
        45  -139.78006     -139.78006      6.9766075      6.9766075      6.9766075      339.57278      337494.69      337494.69      337494.69      337494.69    
Loop time of 0.0005405 on 8 procs for 1 steps with 32 atoms

Performance: 159.852 ns/day, 0.150 hours/ns, 1850.139 timesteps/s, 59.204 katom-step/s
361.4% CPU use with 8 MPI tasks x 1 OpenMP threads

MPI task timing breakdown:
Section |  min time  |  avg time  |  max time  |%varavg| %total
---------------------------------------------------------------
Pair    | 0.000434   | 0.0004505  | 0.000475   |   0.0 | 83.35
Neigh   | 0          | 0          | 0          |   0.0 |  0.00
Comm    | 3.9e-05    | 6.4125e-05 | 8.4e-05    |   0.0 | 11.86
Output  | 1.4e-05    | 1.95e-05   | 2.3e-05    |   0.0 |  3.61
Modify  | 0          | 0          | 0          |   0.0 |  0.00
Other   |            | 6.375e-06  |            |       |  1.18

Nlocal:              4 ave          14 max           0 min
Histogram: 1 3 3 0 0 0 0 0 0 1
Nghost:            662 ave         666 max         652 min
Histogram: 1 0 0 0 0 0 0 3 3 1
Neighs:            457 ave        1578 max           0 min
Histogram: 1 3 3 0 0 0 0 0 0 1
FullNghs:          914 ave        3172 max           0 min
Histogram: 1 3 3 0 0 0 0 0 0 1

Total # of neighbors = 7312
Ave neighs/atom = 228.5
Neighbor list builds = 0
Dangerous builds = 0
variable  natoms equal "count(all)"
variable xlength equal "lx"
variable  volume equal "vol"
variable  etotal equal "etotal"
variable    ecoh equal "-pe/v_natoms"
print "${xlength}, ${volume}, ${etotal}, ${ecoh}" append lattice_cohesive_energy.txt screen no

next i
jump SELF loop

change_box all x scale 1.0025 y scale 1.0025 z scale 1.0025 remap
Changing box ...
  orthogonal box = (0.15097551 0.15969627 0.15969627) to (7.1450245 7.1363037 7.1363037)
  orthogonal box = (0.15097551 0.15097551 0.15969627) to (7.1450245 7.1450245 7.1363037)
  orthogonal box = (0.15097551 0.15097551 0.15097551) to (7.1450245 7.1450245 7.1450245)

run 1
WARNING: No fixes with time integration, atoms won't move (src/verlet.cpp:60)
Per MPI rank memory allocation (min/avg/max) = 8.649 | 8.653 | 8.678 Mbytes
   Step         PotEng         TotEng           Lx             Ly             Lz           Volume         Press           Pxx            Pyy            Pzz      
        45  -140.29738     -140.29738      6.994049       6.994049       6.994049       342.12594      311926.83      311926.83      311926.83      311926.83    
        46  -140.29738     -140.29738      6.994049       6.994049       6.994049       342.12594      311926.83      311926.83      311926.83      311926.83    
Loop time of 0.0005285 on 8 procs for 1 steps with 32 atoms

Performance: 163.482 ns/day, 0.147 hours/ns, 1892.148 timesteps/s, 60.549 katom-step/s
0.0% CPU use with 8 MPI tasks x 1 OpenMP threads

MPI task timing breakdown:
Section |  min time  |  avg time  |  max time  |%varavg| %total
---------------------------------------------------------------
Pair    | 0.000433   | 0.00045325 | 0.000471   |   0.0 | 85.76
Neigh   | 0          | 0          | 0          |   0.0 |  0.00
Comm    | 3.5e-05    | 5.2e-05    | 7e-05      |   0.0 |  9.84
Output  | 1.5e-05    | 1.65e-05   | 1.9e-05    |   0.0 |  3.12
Modify  | 0          | 2.5e-07    | 1e-06      |   0.0 |  0.05
Other   |            | 6.5e-06    |            |       |  1.23

Nlocal:              4 ave          14 max           0 min
Histogram: 1 3 3 0 0 0 0 0 0 1
Nghost:            662 ave         666 max         652 min
Histogram: 1 0 0 0 0 0 0 3 3 1
Neighs:          449.5 ave        1569 max           0 min
Histogram: 1 3 3 0 0 0 0 0 0 1
FullNghs:          899 ave        3142 max           0 min
Histogram: 1 3 3 0 0 0 0 0 0 1

Total # of neighbors = 7192
Ave neighs/atom = 224.75
Neighbor list builds = 0
Dangerous builds = 0
variable  natoms equal "count(all)"
variable xlength equal "lx"
variable  volume equal "vol"
variable  etotal equal "etotal"
variable    ecoh equal "-pe/v_natoms"
print "${xlength}, ${volume}, ${etotal}, ${ecoh}" append lattice_cohesive_energy.txt screen no

next i
jump SELF loop

change_box all x scale 1.0025 y scale 1.0025 z scale 1.0025 remap
Changing box ...
  orthogonal box = (0.14223294 0.15097551 0.15097551) to (7.1537671 7.1450245 7.1450245)
  orthogonal box = (0.14223294 0.14223294 0.15097551) to (7.1537671 7.1537671 7.1450245)
  orthogonal box = (0.14223294 0.14223294 0.14223294) to (7.1537671 7.1537671 7.1537671)

run 1
WARNING: No fixes with time integration, atoms won't move (src/verlet.cpp:60)
Per MPI rank memory allocation (min/avg/max) = 8.649 | 8.653 | 8.678 Mbytes
   Step         PotEng         TotEng           Lx             Ly             Lz           Volume         Press           Pxx            Pyy            Pzz      
        46  -140.77815     -140.77815      7.0115341      7.0115341      7.0115341      344.69831      287129.67      287129.67      287129.67      287129.67    
        47  -140.77815     -140.77815      7.0115341      7.0115341      7.0115341      344.69831      287129.67      287129.67      287129.67      287129.67    
Loop time of 0.0005235 on 8 procs for 1 steps with 32 atoms

Performance: 165.043 ns/day, 0.145 hours/ns, 1910.220 timesteps/s, 61.127 katom-step/s
0.0% CPU use with 8 MPI tasks x 1 OpenMP threads

MPI task timing breakdown:
Section |  min time  |  avg time  |  max time  |%varavg| %total
---------------------------------------------------------------
Pair    | 0.000432   | 0.000447   | 0.000465   |   0.0 | 85.39
Neigh   | 0          | 0          | 0          |   0.0 |  0.00
Comm    | 3.8e-05    | 5.45e-05   | 6.7e-05    |   0.0 | 10.41
Output  | 1.4e-05    | 1.5375e-05 | 1.7e-05    |   0.0 |  2.94
Modify  | 0          | 0          | 0          |   0.0 |  0.00
Other   |            | 6.625e-06  |            |       |  1.27

Nlocal:              4 ave          14 max           0 min
Histogram: 1 3 3 0 0 0 0 0 0 1
Nghost:            662 ave         666 max         652 min
Histogram: 1 0 0 0 0 0 0 3 3 1
Neighs:          449.5 ave        1569 max           0 min
Histogram: 1 3 3 0 0 0 0 0 0 1
FullNghs:          899 ave        3142 max           0 min
Histogram: 1 3 3 0 0 0 0 0 0 1

Total # of neighbors = 7192
Ave neighs/atom = 224.75
Neighbor list builds = 0
Dangerous builds = 0
variable  natoms equal "count(all)"
variable xlength equal "lx"
variable  volume equal "vol"
variable  etotal equal "etotal"
variable    ecoh equal "-pe/v_natoms"
print "${xlength}, ${volume}, ${etotal}, ${ecoh}" append lattice_cohesive_energy.txt screen no

next i
jump SELF loop

change_box all x scale 1.0025 y scale 1.0025 z scale 1.0025 remap
Changing box ...
  orthogonal box = (0.13346853 0.14223294 0.14223294) to (7.1625315 7.1537671 7.1537671)
  orthogonal box = (0.13346853 0.13346853 0.14223294) to (7.1625315 7.1625315 7.1537671)
  orthogonal box = (0.13346853 0.13346853 0.13346853) to (7.1625315 7.1625315 7.1625315)

run 1
WARNING: No fixes with time integration, atoms won't move (src/verlet.cpp:60)
Per MPI rank memory allocation (min/avg/max) = 8.649 | 8.653 | 8.678 Mbytes
   Step         PotEng         TotEng           Lx             Ly             Lz           Volume         Press           Pxx            Pyy            Pzz      
        47  -141.22305     -141.22305      7.0290629      7.0290629      7.0290629      347.29002      263086.17      263086.17      263086.17      263086.17    
        48  -141.22305     -141.22305      7.0290629      7.0290629      7.0290629      347.29002      263086.17      263086.17      263086.17      263086.17    
Loop time of 0.00048825 on 8 procs for 1 steps with 32 atoms

Performance: 176.959 ns/day, 0.136 hours/ns, 2048.131 timesteps/s, 65.540 katom-step/s
0.0% CPU use with 8 MPI tasks x 1 OpenMP threads

MPI task timing breakdown:
Section |  min time  |  avg time  |  max time  |%varavg| %total
---------------------------------------------------------------
Pair    | 0.000391   | 0.00040763 | 0.000425   |   0.0 | 83.49
Neigh   | 0          | 0          | 0          |   0.0 |  0.00
Comm    | 4.1e-05    | 5.7375e-05 | 7.3e-05    |   0.0 | 11.75
Output  | 1.4e-05    | 1.575e-05  | 1.7e-05    |   0.0 |  3.23
Modify  | 0          | 3.75e-07   | 1e-06      |   0.0 |  0.08
Other   |            | 7.125e-06  |            |       |  1.46

Nlocal:              4 ave          14 max           0 min
Histogram: 1 3 3 0 0 0 0 0 0 1
Nghost:            662 ave         666 max         652 min
Histogram: 1 0 0 0 0 0 0 3 3 1
Neighs:            448 ave        1568 max           0 min
Histogram: 1 3 3 0 0 0 0 0 0 1
FullNghs:          896 ave        3136 max           0 min
Histogram: 1 3 3 0 0 0 0 0 0 1

Total # of neighbors = 7168
Ave neighs/atom = 224
Neighbor list builds = 0
Dangerous builds = 0
variable  natoms equal "count(all)"
variable xlength equal "lx"
variable  volume equal "vol"
variable  etotal equal "etotal"
variable    ecoh equal "-pe/v_natoms"
print "${xlength}, ${volume}, ${etotal}, ${ecoh}" append lattice_cohesive_energy.txt screen no

next i
jump SELF loop

change_box all x scale 1.0025 y scale 1.0025 z scale 1.0025 remap
Changing box ...
  orthogonal box = (0.1246822 0.13346853 0.13346853) to (7.1713178 7.1625315 7.1625315)
  orthogonal box = (0.1246822 0.1246822 0.13346853) to (7.1713178 7.1713178 7.1625315)
  orthogonal box = (0.1246822 0.1246822 0.1246822) to (7.1713178 7.1713178 7.1713178)

run 1
WARNING: No fixes with time integration, atoms won't move (src/verlet.cpp:60)
Per MPI rank memory allocation (min/avg/max) = 8.649 | 8.653 | 8.678 Mbytes
   Step         PotEng         TotEng           Lx             Ly             Lz           Volume         Press           Pxx            Pyy            Pzz      
        48  -141.63271     -141.63271      7.0466356      7.0466356      7.0466356      349.90121      239779.52      239779.52      239779.52      239779.52    
        49  -141.63271     -141.63271      7.0466356      7.0466356      7.0466356      349.90121      239779.52      239779.52      239779.52      239779.52    
Loop time of 0.0004945 on 8 procs for 1 steps with 32 atoms

Performance: 174.722 ns/day, 0.137 hours/ns, 2022.245 timesteps/s, 64.712 katom-step/s
0.0% CPU use with 8 MPI tasks x 1 OpenMP threads

MPI task timing breakdown:
Section |  min time  |  avg time  |  max time  |%varavg| %total
---------------------------------------------------------------
Pair    | 0.0004     | 0.0004165  | 0.000435   |   0.0 | 84.23
Neigh   | 0          | 0          | 0          |   0.0 |  0.00
Comm    | 3.8e-05    | 5.525e-05  | 7e-05      |   0.0 | 11.17
Output  | 1.4e-05    | 1.5625e-05 | 1.8e-05    |   0.0 |  3.16
Modify  | 0          | 3.75e-07   | 1e-06      |   0.0 |  0.08
Other   |            | 6.75e-06   |            |       |  1.37

Nlocal:              4 ave          14 max           0 min
Histogram: 1 3 3 0 0 0 0 0 0 1
Nghost:            662 ave         666 max         652 min
Histogram: 1 0 0 0 0 0 0 3 3 1
Neighs:            448 ave        1568 max           0 min
Histogram: 1 3 3 0 0 0 0 0 0 1
FullNghs:          896 ave        3136 max           0 min
Histogram: 1 3 3 0 0 0 0 0 0 1

Total # of neighbors = 7168
Ave neighs/atom = 224
Neighbor list builds = 0
Dangerous builds = 0
variable  natoms equal "count(all)"
variable xlength equal "lx"
variable  volume equal "vol"
variable  etotal equal "etotal"
variable    ecoh equal "-pe/v_natoms"
print "${xlength}, ${volume}, ${etotal}, ${ecoh}" append lattice_cohesive_energy.txt screen no

next i
jump SELF loop

change_box all x scale 1.0025 y scale 1.0025 z scale 1.0025 remap
Changing box ...
  orthogonal box = (0.1158739 0.1246822 0.1246822) to (7.1801261 7.1713178 7.1713178)
  orthogonal box = (0.1158739 0.1158739 0.1246822) to (7.1801261 7.1801261 7.1713178)
  orthogonal box = (0.1158739 0.1158739 0.1158739) to (7.1801261 7.1801261 7.1801261)

run 1
WARNING: No fixes with time integration, atoms won't move (src/verlet.cpp:60)
Per MPI rank memory allocation (min/avg/max) = 8.649 | 8.653 | 8.678 Mbytes
   Step         PotEng         TotEng           Lx             Ly             Lz           Volume         Press           Pxx            Pyy            Pzz      
        49  -142.00777     -142.00777      7.0642522      7.0642522      7.0642522      352.53203      217193.2       217193.2       217193.2       217193.2     
        50  -142.00777     -142.00777      7.0642522      7.0642522      7.0642522      352.53203      217193.2       217193.2       217193.2       217193.2     
Loop time of 0.000525625 on 8 procs for 1 steps with 32 atoms

Performance: 164.376 ns/day, 0.146 hours/ns, 1902.497 timesteps/s, 60.880 katom-step/s
0.0% CPU use with 8 MPI tasks x 1 OpenMP threads

MPI task timing breakdown:
Section |  min time  |  avg time  |  max time  |%varavg| %total
---------------------------------------------------------------
Pair    | 0.000407   | 0.00042962 | 0.000468   |   0.0 | 81.74
Neigh   | 0          | 0          | 0          |   0.0 |  0.00
Comm    | 3.5e-05    | 7.2375e-05 | 9.4e-05    |   0.0 | 13.77
Output  | 1.5e-05    | 1.6625e-05 | 1.8e-05    |   0.0 |  3.16
Modify  | 0          | 3.75e-07   | 1e-06      |   0.0 |  0.07
Other   |            | 6.625e-06  |            |       |  1.26

Nlocal:              4 ave          14 max           0 min
Histogram: 1 3 3 0 0 0 0 0 0 1
Nghost:            662 ave         666 max         652 min
Histogram: 1 0 0 0 0 0 0 3 3 1
Neighs:            448 ave        1568 max           0 min
Histogram: 1 3 3 0 0 0 0 0 0 1
FullNghs:          896 ave        3136 max           0 min
Histogram: 1 3 3 0 0 0 0 0 0 1

Total # of neighbors = 7168
Ave neighs/atom = 224
Neighbor list builds = 0
Dangerous builds = 0
variable  natoms equal "count(all)"
variable xlength equal "lx"
variable  volume equal "vol"
variable  etotal equal "etotal"
variable    ecoh equal "-pe/v_natoms"
print "${xlength}, ${volume}, ${etotal}, ${ecoh}" append lattice_cohesive_energy.txt screen no

next i
jump SELF loop

change_box all x scale 1.0025 y scale 1.0025 z scale 1.0025 remap
Changing box ...
  orthogonal box = (0.10704359 0.1158739 0.1158739) to (7.1889564 7.1801261 7.1801261)
  orthogonal box = (0.10704359 0.10704359 0.1158739) to (7.1889564 7.1889564 7.1801261)
  orthogonal box = (0.10704359 0.10704359 0.10704359) to (7.1889564 7.1889564 7.1889564)

run 1
WARNING: No fixes with time integration, atoms won't move (src/verlet.cpp:60)
Per MPI rank memory allocation (min/avg/max) = 8.649 | 8.653 | 8.678 Mbytes
   Step         PotEng         TotEng           Lx             Ly             Lz           Volume         Press           Pxx            Pyy            Pzz      
        50  -142.34887     -142.34887      7.0819128      7.0819128      7.0819128      355.18264      195311.01      195311.01      195311.01      195311.01    
        51  -142.34887     -142.34887      7.0819128      7.0819128      7.0819128      355.18264      195311.01      195311.01      195311.01      195311.01    
Loop time of 0.000496375 on 8 procs for 1 steps with 32 atoms

Performance: 174.062 ns/day, 0.138 hours/ns, 2014.606 timesteps/s, 64.467 katom-step/s
0.0% CPU use with 8 MPI tasks x 1 OpenMP threads

MPI task timing breakdown:
Section |  min time  |  avg time  |  max time  |%varavg| %total
---------------------------------------------------------------
Pair    | 0.0004     | 0.00041525 | 0.000432   |   0.0 | 83.66
Neigh   | 0          | 0          | 0          |   0.0 |  0.00
Comm    | 4.2e-05    | 5.825e-05  | 7.3e-05    |   0.0 | 11.74
Output  | 1.5e-05    | 1.5875e-05 | 1.8e-05    |   0.0 |  3.20
Modify  | 0          | 0          | 0          |   0.0 |  0.00
Other   |            | 7e-06      |            |       |  1.41

Nlocal:              4 ave          14 max           0 min
Histogram: 1 3 3 0 0 0 0 0 0 1
Nghost:            662 ave         666 max         652 min
Histogram: 1 0 0 0 0 0 0 3 3 1
Neighs:            448 ave        1568 max           0 min
Histogram: 1 3 3 0 0 0 0 0 0 1
FullNghs:          896 ave        3136 max           0 min
Histogram: 1 3 3 0 0 0 0 0 0 1

Total # of neighbors = 7168
Ave neighs/atom = 224
Neighbor list builds = 0
Dangerous builds = 0
variable  natoms equal "count(all)"
variable xlength equal "lx"
variable  volume equal "vol"
variable  etotal equal "etotal"
variable    ecoh equal "-pe/v_natoms"
print "${xlength}, ${volume}, ${etotal}, ${ecoh}" append lattice_cohesive_energy.txt screen no

next i
jump SELF loop

change_box all x scale 1.0025 y scale 1.0025 z scale 1.0025 remap
Changing box ...
  orthogonal box = (0.098191197 0.10704359 0.10704359) to (7.1978088 7.1889564 7.1889564)
  orthogonal box = (0.098191197 0.098191197 0.10704359) to (7.1978088 7.1978088 7.1889564)
  orthogonal box = (0.098191197 0.098191197 0.098191197) to (7.1978088 7.1978088 7.1978088)

run 1
WARNING: No fixes with time integration, atoms won't move (src/verlet.cpp:60)
Per MPI rank memory allocation (min/avg/max) = 8.649 | 8.653 | 8.678 Mbytes
   Step         PotEng         TotEng           Lx             Ly             Lz           Volume         Press           Pxx            Pyy            Pzz      
        51  -142.65663     -142.65663      7.0996176      7.0996176      7.0996176      357.85317      174117.04      174117.04      174117.04      174117.04    
        52  -142.65663     -142.65663      7.0996176      7.0996176      7.0996176      357.85317      174117.04      174117.04      174117.04      174117.04    
Loop time of 0.000501 on 8 procs for 1 steps with 32 atoms

Performance: 172.455 ns/day, 0.139 hours/ns, 1996.008 timesteps/s, 63.872 katom-step/s
0.0% CPU use with 8 MPI tasks x 1 OpenMP threads

MPI task timing breakdown:
Section |  min time  |  avg time  |  max time  |%varavg| %total
---------------------------------------------------------------
Pair    | 0.000401   | 0.00041638 | 0.000429   |   0.0 | 83.11
Neigh   | 0          | 0          | 0          |   0.0 |  0.00
Comm    | 4.7e-05    | 5.8125e-05 | 7.3e-05    |   0.0 | 11.60
Output  | 1.6e-05    | 1.7375e-05 | 1.9e-05    |   0.0 |  3.47
Modify  | 0          | 2.5e-07    | 1e-06      |   0.0 |  0.05
Other   |            | 8.875e-06  |            |       |  1.77

Nlocal:              4 ave          14 max           0 min
Histogram: 1 3 3 0 0 0 0 0 0 1
Nghost:            662 ave         666 max         652 min
Histogram: 1 0 0 0 0 0 0 3 3 1
Neighs:            448 ave        1568 max           0 min
Histogram: 1 3 3 0 0 0 0 0 0 1
FullNghs:          896 ave        3136 max           0 min
Histogram: 1 3 3 0 0 0 0 0 0 1

Total # of neighbors = 7168
Ave neighs/atom = 224
Neighbor list builds = 0
Dangerous builds = 0
variable  natoms equal "count(all)"
variable xlength equal "lx"
variable  volume equal "vol"
variable  etotal equal "etotal"
variable    ecoh equal "-pe/v_natoms"
print "${xlength}, ${volume}, ${etotal}, ${ecoh}" append lattice_cohesive_energy.txt screen no

next i
jump SELF loop

change_box all x scale 1.0025 y scale 1.0025 z scale 1.0025 remap
Changing box ...
  orthogonal box = (0.089316675 0.098191197 0.098191197) to (7.2066833 7.1978088 7.1978088)
  orthogonal box = (0.089316675 0.089316675 0.098191197) to (7.2066833 7.2066833 7.1978088)
  orthogonal box = (0.089316675 0.089316675 0.089316675) to (7.2066833 7.2066833 7.2066833)

run 1
WARNING: No fixes with time integration, atoms won't move (src/verlet.cpp:60)
Per MPI rank memory allocation (min/avg/max) = 8.649 | 8.653 | 8.678 Mbytes
   Step         PotEng         TotEng           Lx             Ly             Lz           Volume         Press           Pxx            Pyy            Pzz      
        52  -142.93169     -142.93169      7.1173666      7.1173666      7.1173666      360.54379      153595.67      153595.67      153595.67      153595.67    
        53  -142.93169     -142.93169      7.1173666      7.1173666      7.1173666      360.54379      153595.67      153595.67      153595.67      153595.67    
Loop time of 0.0005 on 8 procs for 1 steps with 32 atoms

Performance: 172.800 ns/day, 0.139 hours/ns, 2000.000 timesteps/s, 64.000 katom-step/s
0.0% CPU use with 8 MPI tasks x 1 OpenMP threads

MPI task timing breakdown:
Section |  min time  |  avg time  |  max time  |%varavg| %total
---------------------------------------------------------------
Pair    | 0.000403   | 0.00041738 | 0.00043    |   0.0 | 83.48
Neigh   | 0          | 0          | 0          |   0.0 |  0.00
Comm    | 4.4e-05    | 5.7e-05    | 7e-05      |   0.0 | 11.40
Output  | 1.6e-05    | 1.7375e-05 | 1.9e-05    |   0.0 |  3.47
Modify  | 0          | 1.25e-07   | 1e-06      |   0.0 |  0.03
Other   |            | 8.125e-06  |            |       |  1.63

Nlocal:              4 ave          14 max           0 min
Histogram: 1 3 3 0 0 0 0 0 0 1
Nghost:            662 ave         666 max         652 min
Histogram: 1 0 0 0 0 0 0 3 3 1
Neighs:            448 ave        1568 max           0 min
Histogram: 1 3 3 0 0 0 0 0 0 1
FullNghs:          896 ave        3136 max           0 min
Histogram: 1 3 3 0 0 0 0 0 0 1

Total # of neighbors = 7168
Ave neighs/atom = 224
Neighbor list builds = 0
Dangerous builds = 0
variable  natoms equal "count(all)"
variable xlength equal "lx"
variable  volume equal "vol"
variable  etotal equal "etotal"
variable    ecoh equal "-pe/v_natoms"
print "${xlength}, ${volume}, ${etotal}, ${ecoh}" append lattice_cohesive_energy.txt screen no

next i
jump SELF loop

change_box all x scale 1.0025 y scale 1.0025 z scale 1.0025 remap
Changing box ...
  orthogonal box = (0.080419967 0.089316675 0.089316675) to (7.21558 7.2066833 7.2066833)
  orthogonal box = (0.080419967 0.080419967 0.089316675) to (7.21558 7.21558 7.2066833)
  orthogonal box = (0.080419967 0.080419967 0.080419967) to (7.21558 7.21558 7.21558)

run 1
WARNING: No fixes with time integration, atoms won't move (src/verlet.cpp:60)
Per MPI rank memory allocation (min/avg/max) = 8.649 | 8.653 | 8.678 Mbytes
   Step         PotEng         TotEng           Lx             Ly             Lz           Volume         Press           Pxx            Pyy            Pzz      
        53  -143.17466     -143.17466      7.1351601      7.1351601      7.1351601      363.25463      133731.63      133731.63      133731.63      133731.63    
        54  -143.17466     -143.17466      7.1351601      7.1351601      7.1351601      363.25463      133731.63      133731.63      133731.63      133731.63    
Loop time of 0.000496625 on 8 procs for 1 steps with 32 atoms

Performance: 173.974 ns/day, 0.138 hours/ns, 2013.592 timesteps/s, 64.435 katom-step/s
0.0% CPU use with 8 MPI tasks x 1 OpenMP threads

MPI task timing breakdown:
Section |  min time  |  avg time  |  max time  |%varavg| %total
---------------------------------------------------------------
Pair    | 0.000396   | 0.00041225 | 0.000424   |   0.0 | 83.01
Neigh   | 0          | 0          | 0          |   0.0 |  0.00
Comm    | 4.7e-05    | 5.8375e-05 | 7.3e-05    |   0.0 | 11.75
Output  | 1.6e-05    | 1.7375e-05 | 2e-05      |   0.0 |  3.50
Modify  | 0          | 5e-07      | 2e-06      |   0.0 |  0.10
Other   |            | 8.125e-06  |            |       |  1.64

Nlocal:              4 ave          14 max           0 min
Histogram: 1 3 3 0 0 0 0 0 0 1
Nghost:            662 ave         666 max         652 min
Histogram: 1 0 0 0 0 0 0 3 3 1
Neighs:            448 ave        1568 max           0 min
Histogram: 1 3 3 0 0 0 0 0 0 1
FullNghs:          896 ave        3136 max           0 min
Histogram: 1 3 3 0 0 0 0 0 0 1

Total # of neighbors = 7168
Ave neighs/atom = 224
Neighbor list builds = 0
Dangerous builds = 0
variable  natoms equal "count(all)"
variable xlength equal "lx"
variable  volume equal "vol"
variable  etotal equal "etotal"
variable    ecoh equal "-pe/v_natoms"
print "${xlength}, ${volume}, ${etotal}, ${ecoh}" append lattice_cohesive_energy.txt screen no

next i
jump SELF loop

change_box all x scale 1.0025 y scale 1.0025 z scale 1.0025 remap
Changing box ...
  orthogonal box = (0.071501017 0.080419967 0.080419967) to (7.224499 7.21558 7.21558)
  orthogonal box = (0.071501017 0.071501017 0.080419967) to (7.224499 7.224499 7.21558)
  orthogonal box = (0.071501017 0.071501017 0.071501017) to (7.224499 7.224499 7.224499)

run 1
WARNING: No fixes with time integration, atoms won't move (src/verlet.cpp:60)
Per MPI rank memory allocation (min/avg/max) = 8.649 | 8.653 | 8.678 Mbytes
   Step         PotEng         TotEng           Lx             Ly             Lz           Volume         Press           Pxx            Pyy            Pzz      
        54  -143.38613     -143.38613      7.152998       7.152998       7.152998       365.98586      114509.92      114509.92      114509.92      114509.92    
        55  -143.38613     -143.38613      7.152998       7.152998       7.152998       365.98586      114509.92      114509.92      114509.92      114509.92    
Loop time of 0.000506875 on 8 procs for 1 steps with 32 atoms

Performance: 170.456 ns/day, 0.141 hours/ns, 1972.873 timesteps/s, 63.132 katom-step/s
385.3% CPU use with 8 MPI tasks x 1 OpenMP threads

MPI task timing breakdown:
Section |  min time  |  avg time  |  max time  |%varavg| %total
---------------------------------------------------------------
Pair    | 0.000396   | 0.0004105  | 0.000423   |   0.0 | 80.99
Neigh   | 0          | 0          | 0          |   0.0 |  0.00
Comm    | 5.1e-05    | 6.3375e-05 | 7.8e-05    |   0.0 | 12.50
Output  | 1.7e-05    | 1.975e-05  | 2.8e-05    |   0.0 |  3.90
Modify  | 0          | 2.5e-07    | 1e-06      |   0.0 |  0.05
Other   |            | 1.3e-05    |            |       |  2.56

Nlocal:              4 ave          14 max           0 min
Histogram: 1 3 3 0 0 0 0 0 0 1
Nghost:            662 ave         666 max         652 min
Histogram: 1 0 0 0 0 0 0 3 3 1
Neighs:            448 ave        1568 max           0 min
Histogram: 1 3 3 0 0 0 0 0 0 1
FullNghs:          896 ave        3136 max           0 min
Histogram: 1 3 3 0 0 0 0 0 0 1

Total # of neighbors = 7168
Ave neighs/atom = 224
Neighbor list builds = 0
Dangerous builds = 0
variable  natoms equal "count(all)"
variable xlength equal "lx"
variable  volume equal "vol"
variable  etotal equal "etotal"
variable    ecoh equal "-pe/v_natoms"
print "${xlength}, ${volume}, ${etotal}, ${ecoh}" append lattice_cohesive_energy.txt screen no

next i
jump SELF loop

change_box all x scale 1.0025 y scale 1.0025 z scale 1.0025 remap
Changing box ...
  orthogonal box = (0.06255977 0.071501017 0.071501017) to (7.2334402 7.224499 7.224499)
  orthogonal box = (0.06255977 0.06255977 0.071501017) to (7.2334402 7.2334402 7.224499)
  orthogonal box = (0.06255977 0.06255977 0.06255977) to (7.2334402 7.2334402 7.2334402)

run 1
WARNING: No fixes with time integration, atoms won't move (src/verlet.cpp:60)
Per MPI rank memory allocation (min/avg/max) = 8.649 | 8.653 | 8.678 Mbytes
   Step         PotEng         TotEng           Lx             Ly             Lz           Volume         Press           Pxx            Pyy            Pzz      
        55  -143.56673     -143.56673      7.1708805      7.1708805      7.1708805      368.73762      95915.74       95915.74       95915.74       95915.74     
        56  -143.56673     -143.56673      7.1708805      7.1708805      7.1708805      368.73762      95915.74       95915.74       95915.74       95915.74     
Loop time of 0.00049375 on 8 procs for 1 steps with 32 atoms

Performance: 174.987 ns/day, 0.137 hours/ns, 2025.316 timesteps/s, 64.810 katom-step/s
0.0% CPU use with 8 MPI tasks x 1 OpenMP threads

MPI task timing breakdown:
Section |  min time  |  avg time  |  max time  |%varavg| %total
---------------------------------------------------------------
Pair    | 0.000399   | 0.00040875 | 0.000425   |   0.0 | 82.78
Neigh   | 0          | 0          | 0          |   0.0 |  0.00
Comm    | 4.3e-05    | 5.8375e-05 | 6.8e-05    |   0.0 | 11.82
Output  | 1.6e-05    | 1.675e-05  | 1.9e-05    |   0.0 |  3.39
Modify  | 0          | 1.25e-07   | 1e-06      |   0.0 |  0.03
Other   |            | 9.75e-06   |            |       |  1.97

Nlocal:              4 ave          14 max           0 min
Histogram: 1 3 3 0 0 0 0 0 0 1
Nghost:            662 ave         666 max         652 min
Histogram: 1 0 0 0 0 0 0 3 3 1
Neighs:            448 ave        1568 max           0 min
Histogram: 1 3 3 0 0 0 0 0 0 1
FullNghs:          896 ave        3136 max           0 min
Histogram: 1 3 3 0 0 0 0 0 0 1

Total # of neighbors = 7168
Ave neighs/atom = 224
Neighbor list builds = 0
Dangerous builds = 0
variable  natoms equal "count(all)"
variable xlength equal "lx"
variable  volume equal "vol"
variable  etotal equal "etotal"
variable    ecoh equal "-pe/v_natoms"
print "${xlength}, ${volume}, ${etotal}, ${ecoh}" append lattice_cohesive_energy.txt screen no

next i
jump SELF loop

change_box all x scale 1.0025 y scale 1.0025 z scale 1.0025 remap
Changing box ...
  orthogonal box = (0.053596169 0.06255977 0.06255977) to (7.2424038 7.2334402 7.2334402)
  orthogonal box = (0.053596169 0.053596169 0.06255977) to (7.2424038 7.2424038 7.2334402)
  orthogonal box = (0.053596169 0.053596169 0.053596169) to (7.2424038 7.2424038 7.2424038)

run 1
WARNING: No fixes with time integration, atoms won't move (src/verlet.cpp:60)
Per MPI rank memory allocation (min/avg/max) = 8.649 | 8.653 | 8.678 Mbytes
   Step         PotEng         TotEng           Lx             Ly             Lz           Volume         Press           Pxx            Pyy            Pzz      
        56  -143.71704     -143.71704      7.1888077      7.1888077      7.1888077      371.51007      77934.586      77934.586      77934.586      77934.586    
        57  -143.71704     -143.71704      7.1888077      7.1888077      7.1888077      371.51007      77934.586      77934.586      77934.586      77934.586    
Loop time of 0.000535875 on 8 procs for 1 steps with 32 atoms

Performance: 161.232 ns/day, 0.149 hours/ns, 1866.107 timesteps/s, 59.715 katom-step/s
0.0% CPU use with 8 MPI tasks x 1 OpenMP threads

MPI task timing breakdown:
Section |  min time  |  avg time  |  max time  |%varavg| %total
---------------------------------------------------------------
Pair    | 0.000397   | 0.00042525 | 0.000474   |   0.0 | 79.36
Neigh   | 0          | 0          | 0          |   0.0 |  0.00
Comm    | 3.6e-05    | 8.375e-05  | 0.000111   |   0.0 | 15.63
Output  | 1.6e-05    | 1.775e-05  | 2.1e-05    |   0.0 |  3.31
Modify  | 0          | 3.75e-07   | 2e-06      |   0.0 |  0.07
Other   |            | 8.75e-06   |            |       |  1.63

Nlocal:              4 ave          14 max           0 min
Histogram: 1 3 3 0 0 0 0 0 0 1
Nghost:            662 ave         666 max         652 min
Histogram: 1 0 0 0 0 0 0 3 3 1
Neighs:            445 ave        1551 max           0 min
Histogram: 1 3 3 0 0 0 0 0 0 1
FullNghs:          890 ave        3106 max           0 min
Histogram: 1 3 3 0 0 0 0 0 0 1

Total # of neighbors = 7120
Ave neighs/atom = 222.5
Neighbor list builds = 0
Dangerous builds = 0
variable  natoms equal "count(all)"
variable xlength equal "lx"
variable  volume equal "vol"
variable  etotal equal "etotal"
variable    ecoh equal "-pe/v_natoms"
print "${xlength}, ${volume}, ${etotal}, ${ecoh}" append lattice_cohesive_energy.txt screen no

next i
jump SELF loop

change_box all x scale 1.0025 y scale 1.0025 z scale 1.0025 remap
Changing box ...
  orthogonal box = (0.044610159 0.053596169 0.053596169) to (7.2513898 7.2424038 7.2424038)
  orthogonal box = (0.044610159 0.044610159 0.053596169) to (7.2513898 7.2513898 7.2424038)
  orthogonal box = (0.044610159 0.044610159 0.044610159) to (7.2513898 7.2513898 7.2513898)

run 1
WARNING: No fixes with time integration, atoms won't move (src/verlet.cpp:60)
Per MPI rank memory allocation (min/avg/max) = 8.649 | 8.653 | 8.678 Mbytes
   Step         PotEng         TotEng           Lx             Ly             Lz           Volume         Press           Pxx            Pyy            Pzz      
        57  -143.83766     -143.83766      7.2067797      7.2067797      7.2067797      374.30337      60552.214      60552.214      60552.214      60552.214    
        58  -143.83766     -143.83766      7.2067797      7.2067797      7.2067797      374.30337      60552.214      60552.214      60552.214      60552.214    
Loop time of 0.000515625 on 8 procs for 1 steps with 32 atoms

Performance: 167.564 ns/day, 0.143 hours/ns, 1939.394 timesteps/s, 62.061 katom-step/s
0.0% CPU use with 8 MPI tasks x 1 OpenMP threads

MPI task timing breakdown:
Section |  min time  |  avg time  |  max time  |%varavg| %total
---------------------------------------------------------------
Pair    | 0.000392   | 0.0004105  | 0.000427   |   0.0 | 79.61
Neigh   | 0          | 0          | 0          |   0.0 |  0.00
Comm    | 6e-05      | 7.7125e-05 | 9.6e-05    |   0.0 | 14.96
Output  | 1.7e-05    | 1.8e-05    | 2.1e-05    |   0.0 |  3.49
Modify  | 0          | 2.5e-07    | 1e-06      |   0.0 |  0.05
Other   |            | 9.75e-06   |            |       |  1.89

Nlocal:              4 ave          14 max           0 min
Histogram: 1 3 3 0 0 0 0 0 0 1
Nghost:            662 ave         666 max         652 min
Histogram: 1 0 0 0 0 0 0 3 3 1
Neighs:            436 ave        1525 max           0 min
Histogram: 1 3 3 0 0 0 0 0 0 1
FullNghs:          872 ave        3070 max           0 min
Histogram: 1 3 3 0 0 0 0 0 0 1

Total # of neighbors = 6976
Ave neighs/atom = 218
Neighbor list builds = 0
Dangerous builds = 0
variable  natoms equal "count(all)"
variable xlength equal "lx"
variable  volume equal "vol"
variable  etotal equal "etotal"
variable    ecoh equal "-pe/v_natoms"
print "${xlength}, ${volume}, ${etotal}, ${ecoh}" append lattice_cohesive_energy.txt screen no

next i
jump SELF loop

change_box all x scale 1.0025 y scale 1.0025 z scale 1.0025 remap
Changing box ...
  orthogonal box = (0.035601685 0.044610159 0.044610159) to (7.2603983 7.2513898 7.2513898)
  orthogonal box = (0.035601685 0.035601685 0.044610159) to (7.2603983 7.2603983 7.2513898)
  orthogonal box = (0.035601685 0.035601685 0.035601685) to (7.2603983 7.2603983 7.2603983)

run 1
WARNING: No fixes with time integration, atoms won't move (src/verlet.cpp:60)
Per MPI rank memory allocation (min/avg/max) = 8.649 | 8.653 | 8.678 Mbytes
   Step         PotEng         TotEng           Lx             Ly             Lz           Volume         Press           Pxx            Pyy            Pzz      
        58  -143.92916     -143.92916      7.2247966      7.2247966      7.2247966      377.11767      43754.649      43754.649      43754.649      43754.649    
        59  -143.92916     -143.92916      7.2247966      7.2247966      7.2247966      377.11767      43754.649      43754.649      43754.649      43754.649    
Loop time of 0.00051825 on 8 procs for 1 steps with 32 atoms

Performance: 166.715 ns/day, 0.144 hours/ns, 1929.571 timesteps/s, 61.746 katom-step/s
0.0% CPU use with 8 MPI tasks x 1 OpenMP threads

MPI task timing breakdown:
Section |  min time  |  avg time  |  max time  |%varavg| %total
---------------------------------------------------------------
Pair    | 0.000395   | 0.0004165  | 0.000435   |   0.0 | 80.37
Neigh   | 0          | 0          | 0          |   0.0 |  0.00
Comm    | 5.7e-05    | 7.525e-05  | 9.6e-05    |   0.0 | 14.52
Output  | 1.6e-05    | 1.7375e-05 | 2e-05      |   0.0 |  3.35
Modify  | 0          | 1.25e-07   | 1e-06      |   0.0 |  0.02
Other   |            | 9e-06      |            |       |  1.74

Nlocal:              4 ave          14 max           0 min
Histogram: 1 3 3 0 0 0 0 0 0 1
Nghost:            662 ave         666 max         652 min
Histogram: 1 0 0 0 0 0 0 3 3 1
Neighs:            433 ave        1508 max           0 min
Histogram: 1 3 3 0 0 0 0 0 0 1
FullNghs:          866 ave        3040 max           0 min
Histogram: 1 3 3 0 0 0 0 0 0 1

Total # of neighbors = 6928
Ave neighs/atom = 216.5
Neighbor list builds = 0
Dangerous builds = 0
variable  natoms equal "count(all)"
variable xlength equal "lx"
variable  volume equal "vol"
variable  etotal equal "etotal"
variable    ecoh equal "-pe/v_natoms"
print "${xlength}, ${volume}, ${etotal}, ${ecoh}" append lattice_cohesive_energy.txt screen no

next i
jump SELF loop

change_box all x scale 1.0025 y scale 1.0025 z scale 1.0025 remap
Changing box ...
  orthogonal box = (0.026570689 0.035601685 0.035601685) to (7.2694293 7.2603983 7.2603983)
  orthogonal box = (0.026570689 0.026570689 0.035601685) to (7.2694293 7.2694293 7.2603983)
  orthogonal box = (0.026570689 0.026570689 0.026570689) to (7.2694293 7.2694293 7.2694293)

run 1
WARNING: No fixes with time integration, atoms won't move (src/verlet.cpp:60)
Per MPI rank memory allocation (min/avg/max) = 8.649 | 8.653 | 8.678 Mbytes
   Step         PotEng         TotEng           Lx             Ly             Lz           Volume         Press           Pxx            Pyy            Pzz      
        59  -143.99214     -143.99214      7.2428586      7.2428586      7.2428586      379.95313      27528.176      27528.176      27528.176      27528.176    
        60  -143.99214     -143.99214      7.2428586      7.2428586      7.2428586      379.95313      27528.176      27528.176      27528.176      27528.176    
Loop time of 0.000521625 on 8 procs for 1 steps with 32 atoms

Performance: 165.636 ns/day, 0.145 hours/ns, 1917.086 timesteps/s, 61.347 katom-step/s
0.0% CPU use with 8 MPI tasks x 1 OpenMP threads

MPI task timing breakdown:
Section |  min time  |  avg time  |  max time  |%varavg| %total
---------------------------------------------------------------
Pair    | 0.000399   | 0.00041925 | 0.000436   |   0.0 | 80.37
Neigh   | 0          | 0          | 0          |   0.0 |  0.00
Comm    | 5.8e-05    | 7.45e-05   | 9.5e-05    |   0.0 | 14.28
Output  | 1.7e-05    | 1.9e-05    | 2.2e-05    |   0.0 |  3.64
Modify  | 0          | 2.5e-07    | 1e-06      |   0.0 |  0.05
Other   |            | 8.625e-06  |            |       |  1.65

Nlocal:              4 ave          14 max           0 min
Histogram: 1 3 3 0 0 0 0 0 0 1
Nghost:            662 ave         666 max         652 min
Histogram: 1 0 0 0 0 0 0 3 3 1
Neighs:            430 ave        1502 max           0 min
Histogram: 1 3 3 0 0 0 0 0 0 1
FullNghs:          860 ave        3028 max           0 min
Histogram: 1 3 3 0 0 0 0 0 0 1

Total # of neighbors = 6880
Ave neighs/atom = 215
Neighbor list builds = 0
Dangerous builds = 0
variable  natoms equal "count(all)"
variable xlength equal "lx"
variable  volume equal "vol"
variable  etotal equal "etotal"
variable    ecoh equal "-pe/v_natoms"
print "${xlength}, ${volume}, ${etotal}, ${ecoh}" append lattice_cohesive_energy.txt screen no

next i
jump SELF loop

change_box all x scale 1.0025 y scale 1.0025 z scale 1.0025 remap
Changing box ...
  orthogonal box = (0.017517116 0.026570689 0.026570689) to (7.2784829 7.2694293 7.2694293)
  orthogonal box = (0.017517116 0.017517116 0.026570689) to (7.2784829 7.2784829 7.2694293)
  orthogonal box = (0.017517116 0.017517116 0.017517116) to (7.2784829 7.2784829 7.2784829)

run 1
WARNING: No fixes with time integration, atoms won't move (src/verlet.cpp:60)
Per MPI rank memory allocation (min/avg/max) = 8.649 | 8.653 | 8.678 Mbytes
   Step         PotEng         TotEng           Lx             Ly             Lz           Volume         Press           Pxx            Pyy            Pzz      
        60  -144.02715     -144.02715      7.2609658      7.2609658      7.2609658      382.80991      11859.351      11859.351      11859.351      11859.351    
        61  -144.02715     -144.02715      7.2609658      7.2609658      7.2609658      382.80991      11859.351      11859.351      11859.351      11859.351    
Loop time of 0.00057225 on 8 procs for 1 steps with 32 atoms

Performance: 150.983 ns/day, 0.159 hours/ns, 1747.488 timesteps/s, 55.920 katom-step/s
682.6% CPU use with 8 MPI tasks x 1 OpenMP threads

MPI task timing breakdown:
Section |  min time  |  avg time  |  max time  |%varavg| %total
---------------------------------------------------------------
Pair    | 0.000428   | 0.00045163 | 0.000482   |   0.0 | 78.92
Neigh   | 0          | 0          | 0          |   0.0 |  0.00
Comm    | 5.8e-05    | 8.625e-05  | 0.000108   |   0.0 | 15.07
Output  | 2e-05      | 2.2625e-05 | 2.5e-05    |   0.0 |  3.95
Modify  | 0          | 3.75e-07   | 2e-06      |   0.0 |  0.07
Other   |            | 1.138e-05  |            |       |  1.99

Nlocal:              4 ave          14 max           0 min
Histogram: 1 3 3 0 0 0 0 0 0 1
Nghost:            662 ave         666 max         652 min
Histogram: 1 0 0 0 0 0 0 3 3 1
Neighs:            418 ave        1442 max           0 min
Histogram: 1 3 3 0 0 0 0 0 0 1
FullNghs:          836 ave        2908 max           0 min
Histogram: 1 3 3 0 0 0 0 0 0 1

Total # of neighbors = 6688
Ave neighs/atom = 209
Neighbor list builds = 0
Dangerous builds = 0
variable  natoms equal "count(all)"
variable xlength equal "lx"
variable  volume equal "vol"
variable  etotal equal "etotal"
variable    ecoh equal "-pe/v_natoms"
print "${xlength}, ${volume}, ${etotal}, ${ecoh}" append lattice_cohesive_energy.txt screen no

next i
jump SELF loop

change_box all x scale 1.0025 y scale 1.0025 z scale 1.0025 remap
Changing box ...
  orthogonal box = (0.0084409086 0.017517116 0.017517116) to (7.2875591 7.2784829 7.2784829)
  orthogonal box = (0.0084409086 0.0084409086 0.017517116) to (7.2875591 7.2875591 7.2784829)
  orthogonal box = (0.0084409086 0.0084409086 0.0084409086) to (7.2875591 7.2875591 7.2875591)

run 1
WARNING: No fixes with time integration, atoms won't move (src/verlet.cpp:60)
Per MPI rank memory allocation (min/avg/max) = 8.649 | 8.653 | 8.678 Mbytes
   Step         PotEng         TotEng           Lx             Ly             Lz           Volume         Press           Pxx            Pyy            Pzz      
        61  -144.03478     -144.03478      7.2791182      7.2791182      7.2791182      385.68816     -3265.0154     -3265.0154     -3265.0154     -3265.0154    
        62  -144.03478     -144.03478      7.2791182      7.2791182      7.2791182      385.68816     -3265.0154     -3265.0154     -3265.0154     -3265.0154    
Loop time of 0.00050925 on 8 procs for 1 steps with 32 atoms

Performance: 169.661 ns/day, 0.141 hours/ns, 1963.672 timesteps/s, 62.838 katom-step/s
0.0% CPU use with 8 MPI tasks x 1 OpenMP threads

MPI task timing breakdown:
Section |  min time  |  avg time  |  max time  |%varavg| %total
---------------------------------------------------------------
Pair    | 0.000385   | 0.00040613 | 0.000429   |   0.0 | 79.75
Neigh   | 0          | 0          | 0          |   0.0 |  0.00
Comm    | 5.4e-05    | 7.6375e-05 | 9.7e-05    |   0.0 | 15.00
Output  | 1.6e-05    | 1.7625e-05 | 1.9e-05    |   0.0 |  3.46
Modify  | 0          | 6.25e-07   | 1e-06      |   0.0 |  0.12
Other   |            | 8.5e-06    |            |       |  1.67

Nlocal:              4 ave          14 max           0 min
Histogram: 1 3 3 0 0 0 0 0 0 1
Nghost:            662 ave         666 max         652 min
Histogram: 1 0 0 0 0 0 0 3 3 1
Neighs:            409 ave        1423 max           0 min
Histogram: 1 3 3 0 0 0 0 0 0 1
FullNghs:          818 ave        2872 max           0 min
Histogram: 1 3 3 0 0 0 0 0 0 1

Total # of neighbors = 6544
Ave neighs/atom = 204.5
Neighbor list builds = 0
Dangerous builds = 0
variable  natoms equal "count(all)"
variable xlength equal "lx"
variable  volume equal "vol"
variable  etotal equal "etotal"
variable    ecoh equal "-pe/v_natoms"
print "${xlength}, ${volume}, ${etotal}, ${ecoh}" append lattice_cohesive_energy.txt screen no

next i
jump SELF loop

change_box all x scale 1.0025 y scale 1.0025 z scale 1.0025 remap
Changing box ...
  orthogonal box = (-0.00065798913 0.0084409086 0.0084409086) to (7.296658 7.2875591 7.2875591)
  orthogonal box = (-0.00065798913 -0.00065798913 0.0084409086) to (7.296658 7.296658 7.2875591)
  orthogonal box = (-0.00065798913 -0.00065798913 -0.00065798913) to (7.296658 7.296658 7.296658)

run 1
WARNING: No fixes with time integration, atoms won't move (src/verlet.cpp:60)
Per MPI rank memory allocation (min/avg/max) = 8.649 | 8.653 | 8.678 Mbytes
   Step         PotEng         TotEng           Lx             Ly             Lz           Volume         Press           Pxx            Pyy            Pzz      
        62  -144.01557     -144.01557      7.297316       7.297316       7.297316       388.58806     -17857.851     -17857.851     -17857.851     -17857.851    
        63  -144.01557     -144.01557      7.297316       7.297316       7.297316       388.58806     -17857.851     -17857.851     -17857.851     -17857.851    
Loop time of 0.000516 on 8 procs for 1 steps with 32 atoms

Performance: 167.442 ns/day, 0.143 hours/ns, 1937.984 timesteps/s, 62.016 katom-step/s
0.0% CPU use with 8 MPI tasks x 1 OpenMP threads

MPI task timing breakdown:
Section |  min time  |  avg time  |  max time  |%varavg| %total
---------------------------------------------------------------
Pair    | 0.000394   | 0.00041337 | 0.000436   |   0.0 | 80.11
Neigh   | 0          | 0          | 0          |   0.0 |  0.00
Comm    | 5.5e-05    | 7.625e-05  | 9.4e-05    |   0.0 | 14.78
Output  | 1.6e-05    | 1.7875e-05 | 1.9e-05    |   0.0 |  3.46
Modify  | 0          | 1.25e-07   | 1e-06      |   0.0 |  0.02
Other   |            | 8.375e-06  |            |       |  1.62

Nlocal:              4 ave          14 max           0 min
Histogram: 1 3 3 0 0 0 0 0 0 1
Nghost:            662 ave         666 max         652 min
Histogram: 1 0 0 0 0 0 0 3 3 1
Neighs:            406 ave        1410 max           0 min
Histogram: 1 3 3 0 0 0 0 0 0 1
FullNghs:          812 ave        2842 max           0 min
Histogram: 1 3 3 0 0 0 0 0 0 1

Total # of neighbors = 6496
Ave neighs/atom = 203
Neighbor list builds = 0
Dangerous builds = 0
variable  natoms equal "count(all)"
variable xlength equal "lx"
variable  volume equal "vol"
variable  etotal equal "etotal"
variable    ecoh equal "-pe/v_natoms"
print "${xlength}, ${volume}, ${etotal}, ${ecoh}" append lattice_cohesive_energy.txt screen no

next i
jump SELF loop

change_box all x scale 1.0025 y scale 1.0025 z scale 1.0025 remap
Changing box ...
  orthogonal box = (-0.0097796341 -0.00065798913 -0.00065798913) to (7.3057796 7.296658 7.296658)
  orthogonal box = (-0.0097796341 -0.0097796341 -0.00065798913) to (7.3057796 7.3057796 7.296658)
  orthogonal box = (-0.0097796341 -0.0097796341 -0.0097796341) to (7.3057796 7.3057796 7.3057796)

run 1
WARNING: No fixes with time integration, atoms won't move (src/verlet.cpp:60)
Per MPI rank memory allocation (min/avg/max) = 8.649 | 8.653 | 8.678 Mbytes
   Step         PotEng         TotEng           Lx             Ly             Lz           Volume         Press           Pxx            Pyy            Pzz      
        63  -143.97007     -143.97007      7.3155593      7.3155593      7.3155593      391.50977     -31931.863     -31931.863     -31931.863     -31931.863    
        64  -143.97007     -143.97007      7.3155593      7.3155593      7.3155593      391.50977     -31931.863     -31931.863     -31931.863     -31931.863    
Loop time of 0.000501125 on 8 procs for 1 steps with 32 atoms

Performance: 172.412 ns/day, 0.139 hours/ns, 1995.510 timesteps/s, 63.856 katom-step/s
0.0% CPU use with 8 MPI tasks x 1 OpenMP threads

MPI task timing breakdown:
Section |  min time  |  avg time  |  max time  |%varavg| %total
---------------------------------------------------------------
Pair    | 0.000382   | 0.00040075 | 0.000423   |   0.0 | 79.97
Neigh   | 0          | 0          | 0          |   0.0 |  0.00
Comm    | 5.4e-05    | 7.4375e-05 | 9.2e-05    |   0.0 | 14.84
Output  | 1.6e-05    | 1.8e-05    | 2e-05      |   0.0 |  3.59
Modify  | 0          | 0          | 0          |   0.0 |  0.00
Other   |            | 8e-06      |            |       |  1.60

Nlocal:              4 ave          14 max           0 min
Histogram: 1 3 3 0 0 0 0 0 0 1
Nghost:            662 ave         666 max         652 min
Histogram: 1 0 0 0 0 0 0 3 3 1
Neighs:            406 ave        1410 max           0 min
Histogram: 1 3 3 0 0 0 0 0 0 1
FullNghs:          812 ave        2842 max           0 min
Histogram: 1 3 3 0 0 0 0 0 0 1

Total # of neighbors = 6496
Ave neighs/atom = 203
Neighbor list builds = 0
Dangerous builds = 0
variable  natoms equal "count(all)"
variable xlength equal "lx"
variable  volume equal "vol"
variable  etotal equal "etotal"
variable    ecoh equal "-pe/v_natoms"
print "${xlength}, ${volume}, ${etotal}, ${ecoh}" append lattice_cohesive_energy.txt screen no

next i
jump SELF loop

change_box all x scale 1.0025 y scale 1.0025 z scale 1.0025 remap
Changing box ...
  orthogonal box = (-0.018924083 -0.0097796341 -0.0097796341) to (7.3149241 7.3057796 7.3057796)
  orthogonal box = (-0.018924083 -0.018924083 -0.0097796341) to (7.3149241 7.3149241 7.3057796)
  orthogonal box = (-0.018924083 -0.018924083 -0.018924083) to (7.3149241 7.3149241 7.3149241)

run 1
WARNING: No fixes with time integration, atoms won't move (src/verlet.cpp:60)
Per MPI rank memory allocation (min/avg/max) = 8.649 | 8.653 | 8.678 Mbytes
   Step         PotEng         TotEng           Lx             Ly             Lz           Volume         Press           Pxx            Pyy            Pzz      
        64  -143.89885     -143.89885      7.3338482      7.3338482      7.3338482      394.45344     -45499.525     -45499.525     -45499.525     -45499.525    
        65  -143.89885     -143.89885      7.3338482      7.3338482      7.3338482      394.45344     -45499.525     -45499.525     -45499.525     -45499.525    
Loop time of 0.000511125 on 8 procs for 1 steps with 32 atoms

Performance: 169.039 ns/day, 0.142 hours/ns, 1956.469 timesteps/s, 62.607 katom-step/s
382.1% CPU use with 8 MPI tasks x 1 OpenMP threads

MPI task timing breakdown:
Section |  min time  |  avg time  |  max time  |%varavg| %total
---------------------------------------------------------------
Pair    | 0.000391   | 0.00041037 | 0.000433   |   0.0 | 80.29
Neigh   | 0          | 0          | 0          |   0.0 |  0.00
Comm    | 5.2e-05    | 7.4375e-05 | 9.3e-05    |   0.0 | 14.55
Output  | 1.6e-05    | 1.775e-05  | 1.9e-05    |   0.0 |  3.47
Modify  | 0          | 1.25e-07   | 1e-06      |   0.0 |  0.02
Other   |            | 8.5e-06    |            |       |  1.66

Nlocal:              4 ave          14 max           0 min
Histogram: 1 3 3 0 0 0 0 0 0 1
Nghost:            662 ave         666 max         652 min
Histogram: 1 0 0 0 0 0 0 3 3 1
Neighs:            403 ave        1397 max           0 min
Histogram: 1 3 3 0 0 0 0 0 0 1
FullNghs:          806 ave        2812 max           0 min
Histogram: 1 3 3 0 0 0 0 0 0 1

Total # of neighbors = 6448
Ave neighs/atom = 201.5
Neighbor list builds = 0
Dangerous builds = 0
variable  natoms equal "count(all)"
variable xlength equal "lx"
variable  volume equal "vol"
variable  etotal equal "etotal"
variable    ecoh equal "-pe/v_natoms"
print "${xlength}, ${volume}, ${etotal}, ${ecoh}" append lattice_cohesive_energy.txt screen no

next i
jump SELF loop

change_box all x scale 1.0025 y scale 1.0025 z scale 1.0025 remap
Changing box ...
  orthogonal box = (-0.028091393 -0.018924083 -0.018924083) to (7.3240914 7.3149241 7.3149241)
  orthogonal box = (-0.028091393 -0.028091393 -0.018924083) to (7.3240914 7.3240914 7.3149241)
  orthogonal box = (-0.028091393 -0.028091393 -0.028091393) to (7.3240914 7.3240914 7.3240914)

run 1
WARNING: No fixes with time integration, atoms won't move (src/verlet.cpp:60)
Per MPI rank memory allocation (min/avg/max) = 8.649 | 8.653 | 8.678 Mbytes
   Step         PotEng         TotEng           Lx             Ly             Lz           Volume         Press           Pxx            Pyy            Pzz      
        65  -143.80243     -143.80243      7.3521828      7.3521828      7.3521828      397.41924     -58573.07      -58573.07      -58573.07      -58573.07     
        66  -143.80243     -143.80243      7.3521828      7.3521828      7.3521828      397.41924     -58573.07      -58573.07      -58573.07      -58573.07     
Loop time of 0.0005145 on 8 procs for 1 steps with 32 atoms

Performance: 167.930 ns/day, 0.143 hours/ns, 1943.635 timesteps/s, 62.196 katom-step/s
[...]
Pair    | 0.000652   | 0.00068563 | 0.000749   |   0.0 | 78.91
Neigh   | 0          | 0          | 0          |   0.0 |  0.00
Comm    | 7.1e-05    | 0.00013275 | 0.000165   |   0.0 | 15.28
Output  | 1.9e-05    | 2.3125e-05 | 4e-05      |   0.0 |  2.66
Modify  | 0          | 1.25e-07   | 1e-06      |   0.0 |  0.01
Other   |            | 2.725e-05  |            |       |  3.14

Nlocal:              4 ave          14 max           0 min
Histogram: 1 3 3 0 0 0 0 0 0 1
Nghost:            662 ave         666 max         652 min
Histogram: 1 0 0 0 0 0 0 3 3 1
Neighs:            382 ave        1348 max           0 min
Histogram: 1 3 3 0 0 0 0 0 0 1
FullNghs:          764 ave        2728 max           0 min
Histogram: 1 3 3 0 0 0 0 0 0 1

Total # of neighbors = 6112
Ave neighs/atom = 191
Neighbor list builds = 0
Dangerous builds = 0
variable  natoms equal "count(all)"
variable xlength equal "lx"
variable  volume equal "vol"
variable  etotal equal "etotal"
variable    ecoh equal "-pe/v_natoms"
print "${xlength}, ${volume}, ${etotal}, ${ecoh}" append lattice_cohesive_energy.txt screen no

next i
jump SELF loop

change_box all x scale 1.0025 y scale 1.0025 z scale 1.0025 remap
Changing box ...
  orthogonal box = (-0.15886642 -0.14937299 -0.14937299) to (7.4548664 7.445373 7.445373)
  orthogonal box = (-0.15886642 -0.15886642 -0.14937299) to (7.4548664 7.4548664 7.445373)
  orthogonal box = (-0.15886642 -0.15886642 -0.15886642) to (7.4548664 7.4548664 7.4548664)

run 1
WARNING: No fixes with time integration, atoms won't move (src/verlet.cpp:60)
Per MPI rank memory allocation (min/avg/max) = 8.649 | 8.653 | 8.678 Mbytes
   Step         PotEng         TotEng           Lx             Ly             Lz           Volume         Press           Pxx            Pyy            Pzz      
        79  -140.09665     -140.09665      7.6137328      7.6137328      7.6137328      441.35993     -196035.43     -196035.43     -196035.43     -196035.43    
        80  -140.09665     -140.09665      7.6137328      7.6137328      7.6137328      441.35993     -196035.43     -196035.43     -196035.43     -196035.43    
Loop time of 0.000843 on 8 procs for 1 steps with 32 atoms

Performance: 102.491 ns/day, 0.234 hours/ns, 1186.240 timesteps/s, 37.960 katom-step/s
0.0% CPU use with 8 MPI tasks x 1 OpenMP threads

MPI task timing breakdown:
Section |  min time  |  avg time  |  max time  |%varavg| %total
---------------------------------------------------------------
Pair    | 0.000645   | 0.00067925 | 0.000743   |   0.0 | 80.58
Neigh   | 0          | 0          | 0          |   0.0 |  0.00
Comm    | 7.2e-05    | 0.00013312 | 0.000165   |   0.0 | 15.79
Output  | 1.9e-05    | 2.0125e-05 | 2.3e-05    |   0.0 |  2.39
Modify  | 0          | 2.5e-07    | 1e-06      |   0.0 |  0.03
Other   |            | 1.025e-05  |            |       |  1.22

Nlocal:              4 ave          14 max           0 min
Histogram: 1 3 3 0 0 0 0 0 0 1
Nghost:            662 ave         666 max         652 min
Histogram: 1 0 0 0 0 0 0 3 3 1
Neighs:            370 ave        1252 max           0 min
Histogram: 1 3 1 2 0 0 0 0 0 1
FullNghs:          740 ave        2536 max           0 min
Histogram: 1 3 3 0 0 0 0 0 0 1

Total # of neighbors = 5920
Ave neighs/atom = 185
Neighbor list builds = 0
Dangerous builds = 0
variable  natoms equal "count(all)"
variable xlength equal "lx"
variable  volume equal "vol"
variable  etotal equal "etotal"
variable    ecoh equal "-pe/v_natoms"
print "${xlength}, ${volume}, ${etotal}, ${ecoh}" append lattice_cohesive_energy.txt screen no

next i
jump SELF loop

change_box all x scale 1.0025 y scale 1.0025 z scale 1.0025 remap
Changing box ...
  orthogonal box = (-0.16838359 -0.15886642 -0.15886642) to (7.4643836 7.4548664 7.4548664)
  orthogonal box = (-0.16838359 -0.16838359 -0.15886642) to (7.4643836 7.4643836 7.4548664)
  orthogonal box = (-0.16838359 -0.16838359 -0.16838359) to (7.4643836 7.4643836 7.4643836)

run 1
WARNING: No fixes with time integration, atoms won't move (src/verlet.cpp:60)
Per MPI rank memory allocation (min/avg/max) = 8.649 | 8.653 | 8.678 Mbytes
   Step         PotEng         TotEng           Lx             Ly             Lz           Volume         Press           Pxx            Pyy            Pzz      
        80  -139.68332     -139.68332      7.6327672      7.6327672      7.6327672      444.67841     -203014.35     -203014.35     -203014.35     -203014.35    
        81  -139.68332     -139.68332      7.6327672      7.6327672      7.6327672      444.67841     -203014.35     -203014.35     -203014.35     -203014.35    
Loop time of 0.000839125 on 8 procs for 1 steps with 32 atoms

Performance: 102.964 ns/day, 0.233 hours/ns, 1191.718 timesteps/s, 38.135 katom-step/s
0.0% CPU use with 8 MPI tasks x 1 OpenMP threads

MPI task timing breakdown:
Section |  min time  |  avg time  |  max time  |%varavg| %total
---------------------------------------------------------------
Pair    | 0.000639   | 0.00067512 | 0.00074    |   0.0 | 80.46
Neigh   | 0          | 0          | 0          |   0.0 |  0.00
Comm    | 7.1e-05    | 0.00013338 | 0.000167   |   0.0 | 15.89
Output  | 1.8e-05    | 1.9625e-05 | 2.2e-05    |   0.0 |  2.34
Modify  | 0          | 1.25e-07   | 1e-06      |   0.0 |  0.01
Other   |            | 1.088e-05  |            |       |  1.30

Nlocal:              4 ave          14 max           0 min
Histogram: 1 3 3 0 0 0 0 0 0 1
Nghost:            662 ave         666 max         652 min
Histogram: 1 0 0 0 0 0 0 3 3 1
Neighs:            358 ave        1235 max           0 min
Histogram: 1 3 3 0 0 0 0 0 0 1
FullNghs:          716 ave        2488 max           0 min
Histogram: 1 3 3 0 0 0 0 0 0 1

Total # of neighbors = 5728
Ave neighs/atom = 179
Neighbor list builds = 0
Dangerous builds = 0
variable  natoms equal "count(all)"
variable xlength equal "lx"
variable  volume equal "vol"
variable  etotal equal "etotal"
variable    ecoh equal "-pe/v_natoms"
print "${xlength}, ${volume}, ${etotal}, ${ecoh}" append lattice_cohesive_energy.txt screen no

next i
jump SELF loop

change_box all x scale 1.0025 y scale 1.0025 z scale 1.0025 remap
Changing box ...
  orthogonal box = (-0.17792455 -0.16838359 -0.16838359) to (7.4739245 7.4643836 7.4643836)
  orthogonal box = (-0.17792455 -0.17792455 -0.16838359) to (7.4739245 7.4739245 7.4643836)
  orthogonal box = (-0.17792455 -0.17792455 -0.17792455) to (7.4739245 7.4739245 7.4739245)

run 1
WARNING: No fixes with time integration, atoms won't move (src/verlet.cpp:60)
Per MPI rank memory allocation (min/avg/max) = 8.649 | 8.653 | 8.678 Mbytes
   Step         PotEng         TotEng           Lx             Ly             Lz           Volume         Press           Pxx            Pyy            Pzz      
        81  -139.25267     -139.25267      7.6518491      7.6518491      7.6518491      448.02184     -209665.43     -209665.43     -209665.43     -209665.43    
        82  -139.25267     -139.25267      7.6518491      7.6518491      7.6518491      448.02184     -209665.43     -209665.43     -209665.43     -209665.43    
Loop time of 0.000830375 on 8 procs for 1 steps with 32 atoms

Performance: 104.049 ns/day, 0.231 hours/ns, 1204.275 timesteps/s, 38.537 katom-step/s
0.0% CPU use with 8 MPI tasks x 1 OpenMP threads

MPI task timing breakdown:
Section |  min time  |  avg time  |  max time  |%varavg| %total
---------------------------------------------------------------
Pair    | 0.000633   | 0.00066662 | 0.00073    |   0.0 | 80.28
Neigh   | 0          | 0          | 0          |   0.0 |  0.00
Comm    | 7.1e-05    | 0.00013263 | 0.000163   |   0.0 | 15.97
Output  | 1.9e-05    | 2.025e-05  | 2.3e-05    |   0.0 |  2.44
Modify  | 0          | 2.5e-07    | 1e-06      |   0.0 |  0.03
Other   |            | 1.063e-05  |            |       |  1.28

Nlocal:              4 ave          14 max           0 min
Histogram: 1 3 3 0 0 0 0 0 0 1
Nghost:            662 ave         666 max         652 min
Histogram: 1 0 0 0 0 0 0 3 3 1
Neighs:            358 ave        1235 max           0 min
Histogram: 1 3 3 0 0 0 0 0 0 1
FullNghs:          716 ave        2488 max           0 min
Histogram: 1 3 3 0 0 0 0 0 0 1

Total # of neighbors = 5728
Ave neighs/atom = 179
Neighbor list builds = 0
Dangerous builds = 0
variable  natoms equal "count(all)"
variable xlength equal "lx"
variable  volume equal "vol"
variable  etotal equal "etotal"
variable    ecoh equal "-pe/v_natoms"
print "${xlength}, ${volume}, ${etotal}, ${ecoh}" append lattice_cohesive_energy.txt screen no

next i
jump SELF loop

change_box all x scale 1.0025 y scale 1.0025 z scale 1.0025 remap
Changing box ...
  orthogonal box = (-0.18748936 -0.17792455 -0.17792455) to (7.4834894 7.4739245 7.4739245)
  orthogonal box = (-0.18748936 -0.18748936 -0.17792455) to (7.4834894 7.4834894 7.4739245)
  orthogonal box = (-0.18748936 -0.18748936 -0.18748936) to (7.4834894 7.4834894 7.4834894)

run 1
WARNING: No fixes with time integration, atoms won't move (src/verlet.cpp:60)
Per MPI rank memory allocation (min/avg/max) = 8.649 | 8.653 | 8.678 Mbytes
   Step         PotEng         TotEng           Lx             Ly             Lz           Volume         Press           Pxx            Pyy            Pzz      
        82  -138.80513     -138.80513      7.6709787      7.6709787      7.6709787      451.39042     -215997.39     -215997.39     -215997.39     -215997.39    
        83  -138.80513     -138.80513      7.6709787      7.6709787      7.6709787      451.39042     -215997.39     -215997.39     -215997.39     -215997.39    
Loop time of 0.000829 on 8 procs for 1 steps with 32 atoms

Performance: 104.222 ns/day, 0.230 hours/ns, 1206.273 timesteps/s, 38.601 katom-step/s
235.6% CPU use with 8 MPI tasks x 1 OpenMP threads

MPI task timing breakdown:
Section |  min time  |  avg time  |  max time  |%varavg| %total
---------------------------------------------------------------
Pair    | 0.000649   | 0.00067537 | 0.000723   |   0.0 | 81.47
Neigh   | 0          | 0          | 0          |   0.0 |  0.00
Comm    | 6.4e-05    | 0.0001105  | 0.000136   |   0.0 | 13.33
Output  | 1.8e-05    | 2.2625e-05 | 3.5e-05    |   0.0 |  2.73
Modify  | 0          | 3.75e-07   | 1e-06      |   0.0 |  0.05
Other   |            | 2.013e-05  |            |       |  2.43

Nlocal:              4 ave          14 max           0 min
Histogram: 1 3 3 0 0 0 0 0 0 1
Nghost:            662 ave         666 max         652 min
Histogram: 1 0 0 0 0 0 0 3 3 1
Neighs:            352 ave        1229 max           0 min
Histogram: 1 3 3 0 0 0 0 0 0 1
FullNghs:          704 ave        2464 max           0 min
Histogram: 1 3 3 0 0 0 0 0 0 1

Total # of neighbors = 5632
Ave neighs/atom = 176
Neighbor list builds = 0
Dangerous builds = 0
variable  natoms equal "count(all)"
variable xlength equal "lx"
variable  volume equal "vol"
variable  etotal equal "etotal"
variable    ecoh equal "-pe/v_natoms"
print "${xlength}, ${volume}, ${etotal}, ${ecoh}" append lattice_cohesive_energy.txt screen no

next i
jump SELF loop

change_box all x scale 1.0025 y scale 1.0025 z scale 1.0025 remap
Changing box ...
  orthogonal box = (-0.19707808 -0.18748936 -0.18748936) to (7.4930781 7.4834894 7.4834894)
  orthogonal box = (-0.19707808 -0.19707808 -0.18748936) to (7.4930781 7.4930781 7.4834894)
  orthogonal box = (-0.19707808 -0.19707808 -0.19707808) to (7.4930781 7.4930781 7.4930781)

run 1
WARNING: No fixes with time integration, atoms won't move (src/verlet.cpp:60)
Per MPI rank memory allocation (min/avg/max) = 8.649 | 8.653 | 8.678 Mbytes
   Step         PotEng         TotEng           Lx             Ly             Lz           Volume         Press           Pxx            Pyy            Pzz      
        83  -138.34114     -138.34114      7.6901562      7.6901562      7.6901562      454.78431     -222018.76     -222018.76     -222018.76     -222018.76    
        84  -138.34114     -138.34114      7.6901562      7.6901562      7.6901562      454.78431     -222018.76     -222018.76     -222018.76     -222018.76    
Loop time of 0.00049325 on 8 procs for 1 steps with 32 atoms

Performance: 175.165 ns/day, 0.137 hours/ns, 2027.369 timesteps/s, 64.876 katom-step/s
0.0% CPU use with 8 MPI tasks x 1 OpenMP threads

MPI task timing breakdown:
Section |  min time  |  avg time  |  max time  |%varavg| %total
---------------------------------------------------------------
Pair    | 0.000368   | 0.00038625 | 0.000415   |   0.0 | 78.31
Neigh   | 0          | 0          | 0          |   0.0 |  0.00
Comm    | 5.4e-05    | 8.0875e-05 | 9.8e-05    |   0.0 | 16.40
Output  | 1.6e-05    | 1.7875e-05 | 2e-05      |   0.0 |  3.62
Modify  | 0          | 2.5e-07    | 1e-06      |   0.0 |  0.05
Other   |            | 8e-06      |            |       |  1.62

Nlocal:              4 ave          14 max           0 min
Histogram: 1 3 3 0 0 0 0 0 0 1
Nghost:            662 ave         666 max         652 min
Histogram: 1 0 0 0 0 0 0 3 3 1
Neighs:            352 ave        1229 max           0 min
Histogram: 1 3 3 0 0 0 0 0 0 1
FullNghs:          704 ave        2464 max           0 min
Histogram: 1 3 3 0 0 0 0 0 0 1

Total # of neighbors = 5632
Ave neighs/atom = 176
Neighbor list builds = 0
Dangerous builds = 0
variable  natoms equal "count(all)"
variable xlength equal "lx"
variable  volume equal "vol"
variable  etotal equal "etotal"
variable    ecoh equal "-pe/v_natoms"
print "${xlength}, ${volume}, ${etotal}, ${ecoh}" append lattice_cohesive_energy.txt screen no

next i
jump SELF loop

change_box all x scale 1.0025 y scale 1.0025 z scale 1.0025 remap
Changing box ...
  orthogonal box = (-0.20669078 -0.19707808 -0.19707808) to (7.5026908 7.4930781 7.4930781)
  orthogonal box = (-0.20669078 -0.20669078 -0.19707808) to (7.5026908 7.5026908 7.4930781)
  orthogonal box = (-0.20669078 -0.20669078 -0.20669078) to (7.5026908 7.5026908 7.5026908)

run 1
WARNING: No fixes with time integration, atoms won't move (src/verlet.cpp:60)
Per MPI rank memory allocation (min/avg/max) = 8.649 | 8.653 | 8.678 Mbytes
   Step         PotEng         TotEng           Lx             Ly             Lz           Volume         Press           Pxx            Pyy            Pzz      
        84  -137.86113     -137.86113      7.7093816      7.7093816      7.7093816      458.20373     -227737.93     -227737.93     -227737.93     -227737.93    
        85  -137.86113     -137.86113      7.7093816      7.7093816      7.7093816      458.20373     -227737.93     -227737.93     -227737.93     -227737.93    
Loop time of 0.000531875 on 8 procs for 1 steps with 32 atoms

Performance: 162.444 ns/day, 0.148 hours/ns, 1880.141 timesteps/s, 60.165 katom-step/s
0.0% CPU use with 8 MPI tasks x 1 OpenMP threads

MPI task timing breakdown:
Section |  min time  |  avg time  |  max time  |%varavg| %total
---------------------------------------------------------------
Pair    | 0.000397   | 0.000427   | 0.000451   |   0.0 | 80.28
Neigh   | 0          | 0          | 0          |   0.0 |  0.00
Comm    | 5.5e-05    | 7.7875e-05 | 0.000107   |   0.0 | 14.64
Output  | 1.5e-05    | 1.8625e-05 | 2.2e-05    |   0.0 |  3.50
Modify  | 0          | 1.25e-07   | 1e-06      |   0.0 |  0.02
Other   |            | 8.25e-06   |            |       |  1.55

Nlocal:              4 ave          14 max           0 min
Histogram: 1 3 3 0 0 0 0 0 0 1
Nghost:            662 ave         666 max         652 min
Histogram: 1 0 0 0 0 0 0 3 3 1
Neighs:            352 ave        1229 max           0 min
Histogram: 1 3 3 0 0 0 0 0 0 1
FullNghs:          704 ave        2464 max           0 min
Histogram: 1 3 3 0 0 0 0 0 0 1

Total # of neighbors = 5632
Ave neighs/atom = 176
Neighbor list builds = 0
Dangerous builds = 0
variable  natoms equal "count(all)"
variable xlength equal "lx"
variable  volume equal "vol"
variable  etotal equal "etotal"
variable    ecoh equal "-pe/v_natoms"
print "${xlength}, ${volume}, ${etotal}, ${ecoh}" append lattice_cohesive_energy.txt screen no

next i
jump SELF loop

change_box all x scale 1.0025 y scale 1.0025 z scale 1.0025 remap
Changing box ...
  orthogonal box = (-0.2163275 -0.20669078 -0.20669078) to (7.5123275 7.5026908 7.5026908)
  orthogonal box = (-0.2163275 -0.2163275 -0.20669078) to (7.5123275 7.5123275 7.5026908)
  orthogonal box = (-0.2163275 -0.2163275 -0.2163275) to (7.5123275 7.5123275 7.5123275)

run 1
WARNING: No fixes with time integration, atoms won't move (src/verlet.cpp:60)
Per MPI rank memory allocation (min/avg/max) = 8.649 | 8.653 | 8.678 Mbytes
   Step         PotEng         TotEng           Lx             Ly             Lz           Volume         Press           Pxx            Pyy            Pzz      
        85  -137.36554     -137.36554      7.728655       7.728655       7.728655       461.64886     -233163.08     -233163.08     -233163.08     -233163.08    
        86  -137.36554     -137.36554      7.728655       7.728655       7.728655       461.64886     -233163.08     -233163.08     -233163.08     -233163.08    
Loop time of 0.0005235 on 8 procs for 1 steps with 32 atoms

Performance: 165.043 ns/day, 0.145 hours/ns, 1910.220 timesteps/s, 61.127 katom-step/s
0.0% CPU use with 8 MPI tasks x 1 OpenMP threads

MPI task timing breakdown:
Section |  min time  |  avg time  |  max time  |%varavg| %total
---------------------------------------------------------------
Pair    | 0.000393   | 0.00042125 | 0.000443   |   0.0 | 80.47
Neigh   | 0          | 0          | 0          |   0.0 |  0.00
Comm    | 5.5e-05    | 7.5e-05    | 0.000101   |   0.0 | 14.33
Output  | 1.6e-05    | 1.875e-05  | 2.2e-05    |   0.0 |  3.58
Modify  | 0          | 3.75e-07   | 2e-06      |   0.0 |  0.07
Other   |            | 8.125e-06  |            |       |  1.55

Nlocal:              4 ave          14 max           0 min
Histogram: 1 3 3 0 0 0 0 0 0 1
Nghost:            662 ave         666 max         652 min
Histogram: 1 0 0 0 0 0 0 3 3 1
Neighs:            352 ave        1229 max           0 min
Histogram: 1 3 3 0 0 0 0 0 0 1
FullNghs:          704 ave        2464 max           0 min
Histogram: 1 3 3 0 0 0 0 0 0 1

Total # of neighbors = 5632
Ave neighs/atom = 176
Neighbor list builds = 0
Dangerous builds = 0
variable  natoms equal "count(all)"
variable xlength equal "lx"
variable  volume equal "vol"
variable  etotal equal "etotal"
variable    ecoh equal "-pe/v_natoms"
print "${xlength}, ${volume}, ${etotal}, ${ecoh}" append lattice_cohesive_energy.txt screen no

next i
jump SELF loop

print "-------------------------------------------------------------"
-------------------------------------------------------------
print "Show results of 1st step (Running Minimization)"
Show results of 1st step (Running Minimization)
print "The number of atoms = ${natoms};"
The number of atoms = 32;
print "The lattice constant, x (Angstoms) = ${x0};"
The lattice constant, x (Angstoms) = 7.72865500660643;
print "The lattice constant, y (Angstoms) = ${y0};"
The lattice constant, y (Angstoms) = 7.72865500660643;
print "The lattice constant, z (Angstoms) = ${z0};"
The lattice constant, z (Angstoms) = 7.72865500660643;
print "The volume (Angstoms^3) = ${v0};"
The volume (Angstoms^3) = 461.648857181205;
print "The total energy (eV) = ${etot0};"
The total energy (eV) = -137.365542565424;
print "The cohesive energy (eV/atom) = ${ecoh0};"
The cohesive energy (eV/atom) = 4.29267320516949;
print "-------------------------------------------------------------"
-------------------------------------------------------------
print "Simulations completed !"
Simulations completed !
Total wall time: 0:00:00
