LAMMPS (18 Jun 2019)
OMP_NUM_THREADS environment is not set. Defaulting to 1 thread. (../comm.cpp:88)
  using 1 OpenMP thread(s) per MPI task
#LAMMPS Input file
# Title
clear
OMP_NUM_THREADS environment is not set. Defaulting to 1 thread. (../comm.cpp:88)
  using 1 OpenMP thread(s) per MPI task

# ----- condition settings -----

variable    temp index 77.0 # K

variable    pres index 1.0 # 0.1 MPa (bar units)


# -----other settings -----
variable        fs    index 0.0010 # 1.0 fs
variable        ps    index 20 # 20 ps
variable        nstep equal ${ps}/${fs}
variable        nstep equal 20/${fs}
variable        nstep equal 20/0.0010
variable        tdamp equal ${fs}*100
variable        tdamp equal 0.0010*100
variable        pdamp equal ${fs}*1000
variable        pdamp equal 0.0010*1000

# ----- Structure settings -----
units           metal
atom_style      atomic
dimension       3
boundary        p p p
read_data       data_5x4x4.in
  orthogonal box = (-9.00663 -7.20531 -7.20531) to (9.00663 7.20531 7.20531)
  1 by 1 by 1 MPI processor grid
  reading atoms ...
  320 atoms
  reading velocities ...
  320 velocities
  read_data CPU = 0.0149679 secs
replicate       1 1 1
  orthogonal box = (-9.00663 -7.20531 -7.20531) to (9.00663 7.20531 7.20531)
  1 by 1 by 1 MPI processor grid
  320 atoms
  replicate CPU = 0.00598216 secs
timestep        ${fs}
timestep        0.0010

# ----- Potential settings (MEAM)-----
# -----HEA (Co-Ni-Cr-Fe-Mn)
pair_style      meam/c
pair_coeff      * * ./meam/CoNiCrFeMn.HEA.library.meam Co Ni Cr Fe Mn ./meam/CoNiCrFeMn.HEA.meam Co Ni Cr Fe Mn
# -----(Al-Si-Mg-Cu-Fe)
#pair_style      meam/c
#pair_coeff      * * ./meam/Jelinek_2012_meamf AlS SiS MgS CuS FeS ./meam/Jelinek_2012_meam.alsimgcufe AlS SiS MgS CuS

# ----- Potential settings (EAM)-----
# -----(Ag-Au-Cu-Ni-Pd-Pt)
#pair_style      eam
#pair_coeff      1 * ./eam/DYNAMO/cuu6.txt
#pair_coeff      2 * ./eam/DYNAMO/agu6.txt
#pair_coeff      3 * ./eam/DYNAMO/auu6.txt
#pair_coeff      4 * ./eam/DYNAMO/niu6.txt
#pair_coeff      5 * ./eam/DYNAMO/ptu6.txt

# ----- Potential settings (EIM)-----
#pair_style      eim
#pair_coeff      * * Li Na K Rb Cs F Cl Br Id ./eim/BrClCsFIKLiNaRb.ffield.eim F K Li Na Rb

# ----- Relax calculation (0 K) -----
thermo_style    custom step etotal temp lx vol press pxx pyy pxy
thermo          10
fix             f1 all box/relax iso 0.0
minimize        1.0e-10 0.0 1000 100000
WARNING: Using 'neigh_modify every 1 delay 0 check yes' setting during minimization (../min.cpp:168)
Neighbor list info ...
  update every 1 steps, delay 0 steps, check yes
  max neighbors/atom: 2000, page size: 100000
  master list distance cutoff = 6.5
  ghost atom cutoff = 6.5
  binsize = 3.25, bins = 6 5 5
  2 neighbor lists, perpetual/occasional/extra = 2 0 0
  (1) pair meam/c, perpetual
      attributes: full, newton on
      pair build: full/bin/atomonly
      stencil: full/bin/3d
      bin: standard
  (2) pair meam/c, perpetual, half/full from (1)
      attributes: half, newton on
      pair build: halffull/newton
      stencil: none
      bin: none
Per MPI rank memory allocation (min/avg/max) = 9.792 | 9.792 | 9.792 Mbytes
Step TotEng Temp Lx Volume Press Pxx Pyy Pxy 
       0   -1280.3195          298    18.013268    3740.7399    16958.516    19042.093    15007.813    522.77344 
      10   -1280.3976          298    18.031281    3751.9733    11433.718    13513.084    9490.0041    494.68021 
      20   -1280.4408          298    18.049295    3763.2293    5967.6704     8044.749    4016.6667    451.93623 
      30   -1280.5281          298      18.0565    3767.7379    3675.1544    5745.0975    1723.4563    426.93349 
      40   -1280.7554          298      18.0565    3767.7379    3332.0596     5382.277    1400.3529    417.90082 
      50   -1280.8917          298      18.0565    3767.7379    3126.4194     5164.735    1206.7119    412.41434 
      60   -1282.6079          298    18.052897    3765.4831     1612.596    3493.8884   -147.65107     353.2102 
      70    -1282.687          298    18.045692    3760.9763    3662.5162    5533.1416      1920.53     370.7274 
      80   -1282.9007          298    18.045692    3760.9763     3341.657    5192.0173     1619.313    360.99338 
      90   -1283.0084          298    18.045692    3760.9763    3179.9488    5020.0535    1467.5187    356.01619 
     100   -1283.1377          298    18.045692    3760.9763    2985.8947    4813.6543    1285.3744    349.98222 
     110   -1283.3193          298    18.042089    3758.7242    3798.8166    5607.3493    2120.3695    351.24655 
     120   -1283.4123          298    18.042089    3758.7242    3659.6277    5459.1657     1989.851    346.85084 
     130   -1283.6632          298    18.042089    3758.7242    3284.1729    5059.3428    1637.8225    334.83577 
     140   -1283.7562          298    18.042089    3758.7242    3145.0765    4911.1804    1507.4207    330.31032 
     150   -1283.9182          298    18.042089    3758.7242    2902.9888    4653.2652    1280.4835    322.34812 
     160   -1284.0441          298    18.038487     3756.473    3803.9674     5538.674    2197.2658    324.56329 
     170   -1284.1284          298    18.038487     3756.473    3679.0599    5405.1009    2079.9099    320.05763 
     180   -1284.2662          298    18.038487     3756.473    3474.9868     5186.849    1888.2199    312.65075 
     190   -1284.4477          298    18.038487     3756.473    3206.2085    4899.3618    1635.8587    302.81379 
     200   -1284.5378          298    18.038487     3756.473    3072.7902    4756.6415    1510.6287    297.88684 
     210   -1284.7175          298    18.034884    3754.2227    3895.9828    5558.4657    2355.1411    296.87867 
     220   -1284.8009          298    18.034884    3754.2227    3772.8871    5426.7206    2239.7891    292.33142 
     230   -1284.8789          298    18.034884    3754.2227     3657.868    5303.6112    2132.0244    288.06096 
     240   -1285.0678          298    18.034884    3754.2227    3380.6189    5006.0442     1871.758    278.33782 
     250   -1285.1557          298    18.034884    3754.2227    3252.0074    4867.8097    1750.9284     273.9277 
     260   -1285.2309          298    18.034884    3754.2227    3142.0496    4749.6229    1647.6485    270.12818 
     270   -1285.3369          298    18.034884    3754.2227    2987.1913    4583.1728    1502.2317     264.7319 
     280   -1285.4885          298    18.031281    3751.9733    3859.8241    5434.3185    2391.9186    267.07219 
     290   -1285.5589          298    18.031281    3751.9733    3757.1558    5323.9863    2295.7244    263.48698 
     300   -1285.6299          298    18.031281    3751.9733    3653.5321    5212.6257    2198.6552     259.8452 
     310   -1285.7771          298    18.031281    3751.9733         3439    4982.0646     1997.756    252.23933 
     320    -1285.878          298    18.031281    3751.9733    3291.9937    4824.0688    1860.1441    246.96576 
     330   -1285.9455          298    18.031281    3751.9733    3193.8672    4718.6043    1768.3121    243.41753 
     340   -1286.0172          298    18.031281    3751.9733    3089.4701    4606.3977    1670.6321     239.6178 
     350   -1286.1867          298    18.027679    3749.7249    3945.6216    5434.9382    2542.4154    242.52549 
     360   -1286.2634          298    18.027679    3749.7249    3836.5499    5316.2491    2439.4395    239.37717 
     370   -1286.3243          298    18.027679    3749.7249    3749.9956    5222.0887    2357.7715    236.84625 
     380   -1286.3876          298    18.027679    3749.7249    3660.0066    5124.2155    2272.9053    234.18302 
     390   -1286.4862          298    18.027679    3749.7249    3519.8522     4971.835     2140.857    229.96135 
     400   -1286.6341          298    18.027679    3749.7249    3309.6104    4743.3545    1943.0019    223.47551 
     410   -1286.6946          298    18.027679    3749.7249      3223.68     4650.017    1862.2009    220.76267 
     420   -1286.7537          298    18.027679    3749.7249    3139.7354     4558.857    1783.2998    218.08332 
     430   -1286.8282          298    18.027679    3749.7249     3034.021    4444.0813    1683.9805    214.66674 
     440    -1287.772          298    18.020473    3745.2306    3948.2706    5246.9111    2662.4516    231.11586 
     450    -1287.831          298    18.020473    3745.2306    3866.2887    5159.1019    2585.8568    228.97577 
     460   -1287.8785          298    18.020473    3745.2306     3800.388    5088.5166    2524.2873    227.21678 
     470   -1287.9238          298    18.020473    3745.2306    3737.8145    5021.3319    2466.1247    225.79737 
     480   -1287.9719          298    18.020473    3745.2306    3672.3801    4950.4896    2406.4473    225.28879 
     490   -1288.0329          298    18.020473    3745.2306    3589.4986    4860.7708    2330.8772    224.57642 
     500   -1288.1737          298    18.020473    3745.2306    3398.0101    4653.5606    2156.3033    222.61543 
     510    -1288.232          298    18.020473    3745.2306    3318.8481    4567.9437    2084.1339    221.64798 
     520   -1288.2776          298    18.020473    3745.2306    3256.8342     4500.888     2027.602    220.83493 
     530   -1288.3202          298    18.020473    3745.2306    3198.9812    4438.3427    1974.8676     220.0345 
     540   -1288.3638          298    18.020473    3745.2306    3139.7026     4374.267    1920.8385    219.17354 
     550   -1288.4139          298    18.020473    3745.2306    3071.5867    4300.6524    1858.7617    218.13452 
     560   -1288.5008          298    18.020473    3745.2306    2953.7069    4173.2867    1751.3531    216.21636 
     570   -1288.7201          298    18.016871    3742.9848    3777.4166    4963.7521    2605.7166    238.07304 
     580   -1288.7588          298    18.016871    3742.9848    3725.1072    4907.2602    2558.1344    236.96948 
     590   -1288.8004          298    18.016871    3742.9848    3668.7417    4846.3953    2506.8715    235.75242 
     600   -1288.8519          298    18.016871    3742.9848    3599.0287    4771.1272     2443.482    234.20696 
     610   -1288.9713          298    18.016871    3742.9848    3437.6536    4596.9283    2296.8001    230.47373 
     620   -1289.0327          298    18.016871    3742.9848    3354.7885    4507.5038     2221.517    228.46369 
     630   -1289.0747          298    18.016871    3742.9848    3298.1357     4446.376    2170.0628    227.05675 
     640   -1289.1118          298    18.016871    3742.9848    3248.1541    4392.4525    2124.6777    225.79358 
     650   -1289.1474          298    18.016871    3742.9848    3200.1499    4340.6676    2081.0972    224.56132 
     660   -1289.1839          298    18.016871    3742.9848    3151.1002    4287.7603    2036.5767    223.28324 
     670    -1289.224          298    18.016871    3742.9848    3097.1357    4229.5813    1987.6063     221.8578 
     680   -1289.2755          298    18.016871    3742.9848    3027.8352    4154.8828    1924.7368    219.99553 
     690   -1289.4691          298    18.013268    3740.7399    3887.0256    4984.4681     2812.679    237.57695 
     700   -1289.5042          298    18.013268    3740.7399     3840.101     4933.871    2770.2171    236.20711 
     710   -1289.5367          298    18.013268    3740.7399     3796.608    4886.9782    2730.8706    234.92555 
     720   -1289.5686          298    18.013268    3740.7399    3754.0308    4841.0768    2692.3622    233.66011 
     730   -1289.6014          298    18.013268    3740.7399    3710.3453    4793.9846    2652.8611     232.3508 
     740    -1289.637          298    18.013268    3740.7399    3662.8542    4742.7973    2609.9294    230.91704 
     750   -1289.6802          298    18.013268    3740.7399    3605.3456    4680.8222    2557.9565     229.1622 
     760   -1289.7789          298    18.013268    3740.7399    3474.2652    4539.5865    2439.5551    225.09779 
     770   -1289.8454          298    18.013268    3740.7399    3386.1665    4444.6884    2360.0343    222.31594 
     780   -1289.8843          298    18.013268    3740.7399    3334.6018    4389.1517    2313.5123    220.66932 
     790   -1289.9171          298    18.013268    3740.7399    3291.2182    4342.3849    2274.4255    219.26494 
     800   -1289.9473          298    18.013268    3740.7399    3253.9133    4300.6699    2239.8872    219.29765 
     810   -1289.9765          298    18.013268    3740.7399    3222.1966    4262.3906     2208.687    221.36952 
     820   -1290.0054          298    18.013268    3740.7399    3190.3615    4224.2445    2177.5381     223.2428 
     830   -1290.0348          298    18.013268    3740.7399     3159.964    4186.4003    2150.3194    227.15763 
     840   -1290.0654          298    18.013268    3740.7399    3128.2617    4146.9474    2122.4584    231.38744 
     850   -1290.0986          298    18.013268    3740.7399    3093.4685    4104.0688    2091.8659    235.62747 
     860   -1290.1368          298    18.013268    3740.7399    3052.7435    4054.3783    2056.0404     240.1159 
     870   -1290.1891          298    18.013268    3740.7399    2995.9919    3985.9135     2006.091    245.62884 
     880   -1290.3214          298    18.009665    3738.4959    3982.1192    4925.8649    3013.4426    290.71179 
     890   -1290.3614          298    18.009665    3738.4959    3935.7166    4872.1456    2972.5344     292.9961 
     900   -1290.3935          298    18.009665    3738.4959    3898.2962      4829.05    2939.5403    294.62474 
     910   -1290.4221          298    18.009665    3738.4959    3864.8449    4790.6832    2910.0415    295.93328 
     920   -1290.4487          298    18.009665    3738.4959    3833.4887    4754.8457    2882.3871    297.04207 
     930   -1290.4743          298    18.009665    3738.4959    3803.1998    4720.3374    2855.6714    298.01123 
     940   -1290.4995          298    18.009665    3738.4959    3773.2544    4686.3219    2829.2559    298.87499 
     950   -1290.5249          298    18.009665    3738.4959    3743.6335    4653.2664    2802.8874    299.04923 
     960    -1290.551          298    18.009665    3738.4959    3713.2133    4619.5475    2775.7454    298.97816 
     970   -1290.5772          298    18.009665    3738.4959    3682.5194    4585.6036    2748.3659    298.84071 
     980   -1290.6075          298    18.009665    3738.4959    3646.9287     4546.337    2716.6269    298.60498 
     990   -1290.6436          298    18.009665    3738.4959     3604.342    4499.4747    2678.6605    298.22238 
    1000      -1290.7          298    18.009665    3738.4959    3537.3815    4426.0395    2618.9889    297.42118 
Loop time of 8.6231 on 1 procs for 1000 steps with 320 atoms

93.7% CPU use with 1 MPI tasks x 1 OpenMP threads

Minimization stats:
  Stopping criterion = max iterations
  Energy initial, next-to-last, final = 
        -1292.60719571     -1302.98629732     -1302.98771337
  Force two-norm initial, final = 95.484 5.42658
  Force max component initial, final = 94.2081 0.511119
  Final line search alpha, max atom move = 2.74347e-05 1.40224e-05
  Iterations, force evaluations = 1000 1000

MPI task timing breakdown:
Section |  min time  |  avg time  |  max time  |%varavg| %total
---------------------------------------------------------------
Pair    | 7.9663     | 7.9663     | 7.9663     |   0.0 | 92.38
Neigh   | 0          | 0          | 0          |   0.0 |  0.00
Comm    | 0.0049891  | 0.0049891  | 0.0049891  |   0.0 |  0.06
Output  | 0.54611    | 0.54611    | 0.54611    |   0.0 |  6.33
Modify  | 0          | 0          | 0          |   0.0 |  0.00
Other   |            | 0.1057     |            |       |  1.23

Nlocal:    320 ave 320 max 320 min
Histogram: 1 0 0 0 0 0 0 0 0 0
Nghost:    1592 ave 1592 max 1592 min
Histogram: 1 0 0 0 0 0 0 0 0 0
Neighs:    13881 ave 13881 max 13881 min
Histogram: 1 0 0 0 0 0 0 0 0 0
FullNghs:  27762 ave 27762 max 27762 min
Histogram: 1 0 0 0 0 0 0 0 0 0

Total # of neighbors = 27762
Ave neighs/atom = 86.7562
Neighbor list builds = 0
Dangerous builds = 0
unfix           f1

# ----- Output setting -----
dump            d1 all cfg 100 cfg/run.*.cfg mass type xs ys zs id type
dump_modify     d1 element Co Ni Cr Fe Mn
#dump_modify     d1 element Al Si Mg Cu   # Al-Si-Mg-Cu-Fe

# ----- Check equilibriation setting -----
variable        energy equal etotal
variable        temperature equal temp
fix             fout1 all ave/time 1 100 100 v_energy v_temperature file out_energy.txt

# ----- Equilibriation -----
velocity        all create 10.0 123456
fix             f1 all npt temp 10.0 ${temp} ${tdamp} iso 0.0 ${pres} ${pdamp}
fix             f1 all npt temp 10.0 77.0 ${tdamp} iso 0.0 ${pres} ${pdamp}
fix             f1 all npt temp 10.0 77.0 0.1 iso 0.0 ${pres} ${pdamp}
fix             f1 all npt temp 10.0 77.0 0.1 iso 0.0 1.0 ${pdamp}
fix             f1 all npt temp 10.0 77.0 0.1 iso 0.0 1.0 1
run             ${nstep} # 20 ps
run             20000 
Per MPI rank memory allocation (min/avg/max) = 9.934 | 9.934 | 9.934 Mbytes
Step TotEng Temp Lx Volume Press Pxx Pyy Pxy 
    1000   -1302.5754           10    18.009665    3738.4959    144.48981    1349.7999   -1087.1144      372.301 
    1010   -1302.5758    14.280331    18.010281    3738.8792   -201.28148    862.78699   -1278.1772    420.36023 
    1020   -1302.5853    26.145221    18.008548       3737.8   -85.902047    829.88839   -1034.9949    444.93141 
    1030   -1302.6432    40.132825    18.005734    3736.0479    202.04111    1026.4028    -644.0645    405.29815 
    1040   -1302.7724    50.467056    18.005027    3735.6081   -97.477726     725.1964   -924.83016    466.69644 
    1050   -1302.9292    54.733746    18.003618     3734.731    84.920099    926.03268   -764.68299    679.81414 
    1060   -1303.1224    52.102235    18.003415    3734.6046    146.20193    943.18701   -654.17133    841.07587 
    1070   -1303.3151    45.399254    18.004696     3735.402   -284.73201    593.19253   -1180.0514    813.57034 
    1080   -1303.4793    38.210522    18.003252    3734.5032    144.82126    1098.6234   -769.55964    812.58022 
    1090   -1303.6144    32.907557    18.003216    3734.4807    122.73752    1114.5642   -781.84532    836.81275 
    1100   -1303.7299    30.014243     18.00448    3735.2677   -254.96196    795.51575   -1258.3223    813.40464 
    1110   -1303.8357    28.830994    18.003107    3734.4132    133.61243    1318.5267   -999.79893     761.5009 
    1120   -1303.9379    28.381941    18.003061    3734.3845    75.503583    1481.2776    -1196.959    669.51865 
    1130   -1304.0388    28.078511    18.003759    3734.8189   -243.82387    1413.4467   -1687.4089    537.49213 
    1140   -1304.1389    27.754356    18.001932    3733.6821    161.91765    2085.5621   -1519.1452    347.76598 
    1150   -1304.2379    27.333203    18.002054    3733.7582     168.5814    2283.0248   -1609.2199    270.30351 
    1160   -1304.3347    26.589749    18.003893    3734.9021   -318.01449    1932.4966   -2100.3371    186.79949 
    1170   -1304.4273    25.221269    18.002475    3734.0198    142.07445    2510.3004   -1610.1658     87.02508 
    1180   -1304.5121    23.289618    18.002517    3734.0461    141.33044    2578.1399   -1669.3926    50.011915 
    1190   -1304.5873    21.251455    18.004062    3735.0072   -286.30789    2146.5903   -2159.6666    71.144537 
    1200   -1304.6533    19.629284    18.002924    3734.2994    236.10312    2552.6747   -1551.1413    268.81817 
    1210   -1304.7126    18.669577    18.004038    3734.9923   -36.724657    2176.7961   -1743.9241    426.13655 
    1220   -1304.7676    18.295956    18.004704    3735.4072   -286.14009    1829.2454   -1936.3238    509.01959 
    1230   -1304.8207    18.116952    18.002345    3733.9391      288.685    2345.1658   -1337.1691    540.74329 
    1240    -1304.872    17.700081     18.00289    3734.2784   -61.702365     1981.988   -1705.5452    548.00911 
    1250   -1304.9208    16.901572    18.002804    3734.2246    -224.9641    1825.2348   -1898.8716    541.26709 
    1260   -1304.9656    15.958447    18.000494    3732.7872    341.86998    2377.5568   -1314.7826    536.22545 
    1270   -1305.0067    15.240925    18.001779    3733.5868   -118.82788    1879.0141   -1665.5843    541.99534 
    1280   -1305.0449     14.97562    18.001888    3733.6548   -197.25625    1752.8834   -1618.3912    550.25762 
    1290   -1305.0817    15.068611    18.000022    3732.4936     345.2168    2249.8815   -998.45779    559.14758 
    1300   -1305.1182    15.170097     18.00161    3733.4815   -208.33884    1697.8408   -1505.3605    493.92688 
    1310   -1305.1543     14.97484     18.00105    3733.1331   -116.83917     1813.973   -1405.5798    372.49813 
    1320   -1305.1888    14.410837    17.999445     3732.135    383.11556     2298.502   -845.28993    312.79168 
    1330   -1305.2209    13.623727    18.001744    3733.5652   -304.82653    1590.2635   -1485.1901     238.1694 
    1340     -1305.25    12.828484    18.000936     3733.062   -58.958543    1794.9311   -1216.2737    168.45194 
    1350   -1305.2759    12.159507    17.999487    3732.1608    353.55477    2150.6379   -770.75853    119.02264 
    1360   -1305.2992    11.661437    18.001688    3733.5304   -328.85274      1386.69    -1370.092    116.95845 
    1370   -1305.3201    11.341912    18.000525    3732.8064   -8.9913264    1620.7009   -978.71915    126.06449 
    1380   -1305.3391    11.220714    17.999268    3732.0246    350.36314    1897.9552   -543.96214    156.60192 
    1390   -1305.3569    11.305167    18.001589    3733.4684   -363.00804    1128.2061   -1185.3268    195.17377 
    1400   -1305.3741    11.546917    18.000189    3732.5978     26.30374    1486.8435   -743.00242     224.5493 
    1410   -1305.3908    11.771285    17.999167    3731.9619    391.97116    1796.4832   -244.36259    283.56086 
    1420   -1305.4072    11.774515    18.002062    3733.7628   -467.48115     927.1135   -1084.0031    247.94903 
    1430   -1305.4232    11.556032    18.000114     3732.551    63.506025    1491.9498   -614.58055    209.74339 
    1440    -1305.438    11.181536    17.998824    3731.7485    404.06252    1880.1211   -361.36255    173.34258 
    1450   -1305.4514    10.770033    18.001531    3733.4327   -513.86379    1041.2389   -1417.2352    94.600292 
    1460   -1305.4637    10.496086    17.999108    3731.9251    192.58642     1757.357   -776.13965    154.92903 
    1470   -1305.4745    10.433691    17.998592    3731.6043    251.15258    1827.6819   -747.95566    261.53842 
    1480   -1305.4842    10.551269    18.000729    3732.9335   -467.39575    1082.4707    -1409.516    284.05118 
    1490   -1305.4932    10.728563    17.998253    3731.3933    329.62301     1777.161   -553.18555    336.50028 
    1500   -1305.5015    10.734346    17.999143    3731.9471    122.48091    1470.7303   -711.65356    369.63321 
    1510   -1305.5087    10.449912    18.001267    3733.2684   -482.85978    796.77662   -1307.2469    361.23058 
    1520   -1305.5147    9.9243979    17.998738    3731.6952    434.86757    1600.2937    -282.6322    468.87581 
    1530   -1305.5193     9.383492    18.000655    3732.8877   -34.434188    1070.2901   -686.85267     443.2966 
    1540   -1305.5219    9.0804222    18.002175    3733.8334   -441.56232    660.06598   -1086.9287    450.68927 
    1550   -1305.5228    9.1050941    17.999126    3731.9365    487.99965    1626.0983   -175.87528    479.58008 
    1560   -1305.5221    9.3247508    18.001026    3733.1185   -134.51146    1092.0645   -868.59631    484.68658 
    1570   -1305.5196    9.5694218     18.00179    3733.5936   -340.78082    947.57165   -1047.9603    611.17237 
    1580   -1305.5154    9.7533151     17.99901    3731.8645    479.27065    1843.5489   -200.08478     697.0098 
    1590   -1305.5099    9.8235548    18.001055    3733.1362    -218.0025    1233.7024    -833.0243    692.62654 
    1600   -1305.5028    9.8229643     18.00092    3733.0525   -237.79394    1241.7684   -828.61942    665.98107 
    1610   -1305.4942    9.8714875      17.9984     3731.485     561.1715    1979.3373     14.76756      685.665 
    1620   -1305.4846    10.000752    18.001655    3733.5099   -320.93142    984.73564   -801.06665    747.89711 
    1630   -1305.4734    10.268733    18.001644    3733.5028   -236.93326       942.64   -689.85294    768.38448 
    1640   -1305.4608    10.607297    17.999294    3732.0411    565.91713    1602.9505     87.21176    841.06466 
    1650   -1305.4474     10.89443    18.002633    3734.1179   -433.81044    527.69237   -957.90685    903.22578 
    1660   -1305.4334    11.054957     18.00152    3733.4253   -112.44123    815.44286    -684.4012    925.97119 
    1670   -1305.4186    11.059731    17.999139    3731.9445    493.42642    1471.7065   -203.48667    821.57506 
    1680   -1305.4039    10.984296    18.001872    3733.6448   -395.51062    637.60473   -1156.6024    756.17527 
    1690    -1305.389    11.011739    18.000624     3732.868   -7.8518618    1070.6004   -828.37359    752.18464 
    1700   -1305.3735    11.155584    17.999235     3732.004    375.49425    1556.3327   -524.97656    720.00833 
    1710   -1305.3578    11.363306    18.001701    3733.5383   -366.17403    930.92521   -1318.9978    705.74366 
    1720   -1305.3418    11.578349    18.000503    3732.7928    71.664678    1470.9881   -918.17008    758.30908 
    1730   -1305.3256    11.838267     17.99997    3732.4611    252.54198    1806.6074   -850.23274    756.77583 
    1740   -1305.3092    12.182188    18.001993    3733.7197    -362.3758    1378.5594   -1547.4052     731.6688 
    1750    -1305.293    12.589406    18.000251    3732.6359    116.26758    2065.5066   -1103.2093    708.00481 
    1760   -1305.2768    12.978633    17.999673    3732.2765    229.35494      2392.89   -1104.9642    638.94026 
    1770   -1305.2613      13.2749    18.001361    3733.3266   -338.00965    2018.1798   -1807.6007    522.50711 
    1780   -1305.2466    13.471544    17.999585    3732.2221    160.88677    2633.4733   -1397.8023    432.17733 
    1790   -1305.2328    13.567011    17.999437    3732.1296    151.19355    2670.6365   -1485.4799    295.21528 
    1800   -1305.2201    13.657149    18.000934    3733.0612   -272.50089    2224.2617   -1929.7605    221.11603 
    1810   -1305.2084    13.787772     17.99978    3732.3432     210.3903    2651.2763   -1457.0115    261.49598 
    1820   -1305.1979    13.867999    18.000789    3732.9707    63.229052     2403.725   -1631.7824    273.81316 
    1830   -1305.1883    13.813915    18.002585    3734.0882   -291.32987     1892.374   -1894.8462     357.0839 
    1840   -1305.1798    13.718724    18.001303    3733.2904    191.03998    2248.3952   -1400.0512    383.42853 
    1850   -1305.1723    13.717698    18.001875    3733.6468    40.622007    2028.2127   -1556.0054    367.71354 
    1860   -1305.1655    13.849792     18.00273    3734.1788   -333.84008    1679.8004   -1970.8669    258.32039 
    1870   -1305.1596    13.988657    17.999989    3732.4732    251.28981    2372.7063   -1431.2028    84.443914 
    1880   -1305.1546    14.076022     18.00013    3732.5606    160.24428    2302.8073   -1440.1269    18.613937 
    1890   -1305.1504      14.1262    18.001898    3733.6608   -427.54553    1748.5423   -1974.6658   -18.206897 
    1900   -1305.1475    14.126576    17.999306     3732.048    334.26999    2530.7964   -1206.7998   -1.9684755 
    1910   -1305.1455    14.020349     18.00018    3732.5919    95.512895    2287.3423   -1442.8436    50.195484 
    1920   -1305.1442    13.843162    18.002023    3733.7385   -464.73224     1753.833   -1991.7774    81.971656 
    1930   -1305.1437    13.643692    17.999102    3731.9211    427.49091    2690.5569   -1152.6546     111.9539 
    1940   -1305.1438    13.450083    18.000551     3732.823    41.209224    2358.6285   -1623.1901    170.90786 
    1950   -1305.1438    13.366855     18.00246    3734.0103   -472.14785    1913.9483   -2210.0373    177.51157 
    1960   -1305.1442    13.553253    17.999516     3732.179    458.26434    2929.3525    -1357.316    186.41522 
    1970   -1305.1451    14.033366    18.001162    3733.2028   -70.013639    2512.8303   -1984.4412     134.7677 
    1980   -1305.1464    14.648968    18.002256    3733.8836    -356.1006    2280.0168   -2267.2241     162.5636 
    1990   -1305.1491    15.131106    17.999793    3732.3514    504.51483     3140.569   -1379.5943    233.20263 
    2000   -1305.1538    15.213309    18.002407    3733.9776   -217.77776    2420.7606   -2084.4851     249.2846 
    2010   -1305.1599    14.860583    18.002787    3734.2137   -286.34157    2346.1367   -2116.2331    257.15283 
    2020   -1305.1669    14.232857    18.000255    3732.6387    507.52189    3119.8445   -1321.6736    261.17791 
    2030   -1305.1746    13.640988    18.002834    3734.2433   -308.88545    2297.4917   -2091.4284    262.95506 
    2040   -1305.1821    13.320577    18.002388    3733.9654   -103.25329    2426.6661   -1699.8527    344.18221 
    2050   -1305.1891    13.259056    18.000698    3732.9142    399.46145    2890.2341   -1106.4141    384.96209 
    2060   -1305.1961    13.387157     18.00298    3734.3344   -410.45091    2115.9466   -1944.5427    358.14387 
    2070   -1305.2031    13.545682    18.001077    3733.1499    64.374641    2628.0052   -1530.0358    355.05122 
    2080   -1305.2098     13.58037    17.999812    3732.3628    357.08671    2956.0517   -1357.3622    358.00269 
    2090   -1305.2165    13.394252    18.001995    3733.7209   -530.51849    2168.5289   -2451.5259    254.82484 
    2100    -1305.223    13.081599    17.998928    3731.8133    285.90752    2998.3741    -1670.337    245.55228 
    2110   -1305.2287    12.824907    17.998887    3731.7874    283.92397    2943.9229   -1666.0715    273.30772 
    2120   -1305.2335    12.702135    18.001762    3733.5763   -579.57717    2000.7238   -2444.9487    319.79718 
    2130   -1305.2376    12.725735    17.998891    3731.7903    408.05186    2827.6543   -1409.1154     443.8151 
    2140   -1305.2411    12.924452    18.000016    3732.4897    77.989786    2384.3653   -1682.5575    512.04527 
    2150   -1305.2437     13.23351    18.001905    3733.6652   -492.54937    1693.6443   -2122.1715    605.50551 
    2160   -1305.2459    13.437586    17.998691     3731.666    469.99892    2528.6712   -1082.6029    695.89804 
    2170    -1305.248     13.46533    18.000185    3732.5952    -64.66359    1955.9737   -1591.2427    719.53442 
    2180   -1305.2495    13.311645    18.001047    3733.1315   -372.57561    1647.9644   -1883.1443    791.88297 
    2190   -1305.2504    13.073005    17.998263    3731.3997    559.87018    2543.2291   -911.53638    851.23063 
    2200   -1305.2509     12.86045     18.00117    3733.2081   -269.34152    1731.3077   -1853.8888    770.84897 
    2210   -1305.2503    12.803282    18.001434     3733.372     -279.235    1760.2295   -1975.6094    663.98386 
    2220   -1305.2486    12.977759    17.998773     3731.717    578.80752    2645.5313   -1186.0526    568.28499 
    2230   -1305.2464    13.257706    18.002047    3733.7533   -350.01559    1730.0047   -2112.2783    513.78961 
    2240   -1305.2433    13.401868     18.00183    3733.6185   -140.56347    1900.1028   -1799.2402    578.30984 
    2250   -1305.2394    13.226115    18.000126    3732.5585    511.09917    2512.7865   -1081.7487    563.88038 
    2260   -1305.2351    12.946264     18.00361    3734.7264   -489.55178    1525.0829   -2059.8807    535.61478 
    2270     -1305.23    12.859703    18.002056    3733.7594   -18.919069    2020.5602   -1576.4323    506.63768 
    2280   -1305.2235    13.038705    18.000185    3732.5953    461.60479    2558.5414   -1142.7523    415.91832 
    2290   -1305.2162    13.303463    18.002923    3734.2985    -491.2602    1681.5532   -2119.8649    249.73842 
    2300   -1305.2082    13.551593    18.000804    3732.9803    169.41628    2327.9527   -1343.8574    241.88309 
    2310   -1305.1993    13.677707    18.000616    3732.8635    347.15357    2447.0241   -1141.0969    304.55734 
    2320   -1305.1898    13.666605    18.003799    3734.8438   -654.91206    1490.7627   -2096.6873    293.26298 
    2330   -1305.1802    13.700627    18.000437    3732.7517    361.10872    2533.9304   -1124.8398    316.62507 
    2340   -1305.1698      13.9027    18.000668    3732.8955     231.5315    2425.6379   -1316.9366    287.52918 
    2350   -1305.1588    14.220889    18.003229    3734.4892   -664.60249    1530.0233   -2302.8294     197.8131 
    2360   -1305.1477    14.536049    17.999112    3731.9275    588.21861    2695.1111   -986.73453    168.81595 
    2370   -1305.1367    14.700557    18.000888    3733.0326    61.056455    2093.4065   -1427.5296    137.79673 
    2380   -1305.1254    14.837382    18.003247    3734.5004   -739.73364    1307.0405   -2221.0976    104.45859 
    2390   -1305.1144     15.02359    17.998349    3731.4527    797.35165     2826.712   -671.32016    217.41674 
    2400   -1305.1042     15.23159    18.001277    3733.2744   -278.47274    1862.7557   -1852.8244    192.68796 
    2410    -1305.094    15.418554    18.001642    3733.5014   -515.27328    1696.3065   -2128.9948    310.24579 
    2420   -1305.0842    15.581095     17.99686    3730.5268    924.26595    3127.3967   -635.07719    397.89088 
    2430   -1305.0757    15.624388    18.001475    3733.3977   -511.09202    1686.3845    -1975.461    394.65942 
    2440   -1305.0679    15.505096    18.000812     3732.985   -397.33836     1803.536   -1772.7575    313.64923 
    2450     -1305.06    15.303281    17.996084    3730.0446    1005.7467     3169.464   -350.42349    226.62906 
    2460   -1305.0536    15.125826    18.001694    3733.5341   -640.69562    1472.0077   -1954.2727    168.55881 
    2470   -1305.0471    15.043488    18.000939    3733.0643   -223.25536    1801.2358   -1438.4846    236.57737 
    2480   -1305.0405    14.846096    17.998264       3731.4    1020.3371    2858.0227    130.90322    449.13242 
    2490   -1305.0343    14.443431    18.005915    3736.1608   -990.65791    723.17199   -1788.9805    548.56792 
    2500   -1305.0283    14.075144    18.003281    3734.5215    -93.95644    1515.6648   -835.18108    538.08661 
    2510   -1305.0205    14.012445     17.99955    3732.1998    1079.6114    2627.1054    372.89822    540.80323 
    2520   -1305.0125    14.448765    18.006787    3736.7038   -1161.3649    423.38465   -1924.5297    617.90155 
    2530   -1305.0048    15.281115    18.002246    3733.8771    89.287351    1803.9881   -812.29134    576.07201 
    2540   -1304.9948    16.133891    17.998355     3731.457    1071.7255    2880.6316    14.217372    473.68891 
    2550    -1304.986    16.744285    18.005329    3735.7961   -1264.2761    544.26246   -2404.3628    310.09672 
    2560   -1304.9797    16.996606     17.99959     3732.225    372.50051    2146.6182   -745.20753     229.2884 
    2570   -1304.9734    16.888637    17.997585    3730.9777     925.8202    2668.8962    -127.1832    164.69968 
    2580   -1304.9685    16.638495    18.005051    3735.6228   -1429.4623    335.84189   -2405.3687    96.232106 
    2590   -1304.9666     16.56174    17.998091    3731.2927     675.2506    2473.9455   -297.24532    106.82528 
    2600   -1304.9647    16.732947    17.997949    3731.2042    712.03543    2503.1862   -145.56103    141.34994 
    2610   -1304.9631    17.092932     18.00503      3735.61   -1490.2347    299.62249   -2308.4285    68.255871 
    2620   -1304.9647    17.423806    17.997172     3730.721    1027.2518    2771.9539    159.96442    13.948024 
    2630   -1304.9683    17.460327    17.999715    3732.3029    382.07533     2106.451   -569.58308    45.952811 
    2640   -1304.9715    17.214489    18.006114    3736.2844   -1561.4896    244.38712    -2676.882     -24.5517 
    2650   -1304.9779    16.853318     17.99686    3730.5271    1397.6374    3173.6571    221.39871    94.790541 
    2660   -1304.9865    16.542707    18.001738    3733.5616    71.059479    1794.1826   -1148.7516    177.65851 
    2670   -1304.9927    16.273188    18.007379    3737.0721   -1565.8491    127.35974   -2795.6791    254.90607 
    2680   -1305.0008    15.854875    17.996841     3730.515     1570.986    3270.0878    415.25132    377.98522 
    2690   -1305.0103     15.19366    18.002324    3733.9257   -160.45692    1546.9845   -1267.5546    473.29014 
    2700   -1305.0164    14.551934    18.006271    3736.3822   -1412.8355    308.57018   -2454.7582    547.62561 
    2710   -1305.0217    14.240233    17.996138    3730.0783    1829.9014    3423.9494    910.02357    753.91561 
    2720   -1305.0286    14.405221    18.004321    3735.1689   -697.76194    884.87033   -1650.1721    782.82948 
    2730   -1305.0324    14.963163    18.005453     3735.873   -1125.4749    458.30222   -2156.6392    756.62834 
    2740   -1305.0343    15.537213    17.995022    3729.3841    1934.9009    3525.3792    813.27635    709.11528 
    2750   -1305.0393    15.727294    18.004167     3735.073   -1022.6908    678.39156   -2264.2542    589.55795 
    2760   -1305.0429    15.613759    18.003262    3734.5093   -734.46947    973.49353   -2034.8363    626.18873 
    2770   -1305.0441    15.477853     17.99472    3729.1963    1843.7048    3552.6713    512.38427    673.67756 
    2780   -1305.0479    15.502166    18.004953    3735.5619   -1309.2139    437.28886   -2733.7571    655.75376 
    2790   -1305.0515    15.680858    18.001771     3733.582   -487.15905    1320.5376   -1950.3551    618.75095 
    2800   -1305.0514    15.746716    17.993879    3728.6738    1930.6085    3724.0929     567.3301    710.23895 
    2810    -1305.054    15.582604    18.005683    3736.0165   -1605.5802    222.27627   -3014.4108    666.45135 
    2820    -1305.057    15.350007    18.001172    3733.2092   -196.08019    1669.2406   -1619.8336    632.22582 
    2830   -1305.0558    15.196618    17.994568    3729.1018    1845.9978    3774.5538    429.30864    580.00671 
    2840   -1305.0561    15.215946    18.006948    3736.8042   -1783.2043    228.18012   -3168.2024    575.92291 
    2850   -1305.0574    15.423094    18.001188    3733.2191    62.780611    2122.8169   -1345.4388    549.80546 
    2860   -1305.0544    15.597112    17.995894    3729.9264      1694.86    3832.0632    167.59144    429.14119 
    2870   -1305.0523    15.580423    18.008221    3737.5966   -1859.2889    293.05307   -3414.7569    413.46698 
    2880   -1305.0521    15.406972    18.001421    3733.3639    241.73128    2399.0809   -1332.7912    379.75401 
    2890   -1305.0476    15.104882    17.997098    3730.6748    1551.3969    3707.1681   -70.621854    360.12458 
    2900   -1305.0428    14.836455    18.008451    3737.7395   -2039.3784    169.03421   -3678.4697    230.20128 
    2910   -1305.0403     14.88548    17.999206    3731.9863    724.14366    2839.0419   -854.48835    301.01778 
    2920   -1305.0336    15.257071    17.997453    3730.8958    1338.3073    3273.4227   -76.192465    431.39533 
    2930   -1305.0245    15.781433     18.00917    3738.1872   -2236.8536   -413.01047    -3581.668     519.6664 
    2940   -1305.0191     16.41151    17.998027    3731.2525    1063.0324    2804.3456   -302.59371    546.77281 
    2950   -1305.0105    16.932235    17.997614    3730.9961    1040.2581    2814.1882   -346.97197    547.84491 
    2960   -1305.0002    17.131987    18.008008    3737.4636   -2204.5736   -371.41242   -3672.9541    462.23026 
    2970   -1304.9946    16.986291    17.995834     3729.889    1398.2172    3288.4508   -167.34954     382.3842 
    2980   -1304.9884    16.584956    17.997952    3731.2062    754.27164    2671.2493   -873.46842    313.68211 
    2990   -1304.9785    16.169284    18.007936    3737.4191   -2182.2647   -282.41365   -3787.5522     293.2413 
    3000   -1304.9725     16.01516     17.99563    3729.7623    1692.0953    3515.1556    121.27938    329.89871 
    3010    -1304.967    16.091064    18.000522    3732.8046    356.05549      2086.64   -1135.2855    332.21284 
    3020   -1304.9557    16.279373    18.009081    3738.1319   -2076.2259    -454.4524   -3366.2488    444.88384 
    3030   -1304.9474     16.35196    17.996442    3730.2669    1901.6608    3354.7974    699.70738    607.43226 
    3040   -1304.9408    16.317737    18.002994     3734.343   -94.528094    1332.6675   -1329.0694     606.2038 
    3050   -1304.9296    16.292298    18.008518    3737.7816   -1850.7627   -364.71831   -3156.5186     656.5936 
    3060   -1304.9192     16.35938    17.995396    3729.6167    2122.9269    3637.7183    707.25344    648.73387 
    3070   -1304.9114    16.451519    18.003489    3734.6511   -536.62046     1156.416   -2150.8868    426.77467 
    3080   -1304.9001    16.646046     18.00621    3736.3446   -1455.9444    284.08536   -3088.9745     277.9614 
    3090   -1304.8878    16.940373    17.993972    3728.7316    2126.7137    3899.2139    506.71832    139.00058 
    3100   -1304.8794    17.221169    18.003485    3734.6485   -794.64832    1014.4234    -2351.857    46.167107 
    3110    -1304.868    17.487588    18.004993    3735.5868    -1196.485     705.6587   -2720.2509    17.097527 
    3120   -1304.8558    17.706658    17.994198    3728.8719    2160.9265     4110.375     735.7801    24.880332 
    3130   -1304.8483    17.897638    18.005385    3735.8306   -1108.9729    836.64865   -2373.9022   -10.879213 
    3140    -1304.839    18.235211     18.00519    3735.7093   -1008.6898    945.56958   -2107.0379   -51.551554 
    3150   -1304.8282    18.614797    17.994664    3729.1618    2230.3949    4154.6085    1338.2183   -96.461368 
    3160   -1304.8231    18.733024    18.007009    3736.8416   -1356.3795    488.77602   -1978.2482   -26.009495 
    3170   -1304.8182    18.487065    18.004982    3735.5799   -889.47148    955.15886    -1427.051   -96.497975 
    3180   -1304.8102    18.157884    17.993923     3728.701    2369.4065    4122.6924    1835.8718   -92.458536 
    3190   -1304.8082    17.987465     18.00724    3736.9857   -1607.1086   -24.372472   -2109.6127    18.811489 
    3200   -1304.8062    18.195291    18.004025    3734.9846   -663.96235    748.15474    -1138.407    152.45713 
    3210   -1304.8003    18.639059    17.994036    3728.7711    2324.2968    3578.7535    1891.5149    352.35062 
    3220   -1304.7999     18.92523    18.007918    3737.4075      -1880.1   -743.90299   -2180.1123    512.98724 
    3230   -1304.8019    18.804681    18.002493    3734.0309   -320.16471    736.35622     -678.988    538.26922 
    3240   -1304.7995    18.370189    17.994075    3728.7955    2322.5415    3255.5912     1941.378    657.07957 
    3250   -1304.8012    17.912554    18.009234    3738.2275   -2229.6445    -1315.083   -2632.8537    698.99951 
    3260   -1304.8061    17.739223    18.001585    3733.4659    133.72629    1016.6794   -365.43758    729.36467 
    3270   -1304.8054    17.822963    17.995447    3729.6485    2091.4867    2946.8952    1517.4826    804.88813 
    3280   -1304.8064    18.108383     18.01059    3739.0717   -2443.2879    -1531.816   -3138.5921    792.30285 
    3290   -1304.8128    18.518451    18.000572    3732.8357    525.07777    1515.2517   -356.35525    750.84485 
    3300    -1304.814    18.746678    17.996041    3730.0178    1849.4966    2950.6656    773.60374    650.86344 
    3310   -1304.8163    18.550172    18.010087    3738.7586   -2554.0032   -1237.4492   -3940.8017     504.8215 
    3320   -1304.8247    18.135181    17.998144    3731.3256    1041.8105     2437.809   -416.74251     489.8931 
    3330   -1304.8292    17.729782    17.996932    3730.5718     1438.804    2882.2297   -66.821637    518.06745 
    3340    -1304.831    17.562824    18.010336    3738.9132   -2592.4313   -1109.1599   -4044.3038    578.62348 
    3350   -1304.8386    17.752203     17.99736    3730.8377    1433.7012    2898.8938   -2.8066119    623.18869 
    3360    -1304.844    18.076749    17.998896    3731.7933    968.89262    2502.3363    -440.4546    617.81103 
    3370   -1304.8455    18.226129    18.010412    3738.9611   -2467.2689   -850.98409   -3696.8832    675.22804 
    3380   -1304.8527    18.051294    17.996628    3730.3827    1694.9265    3384.0324    525.25504    682.64126 
    3390   -1304.8593     17.56754    18.000139    3732.5666    614.65049    2419.2837   -532.81096    664.91708 
    3400   -1304.8606    16.981059    18.009833    3738.6005   -2357.8805   -435.47501   -3531.5144    652.34067 
    3410   -1304.8651    16.593948    17.995808     3729.873    2029.7521    3883.5061    977.04969    804.96869 
    3420   -1304.8703     16.52893    18.002349    3733.9414    52.916591    1892.9909   -902.15283    821.72946 
    3430   -1304.8689    16.717059    18.009157     3738.179   -2152.3767   -286.33445   -3000.1466    755.45038 
    3440   -1304.8687    17.041079    17.993986    3728.7401    2309.0492    4091.5473    1744.4075    828.35892 
    3450   -1304.8711     17.35584    18.002336    3733.9331   -376.80638    1349.0191   -771.44829    785.77069 
    3460   -1304.8678    17.678734    18.006991    3736.8304   -1883.1072   -260.54561   -2177.8592    756.63168 
    3470   -1304.8645    18.102609    17.992475     3727.801    2438.8473    3913.0745    2264.4712    750.23317 
    3480   -1304.8659    18.481409     18.00283     3734.241   -764.58253     605.9761   -916.02029    670.91847 
    3490   -1304.8627    18.723524    18.005509    3735.9078   -1539.9218   -313.35042   -1680.4364    575.60351 
    3500   -1304.8587    18.735589    17.992965    3728.1053    2523.0137    3516.3512    2577.2433    599.42981 
    3510   -1304.8607    18.405465    18.006026    3736.2298   -1277.7619   -385.38605   -1284.7623    521.77405 
    3520   -1304.8591    17.840554    18.006044    3736.2408   -1095.0258   -274.02447   -1177.0913    497.00363 
    3530   -1304.8545    17.243398    17.994862    3729.2847    2422.1869    3241.5836    2201.8169    473.91451 
    3540   -1304.8538     16.89483    18.008158    3737.5575   -1673.1119   -787.22119   -2159.4564    246.29633 
    3550   -1304.8515     17.07354    18.004581    3735.3303   -561.51474    388.48739   -1264.2094    194.88542 
    3560   -1304.8434    17.818382    17.995316    3729.5669    2245.2317    3327.2932    1326.5452    184.03933 
    3570   -1304.8382    18.772065    18.008728    3737.9123   -1996.9197   -706.23813   -3042.8696    109.54454 
    3580   -1304.8351    19.514929    18.001922    3733.6758   -65.004897     1424.875   -1183.0354    169.86214 
    3590   -1304.8267    19.651922    17.994575    3729.1061    2123.9016    3720.4341    1136.1354    249.99302 
    3600   -1304.8219     19.01177    18.008704    3737.8971   -2199.6451   -481.71459   -3127.1339    230.90298 
    3610   -1304.8209    18.053748    18.000266    3732.6454    257.37947     2036.696   -616.14416    200.92773 
    3620    -1304.814     17.23642     17.99465    3729.1531    1932.1979    3725.9376     1050.181    179.84717 
    3630   -1304.8074     16.87484     18.00863    3737.8509   -2388.8612   -566.97085   -3397.2698    121.66689 
    3640   -1304.8038     17.08796    17.998432    3731.5046    772.96584    2695.4905   -348.91631    161.90753 
    3650   -1304.7946    17.719894     17.99616    3730.0917    1591.1957     3562.517    438.79662    221.10349 
    3660   -1304.7825    18.512234    18.009906     3738.646   -2589.8281   -532.71231   -3753.2479    154.73388 
    3670   -1304.7758    19.226982    17.997217    3730.7491    1290.0489    3354.0485   -1.5305758     118.5191 
    3680    -1304.766    19.607669    17.997758    3731.0856    1235.2782    3263.5115   -88.323335    151.58837 
    3690   -1304.7527    19.611408    18.010836     3739.225    -2610.036   -625.65384   -3948.0563     182.3156 
    3700    -1304.746    19.310544    17.997375    3730.8476     1682.128    3495.2701    329.99516    243.98681 
    3710   -1304.7395    18.757893      18.0013    3733.2885     682.9547    2342.4387   -444.34511    393.26825 
    3720   -1304.7271    18.373954    18.011882    3739.8762   -2538.2354   -886.85501   -3587.6065    416.44381 
    3730   -1304.7195    18.541139    17.996464    3730.2805    2070.8962    3740.4951    1034.4337    478.27427 
    3740   -1304.7124    19.206987    18.002239    3733.8732    286.76247    1962.0835   -772.54582    478.87463 
    3750   -1304.6992     20.12919    18.010768    3739.1826   -2391.2168   -668.20259   -3581.9506     346.4833 
    3760     -1304.69    20.909825    17.995126    3729.4491    2338.5415    4081.6718     1043.541    325.43853 
    3770   -1304.6854    21.172384    18.003426    3734.6116   -111.00809    1687.8229   -1430.3363    333.46953 
    3780   -1304.6756    20.925255    18.010564    3739.0553   -2180.1861   -310.04521   -3501.4619    364.15028 
    3790   -1304.6699    20.388973    17.995407    3729.6236     2446.172     4399.051    1043.2278    405.59915 
    3800   -1304.6697    19.801508    18.005226    3735.7321   -503.56922    1538.8992   -1940.5968    462.35704 
    3810    -1304.664     19.44729    18.009745    3738.5452   -1846.2653    224.90472   -3217.3763     605.3303 
    3820   -1304.6587    19.384023    17.995476    3729.6666    2535.7455    4544.3399    1255.0452    703.78139 
    3830   -1304.6585     19.57957    18.006908    3736.7791   -1022.4346    926.21426   -2352.0176    680.04833 
    3840    -1304.655    19.965002    18.007675    3737.2563   -1464.5818    421.29632   -2874.6193    620.14044 
    3850   -1304.6486    20.332686    17.993498     3728.437    2556.4458    4408.5221    1034.5491    487.75155 
    3860   -1304.6486    20.427699    18.005253    3735.7488   -1349.0383    456.05465   -2896.4324    232.85481 
    3870   -1304.6475    20.331695     18.00362    3734.7325   -826.88453     842.9502   -2400.8371    189.25911 
    3880   -1304.6434    20.081585    17.993695    3728.5594    2301.2522    3886.2621    774.55655    269.24786 
    3890    -1304.644    19.794604    18.007021    3736.8492   -1755.1643   -191.61771   -3165.7685     194.2021 
    3900   -1304.6449    19.784417    18.002529    3734.0532   -296.64659    1184.5136   -1618.0151    168.13638 
    3910   -1304.6417    20.177807    17.994945    3729.3364    2028.3737    3435.5383    854.32159    88.672158 
    3920   -1304.6417    20.932074    18.007992    3737.4541   -1893.6013   -525.17868    -2923.163    76.034793 
    3930   -1304.6447    21.738397    18.001637    3733.4987    44.417794    1357.4184    -828.9802    175.43532 
    3940   -1304.6451    22.115477    17.995768    3729.8478    1787.2557    3053.8009    1008.4859     266.1752 
    3950   -1304.6492    21.720678    18.008069    3737.5017   -1992.4878    -741.9629   -2747.6416    374.67791 
    3960   -1304.6577     20.69618    17.999943    3732.4447    388.54904     1570.192   -323.81454    550.47479 
    3970   -1304.6622    19.356122    17.995808    3729.8729    1507.7374      2651.94    763.79885    559.79387 
    3980   -1304.6665    18.283744    18.007323    3737.0375   -2003.9752   -899.61374   -2785.7735    590.30493 
    3990   -1304.6727    18.045238    17.998394    3731.4808    712.77023    1753.2774   -56.113413    682.65395 
    4000   -1304.6747    18.534692    17.996792    3730.4845    1220.2499    2244.5972    477.77958    735.45671 
    4010   -1304.6745    19.340822     18.00761    3737.2162    -1967.555   -928.74303   -2663.2169    776.81177 
    4020   -1304.6771    20.038204    17.998481    3731.5353    1033.1606    2045.3617    426.08907    908.24739 
    4030   -1304.6785    20.391301    17.999752    3732.3258    773.41159    1861.8868    173.30499    866.55281 
    4040   -1304.6776    20.488251    18.008775    3737.9417   -1918.8027   -684.92558     -2446.85    743.17553 
    4050   -1304.6802    20.402265     17.99825    3731.3916     1361.258    2677.3071    976.78663    654.23238 
    4060   -1304.6828    20.134637    18.001476    3733.3982    379.66677    1811.2103    -51.76897     475.4167 
    4070   -1304.6821    19.764099    18.008833    3737.9773      -1769.7    -280.5145   -2181.3985    414.02933 
    4080   -1304.6835    19.502395    17.998049    3731.2665    1500.3242     3099.663    1023.4677    397.87842 
    4090   -1304.6852    19.476234    18.002564    3734.0755    89.714781     1824.643   -509.68159    344.73836 
    4100   -1304.6833      19.7798    18.007837    3737.3575   -1641.2975    257.41359   -2452.1003    344.94374 
    4110   -1304.6824    20.308474     17.99637    3730.2225    1728.5956    3728.1405    649.27837    435.15221 
    4120   -1304.6831     20.73152    18.002416     3733.983   -225.00892    1892.5061   -1565.3331    459.77225 
    4130   -1304.6811    20.888778    18.006154    3736.3099   -1455.7971    789.84246   -2976.0497    429.26356 
    4140   -1304.6798    20.764137    17.995184    3729.4851    1880.4632    4220.3516    276.96728    466.77487 
    4150   -1304.6815    20.366077    18.003261    3734.5091   -592.05834    1938.5143   -2157.3549    425.08138 
    4160   -1304.6802    20.041605    18.005441     3735.866   -1100.7894    1555.8984   -2687.9221    316.55105 
    4170   -1304.6781    19.955943    17.996334    3730.2001    1814.4639    4561.0519    57.087783    204.84049 
    4180   -1304.6782     20.02035    18.005458    3735.8765   -936.17875     1948.964   -2929.7068     32.96917 
    4190   -1304.6763    20.139391    18.005122    3735.6672   -710.30263    2205.4378   -2840.3227   -3.6626003 
    4200   -1304.6726     20.13459    17.997587    3730.9794    1719.4341    4598.0224   -620.65305    42.337672 
    4210   -1304.6708    19.887065    18.007467    3737.1271   -1167.4007    1600.2655   -3570.1166     92.93413 
    4220   -1304.6681    19.644385    18.005183    3735.7051   -519.52809    2128.0983   -2933.8408    125.39583 
    4230    -1304.662    19.549189    17.997763    3731.0883    1700.5927    4146.3005   -671.60416    247.74154 
    4240   -1304.6573    19.555674    18.007486    3737.1388   -1399.6782    901.96882   -3734.7509    317.72168 
    4250   -1304.6526     19.60298    18.002793    3734.2174    -202.7276     1959.304   -2438.3292    422.75983 
    4260   -1304.6433    19.587004    17.996118    3730.0653    1613.5615    3635.3327   -511.55588     482.4685 
    4270   -1304.6352    19.519801    18.005937    3736.1742   -1475.9311    444.13858   -3487.4703    542.52889 
    4280   -1304.6273    19.681248    18.000633     3732.874    53.571232    1900.7236   -1910.6278     560.8365 
    4290   -1304.6154    20.102081    17.995838    3729.8916    1308.0695    3219.8055   -716.90106    381.95284 
    4300   -1304.6038    20.687405     18.00474    3735.4292   -1438.6049     520.8991   -3357.3697     301.1823 
    4310   -1304.5932    21.434862    17.999051    3731.8895    334.81371    2308.3116   -1499.3276    225.77515 
    4320   -1304.5809    22.092498    17.996902     3730.553    1100.1559    3062.8285   -610.13359    133.98159 
    4330   -1304.5691    22.480674    18.006228    3736.3557   -1431.1514    410.71648   -2985.2474    175.13688 
    4340   -1304.5598    22.584379    18.000916    3733.0501    528.43738    2203.9741   -946.52901    292.08068 
    4350   -1304.5511    22.435644    18.000758    3732.9515    784.17329    2333.7776   -567.02867    366.43563 
    4360   -1304.5425     22.28052    18.008506    3737.7741    -1477.739   -18.496477   -2643.1725     483.7583 
    4370   -1304.5369    22.181002    18.001017    3733.1128     746.8704    2122.9063   -248.77905     561.4761 
    4380   -1304.5309    21.996466    18.001029    3733.1203    555.88451    1933.1863   -314.54399     495.1517 
    4390   -1304.5248    21.702322    18.007075    3736.8832   -1263.9749    42.581554   -2049.4936    530.25639 
    4400   -1304.5205    21.454627    18.000083    3732.5318    799.62539    2043.0301   -11.499733    472.57464 
    4410   -1304.5159    21.270287    18.001169    3733.2074    370.21599    1589.2712   -478.60176    362.13961 
    4420   -1304.5103    21.249006    18.006134    3736.2969   -1107.9067    69.414772   -1910.9228    304.86576 
    4430   -1304.5055    21.392337    17.999704     3732.296    848.93476    2025.2753    73.661308    368.72178 
    4440   -1304.5008    21.588522    18.001922    3733.6758    188.21775    1347.5381   -580.06863     406.6713 
    4450   -1304.4949    21.818436    18.005996    3736.2111   -1036.1559    91.056682   -1784.7934    387.13118 
    4460   -1304.4899    22.017823    17.999604    3732.2336    951.79578    2007.4282    310.30991    415.75913 
    4470   -1304.4858    22.130433    18.002899     3734.284    -64.26959    994.02035   -661.60792     423.0732 
    4480    -1304.481    22.128265    18.005556    3735.9374    -875.0925    178.45489    -1334.611    436.53646 
    4490   -1304.4769    22.024937    17.999211    3731.9892    1033.4545    2066.3445    741.45382     487.7795 
    4500   -1304.4739    21.871285    18.003478    3734.6443   -245.00314    785.96369   -549.58519    497.13351 
    4510     -1304.47    21.853419    18.005425    3735.8557   -751.85154    296.86918   -1018.0646    568.53631 
    4520   -1304.4662    22.162391    17.999646      3732.26    1054.9794    2188.9561    809.33223    568.80435 
    4530   -1304.4636    22.627752    18.004424    3735.2326   -447.79863     842.1335   -768.15051    446.53423 
    4540    -1304.461    23.061203    18.004719    3735.4164    -561.8148    849.15639   -880.03306    418.92464 
    4550   -1304.4589    23.220481    17.999314    3732.0531    1051.3771    2568.2393     729.3509    431.19291 
    4560   -1304.4589     22.97087    18.004672    3735.3868   -533.53507    1063.7735   -894.47482    472.99264 
    4570   -1304.4594    22.559517    18.004501    3735.2805   -434.97534    1211.0298   -810.90074    492.75977 
    4580   -1304.4598    22.230688     17.99998    3732.4677    956.29538    2572.1449    650.60978    584.52786 
    4590   -1304.4611    22.166545    18.005043    3735.6183   -718.69346    950.53322   -1139.7289    594.79054 
    4600   -1304.4629    22.305919    18.002679    3734.1471   -166.46201    1586.6105   -754.98927     621.5756 
    4610   -1304.4638    22.428394    17.998675    3731.6558    913.80555    2710.2772    115.09161    610.38595 
    4620   -1304.4655    22.320011    18.003683    3734.7717    -925.5097    950.79905   -1963.7478    362.29101 
    4630   -1304.4679    22.157674     17.99986     3732.393     286.7257    2155.0403   -936.15669    388.58844 
    4640   -1304.4697     22.17942    17.998891      3731.79    621.80356     2441.308   -741.60488    406.31162 
    4650   -1304.4712     22.42005    18.004377    3735.2032   -941.53101    796.23526   -2496.8628      515.381 
    4660   -1304.4738    22.784206    18.000226    3732.6206    395.26679    2083.8996   -1203.9913     538.2556 
    4670   -1304.4765    23.122508    18.000179    3732.5913    502.44786    2232.8191   -1098.6173     525.5926 
    4680   -1304.4794    23.245422     18.00547     3735.884   -920.22889    823.02887   -2529.8135    524.62607 
    4690   -1304.4838    23.100046    18.001582    3733.4643    437.08315    2181.2481   -993.24814    610.75622 
    4700   -1304.4886    22.753864    18.002004    3733.7266    323.27496    2159.1013   -1088.0009     529.9975 
    4710   -1304.4931    22.302267    18.005686     3736.018   -788.76185    1136.7518   -2164.9577    460.07864 
    4720   -1304.4981     21.89892     18.00125    3733.2575    527.07198    2534.3562   -747.08012    449.96588 
    4730   -1304.5024    21.635469    18.002093    3733.7819    203.23525    2300.0005   -983.46946    445.78895 
    4740   -1304.5057    21.601683    18.005216    3735.7256    -673.5796    1420.6972   -1803.1913    555.80317 
    4750   -1304.5086    21.721332    18.001301    3733.2893    458.91257    2563.8266   -664.51145    594.74566 
    4760   -1304.5109    21.828637    18.002128    3733.8037    190.27363    2241.3994   -831.79243    662.21132 
    4770   -1304.5122    21.816916    18.004895    3735.5261   -644.87775    1293.8077   -1510.8587    714.19201 
    4780   -1304.5133    21.760391    18.001125    3733.1797    504.27026    2279.1994   -144.59479    756.19643 
    4790   -1304.5137    21.806829     18.00267    3734.1412    126.52499    1677.1924   -393.45803    766.33087 
    4800   -1304.5129    22.122124    18.005396    3735.8379   -692.55782    665.53775   -1081.0644    705.53459 
    4810   -1304.5121    22.687457    18.000967    3733.0813    578.02609    1799.6025    261.14724    578.92227 
    4820   -1304.5111    23.168808    18.002409    3733.9788   -6.2295558    1202.8234    -448.0476    286.03302 
    4830   -1304.5102    23.212191    18.004088    3735.0234   -581.97199    638.42094   -1008.1521    110.90526 
    4840   -1304.5096    22.749368    17.999977    3732.4659    637.74748    1884.9304    150.35807   -15.347767 
    4850   -1304.5092    21.961909    18.002359    3733.9478   -139.26847    1168.1744   -754.48822   -175.71472 
    4860   -1304.5077    21.276655    18.003423    3734.6101   -435.88045    884.45787   -1268.7449   -294.20712 
    4870    -1304.505    20.977089    18.000264    3732.6445    686.68774    1891.9414   -269.67106   -232.67785 
    4880   -1304.5013    21.059601    18.003975    3734.9534   -338.44726    749.31185   -1452.1159   -187.90367 
    4890   -1304.4957    21.394523    18.004176    3735.0784   -315.34934    652.01114   -1472.6664   -80.470451 
    4900   -1304.4887    21.764582    18.001275    3733.2731    674.32735    1517.9556   -399.34675    1.1938759 
    4910   -1304.4808    22.063579    18.005184    3735.7057   -482.24597    336.49693   -1614.0198    7.4677461 
    4920   -1304.4721    22.289094    18.004014    3734.9775   -187.99726    689.32319   -1428.6171   -35.509485 
    4930   -1304.4622    22.460583    18.000877    3733.0256    660.85658    1648.4115   -610.92722   -77.345438 
    4940   -1304.4521    22.535805    18.004431    3735.2374   -570.91411    510.38984   -1689.7726   -118.79375 
    4950   -1304.4417    22.599354    18.002369     3733.954    93.424458    1120.5905   -893.98449   -28.311481 
    4960   -1304.4305    22.754586    18.001319    3733.3008    531.24072    1505.2482   -382.38462     110.0156 
    4970   -1304.4189    22.979156    18.005698    3736.0256   -692.81378    192.46543   -1396.4387    216.77478 
    4980   -1304.4075    23.296128    18.002796    3734.2196    161.74187    1081.7385   -467.89976    227.57871 
    4990   -1304.3956    23.694534    18.001502    3733.4147    526.93046    1524.7395   -138.90494    240.05753 
    5000   -1304.3839    23.981248    18.005702    3736.0281   -674.57879    429.39013   -1396.8189    383.14112 
    5010   -1304.3731    24.079876    18.002881    3734.2726    142.68006    1397.9276   -757.49703    429.63245 
    5020   -1304.3625    24.046117    18.001547    3733.4427    509.36091    1835.9482   -635.28841    416.17644 
    5030   -1304.3526    24.034933      18.0054    3735.8405   -722.87803    727.95994   -1978.4768    394.13082 
    5040   -1304.3436    24.239527    18.001733    3733.5581    239.42198    1744.0467   -1054.1606    330.53818 
    5050   -1304.3347    24.590094    18.000684    3732.9056    546.22025    2046.6133   -684.82934    316.75783 
    5060   -1304.3264    24.685847    18.005084    3735.6434   -863.99339    673.90154   -1978.0711    290.24451 
    5070   -1304.3198     24.32929    18.000728    3732.9332     438.8189    1965.2065   -601.20748    276.12189 
    5080   -1304.3135    23.610384    18.001066    3733.1432    434.09052    1919.0611   -444.88953    385.08102 
    5090   -1304.3069      23.0006    18.005758    3736.0634   -908.88521    552.20053   -1726.9865    444.15397 
    5100   -1304.3005    23.017933    18.001229    3733.2447    566.04347     1944.364   -184.41381    539.46026 
    5110   -1304.2934    23.860725     18.00231    3733.9175    189.80744    1540.8851    -615.8657    538.31208 
    5120   -1304.2856    25.113319     18.00549    3735.8962   -773.30154     520.5061    -1577.285    647.18647 
    5130   -1304.2791    26.037351    18.000701    3732.9158    631.74757    1899.9268   -224.33751    687.18032 
    5140   -1304.2745    26.041511     18.00266    3734.1348    126.20268    1341.6159   -876.58089    797.11836 
    5150   -1304.2711    25.247347    18.005894    3736.1477   -806.20885    403.01132    -1926.269    873.42562 
    5160   -1304.2695    24.306496    18.000838    3733.0016    731.06784    1943.0518   -480.92477    850.99937 
    5170   -1304.2685     23.80843    18.003233    3734.4916    62.047851    1256.1203   -1144.9278    831.70475 
    5180   -1304.2666    24.055622    18.006236    3736.3605   -777.04394    428.21184   -1858.5347    820.61454 
    5190   -1304.2653    24.693571     18.00112    3733.1766     693.9692    2034.2129   -192.22279    760.31774 
    5200   -1304.2648    25.131907    18.003232    3734.4907    35.860302    1539.7515   -741.08834    763.99648 
    5210   -1304.2644    25.108501    18.005685    3736.0177   -736.95487     918.7476    -1429.991    712.43396 
    5220   -1304.2652    24.770336    18.000615    3732.8624    752.60233    2567.4028    75.057961     599.1295 
    5230    -1304.267    24.476941    18.003366    3734.5746   -27.304616    1932.5618   -715.30977    563.05187 
    5240   -1304.2683     24.57176    18.005867    3736.1306   -734.10839     1324.249   -1488.8881    637.90021 
    5250   -1304.2702    25.025195    18.000842     3733.004    791.68629    2870.0269   -60.072526    650.61479 
    5260   -1304.2734    25.543292    18.003958    3734.9428   -142.38724    1954.6069   -1186.5126    589.30675 
    5270    -1304.277    25.769245     18.00558    3735.9521   -691.61337    1482.4875   -1910.0525    486.26968 
    5280    -1304.282    25.500819    18.000098    3732.5409    875.86315    3152.3514   -465.67966    388.06313 
    5290   -1304.2884    24.763904    18.003586    3734.7112    -212.8963    2128.4658   -1676.3624    295.00202 
    5300   -1304.2943    23.941121    18.004996     3735.589    -605.0891    1698.7453   -2118.8374    273.10059 
    5310   -1304.2996    23.420427    18.000192    3732.5996    859.41996    3048.8588   -600.94199    293.72959 
    5320   -1304.3048    23.381113     18.00413    3735.0496   -347.42582    1692.3001    -1717.656    294.02839 
    5330   -1304.3088    23.773671    18.004489    3735.2733   -555.80525    1347.1652   -1804.5836    147.58395 
    5340   -1304.3119    24.303171    17.998988    3731.8506    952.02964    2751.0907   -172.12742   -12.233028 
    5350   -1304.3158    24.770997     18.00336    3734.5706   -321.86724    1322.3094    -1337.916   -46.116266 
    5360   -1304.3192    24.979198    18.004508    3735.2853   -605.70943    930.68532   -1533.6261   -30.417607 
    5370   -1304.3228    24.865707      17.9993    3732.0443    899.50815     2439.402    82.983608    -3.179591 
    5380   -1304.3273    24.498556    18.003385    3734.5859   -308.66867    1239.3868   -1120.6797    84.276103 
    5390   -1304.3309    24.069223    18.004411    3735.2246   -528.86656    1021.9791   -1358.7371    141.73657 
    5400   -1304.3339     23.68915    18.000191    3732.5991    1024.5057    2495.8174    168.57794    346.16776 
    5410   -1304.3369    23.387654    18.006058    3736.2496   -653.29003    859.94476   -1653.3325    436.96284 
    5420   -1304.3384     23.39132    18.005179    3735.7027   -453.40719    1181.1305   -1690.2352    365.83732 
    5430    -1304.338    23.658553    17.999558     3732.205    1099.3666    2880.1697   -268.38496    272.66495 
    5440   -1304.3378     24.05653    18.005425     3735.856   -683.08769    1160.2406   -2121.2401    256.36448 
    5450   -1304.3367    24.497178    18.004287    3735.1473   -364.65805    1484.5789   -1744.9717    229.36367 
    5460   -1304.3344    24.737297    17.999623    3732.2456    1129.5667    2885.0739    13.190722     256.3718 
    5470   -1304.3327    24.612341    18.006274    3736.3841   -959.13941    788.83552   -1877.7501    219.70574 
    5480    -1304.331    24.250708    18.003399    3734.5946   -22.001992    1649.9261   -852.28585    242.68671 
    5490   -1304.3277    23.815314     18.00024    3732.6292    1001.3174    2639.7514    166.30383     239.3557 
    5500   -1304.3238    23.499504    18.007091    3736.8929   -1196.4236    557.81044   -2205.4057    140.91785 
    5510   -1304.3197    23.495212    18.002091    3733.7809    350.35931    2137.8732   -648.41273     188.6918 
    5520   -1304.3133    23.854021    18.000735    3732.9373    871.91647    2620.5696   -64.282984    260.85089 
    5530   -1304.3053    24.415887    18.008295    3737.6428   -1328.3207    348.17566   -2243.7053    223.86437 
    5540   -1304.2981     24.94537    18.002205    3733.8521    514.76827    2114.9055   -391.45592     153.0092 
    5550   -1304.2894    25.230356    18.001244    3733.2536    750.01822     2313.622   -205.95134    80.017657 
    5560   -1304.2802     25.24964    18.008053     3737.492    -1332.052    227.03455    -2352.556    24.458569 
    5570   -1304.2726     25.15301    18.001258    3733.2627    744.78855    2267.5908   -237.57778    60.148406 
    5580   -1304.2642    25.046779    18.001931    3733.6815    552.48444    2012.3264   -332.66125    36.336914 
    5590   -1304.2545    25.027771    18.008509    3737.7759   -1444.0832   -64.981119   -2096.4787    33.653364 
    5600   -1304.2463    25.140256    18.000346    3732.6952    947.97035    2223.6659    519.41429    74.444749 
    5610   -1304.2374    25.433125    18.001726    3733.5537    401.59043    1665.3597    16.558017    106.43524 
    5620   -1304.2271     25.73558    18.007284    3737.0133   -1387.8937   -97.645065   -1820.6234     94.51342 
    5630   -1304.2183    26.035975    17.998727    3731.6884    1205.8156    2494.1401    791.30823    207.17003 
    5640   -1304.2106    26.193464    18.002461    3734.0109    93.288562    1392.0751   -445.37046    380.50257 
    5650   -1304.2012    26.080652    18.007487    3737.1397   -1399.6615   -106.73486   -2056.2559    573.70858 
    5660   -1304.1937    25.802683    17.997845    3731.1398    1353.1098    2742.1538    616.37492     647.7803 
    5670   -1304.1872    25.563551    18.001872    3733.6447    14.146139    1462.7034   -889.61896    629.84177 
    5680   -1304.1787    25.421972     18.00626    3736.3755   -1342.6998    89.398463   -2341.4798     605.2253 
    5690   -1304.1708    25.344541    17.996853    3730.5225    1499.2477    2862.4549    520.15792    608.85145 
    5700   -1304.1644     25.29392    18.002668    3734.1397   -264.39666    1019.4969   -1219.7571    546.90018 
    5710   -1304.1551    25.495902    18.006126    3736.2924   -1203.2837   -45.633707   -2173.3484    485.64195 
    5720   -1304.1459     26.08676    17.997169    3730.7193    1589.0147    2639.7056    671.56923    495.01019 
    5730   -1304.1391    26.823477    18.004443    3735.2443   -455.85514    523.47651   -1459.8943    471.35374 
    5740   -1304.1304    27.256924    18.007191     3736.955   -1112.8844   -147.34527   -2214.5595    482.84771 
    5750   -1304.1228    27.177151    17.998315    3731.4322    1655.3856    2706.1128     523.0302    500.20905 
    5760   -1304.1189      26.5995    18.006445    3736.4905   -635.65251    522.36147   -1810.9187    544.90024 
    5770   -1304.1133    25.901648    18.008154    3737.5547   -1072.8815    179.71068   -2242.6226     611.8949 
    5780   -1304.1071    25.463243    17.998799     3731.733     1806.319    3132.3854    636.81113    665.30157 
    5790   -1304.1034    25.464061    18.007669    3737.2526   -916.91962    517.99414   -2000.3577    710.44245 
    5800   -1304.0976    25.988526    18.007538     3737.171   -786.27638    730.02135   -1830.4005    891.92013 
    5810   -1304.0899    26.874373    17.998947    3731.8248     1733.603    3342.4973    636.37392      897.969 
    5820   -1304.0854    27.840067    18.007968     3737.439    -1163.345    576.95863    -2393.845    767.57489 
    5830   -1304.0822    28.780301    18.005181    3735.7039   -514.79437    1367.8624   -1814.5852    663.23965 
    5840   -1304.0781     29.40555    17.997213    3730.7467     1816.567    3817.1739     480.8695    656.61419 
    5850   -1304.0794    29.279072    18.007676    3737.2569   -1501.8953    701.47227   -2955.1345    534.79212 
    5860   -1304.0844     28.38463    18.003051     3734.378   -89.122365     2211.402   -1517.7778    503.15057 
    5870   -1304.0878    26.877992    17.997439    3730.8872    1740.4028    4069.3297    384.20872    531.54962 
    5880    -1304.093    25.352917    18.009784    3738.5698   -1795.6894    537.33634   -3158.7245    552.87225 
    5890   -1304.0991    24.640366    18.003916    3734.9165     186.0018    2496.2513   -1212.8069    606.81175 
    5900   -1304.1009    25.056422    17.999687    3732.2852    1652.7037    3959.4871    284.54604    690.03984 
    5910   -1304.1021    26.245484    18.012322    3740.1507   -2108.0785    277.90541   -3501.9679     696.7357 
    5920   -1304.1071    27.482284    18.003315    3734.5425    542.02426    3008.3715   -858.83896    664.32658 
    5930   -1304.1086    28.062446    17.999553    3732.2021    1625.4397    4121.1761    247.03547    627.92531 
    5940   -1304.1112    27.854904    18.012548    3740.2914   -2390.4676    92.929641   -3843.9828    579.36713 
    5950   -1304.1197    27.295901    18.001371     3733.333     1000.044    3294.6172   -459.42626    495.66748 
    5960   -1304.1252    26.768281     18.00024    3732.6294     1369.832    3391.0568   -27.128293    494.37056 
    5970   -1304.1281    26.448507     18.01297    3740.5544   -2683.1998    -831.3878   -4068.3038     314.9917 
    5980   -1304.1367     26.40506     17.99868    3731.6587    1713.9903    3233.4963    512.92955     417.5026 
    5990   -1304.1437    26.281177    18.001422    3733.3644    852.75871    2210.4151   -279.66834    369.50204 
    6000   -1304.1447    25.965683     18.01319    3740.6909   -2728.0287   -1409.5509   -3872.3283    271.42241 
    6010    -1304.151    25.694223    17.997023    3730.6284    2182.2398    3427.0816    1079.2777     302.9235 
    6020   -1304.1572    25.597385    18.002622    3734.1116    281.51486    1579.3845   -876.95425    153.26895 
    6030   -1304.1562    25.846928    18.011499    3739.6376   -2561.9679   -1218.6781   -3692.5824    108.96853 
    6040   -1304.1581    26.409499    17.994007    3728.7528    2645.5557    3995.0202    1548.9964    184.88377 
    6050   -1304.1641    26.672254    18.003338    3734.5569   -232.21552    1143.0858   -1356.7674    215.40203 
    6060   -1304.1618    26.351795    18.010717    3739.1507   -2410.7199   -997.33733   -3592.4129    224.40951 
    6070   -1304.1608    25.542256    17.993673    3728.5455    2972.3436    4373.1513    1895.2099    306.34234 
    6080   -1304.1657    24.829033    18.006538    3736.5485   -956.34612    466.75054   -1997.1859    191.18452 
    6090    -1304.162    25.024307    18.009978    3738.6908     -2023.51   -544.38957    -3090.185    130.83486 
    6100   -1304.1545    26.238092    17.992576    3727.8638    3223.1381     4709.419    2116.4479    131.81594 
    6110    -1304.155    27.631326    18.007644    3737.2369   -1546.7011    77.722326   -2746.3674   -69.027558 
    6120   -1304.1509    28.466269    18.007467    3737.1272   -1439.0353    206.11731   -2578.4017   -81.091657 
    6130   -1304.1428    28.230363     17.99283    3728.0216    3249.0059    4879.4754    2160.6308    90.246377 
    6140   -1304.1442    27.002405    18.011035    3739.3487   -2162.7576   -509.23525   -3194.2555    107.36151 
    6150    -1304.144    25.725704    18.007209    3736.9666   -922.51132    694.57923   -1903.5453    157.14413 
    6160   -1304.1347    25.076078    17.993625    3728.5155    3156.1997    4779.8858    2231.4845    234.99678 
    6170   -1304.1319    25.270081     18.01226    3740.1116    -2542.389   -853.40213   -3470.8571     330.3736 
    6180   -1304.1297    26.112971    18.004912    3735.5363   -467.57842    1308.4307   -1472.9554    304.32515 
    6190   -1304.1154    26.972433    17.992649    3727.9092    3123.4458    4954.4159    2035.5794    239.88091 
    6200   -1304.1076    27.229608    18.012216    3740.0843   -2874.2988   -1058.8181   -4146.1542    130.48148 
    6210   -1304.1042    27.087272    18.002563    3734.0745    13.372493    1853.3889   -1376.1097     185.9262 
    6220   -1304.0903    26.899865    17.993334    3728.3347    2960.7677    4770.4739    1629.7171    404.06399 
    6230   -1304.0798    26.891771    18.014267    3741.3621   -3250.6948    -1442.498   -4714.6371    565.66097 
    6240   -1304.0763    27.220689    18.002015    3733.7335     585.8663    2310.5728   -866.60907    777.29282 
    6250   -1304.0622    27.495421    17.995487     3729.673      2581.12    4225.4112    1130.2548    810.20191 
    6260   -1304.0487    27.371732    18.015087    3741.8733   -3441.0707   -1737.3319   -4918.7002    656.88713 
    6270    -1304.045    27.159497    17.999678    3732.2795     1287.635    2941.3733   -149.25692      606.044 
    6280   -1304.0331    27.093679     17.99732     3730.813    2042.5382    3700.9945    684.41072    536.36105 
    6290   -1304.0169    27.447857     18.01589    3742.3735   -3552.1636    -1865.423   -4775.0449    461.22735 
    6300   -1304.0116    28.294067    17.998149    3731.3285    1908.9579    3562.7869    790.44054    476.60557 
    6310   -1304.0017    29.075704    17.999593    3732.2267    1426.0225    3072.6738    428.56269    455.00643 
    6320   -1303.9854    29.417643    18.015716    3742.2653   -3529.5669    -1834.614   -4527.7468    416.39715 
    6330   -1303.9812    29.308259     17.99576    3729.8432    2503.1278    4200.7765    1474.0598    511.23069 
    6340   -1303.9777    28.723997    18.001215    3733.2362    837.02168    2612.7225   -271.61124    577.95201 
    6350   -1303.9645    28.072576    18.015204    3741.9463   -3416.8159    -1527.185   -4737.4975    553.01545 
    6360   -1303.9607    27.745138     17.99418    3728.8605    2866.8408    4861.1906    1321.3702    545.41133 
    6370   -1303.9594    27.812062    18.002375    3733.9575    281.91576    2395.0176   -1323.3932    470.67969 
    6380    -1303.947    28.113283    18.013595    3740.9437   -3104.2812   -920.54591   -4714.6542    444.04491 
    6390   -1303.9406    28.463372    17.993151    3728.2209    3207.3651    5356.2569    1552.0871    483.63596 
    6400   -1303.9412     28.59594    18.005197    3735.7141   -410.91394    1804.8162   -2157.5459    398.53213 
    6410   -1303.9304    28.794072    18.013266    3740.7384   -2765.2107   -534.07275   -4447.0663    376.94362 
    6420   -1303.9227    29.154542    17.993079    3728.1763     3408.982     5599.617    1836.4145    389.89643 
    6430   -1303.9247    29.264857    18.007361     3737.061   -1063.4781    1093.0099   -2655.7091    206.49492 
    6440   -1303.9191    28.864656    18.010806    3739.2064   -2193.3499   -3.0498225   -3806.7579    74.097503 
    6450   -1303.9111    27.956039    17.992223    3727.6443    3668.9043    5804.5067     2205.884    237.66854 
    6460   -1303.9147    26.828742    18.010677    3739.1257    -1786.334    324.59357   -3176.7243    303.17521 
    6470   -1303.9103    26.584284     18.01076    3739.1773   -1754.2554    338.26024   -3036.8456    434.28533 
    6480   -1303.8982    27.784135    17.992715    3727.9501    3562.0778    5665.7821    2359.8306    518.84912 
    6490   -1303.8967    29.974721    18.010937    3739.2879   -2099.2547    1.3743608   -3244.2489    645.19366 
    6500   -1303.8937    32.232319    18.007581    3737.1979   -1248.9436      829.405   -2317.6405    701.12173 
[...]
   42360   -1299.8203    78.457285    18.010439    3738.9776    1103.4699    1812.2517     1136.022    377.51518 
   42370    -1299.857     79.16716    18.010439    3738.9776    1183.4452    1885.7686    1232.4515    420.97367 
   42380   -1299.8982    79.471337    18.010439    3738.9776    1148.5845    1789.6528    1156.6334     494.7541 
   42390   -1299.9429    78.187026    18.010439    3738.9776    1366.2268    1946.9257    1366.5783    697.94137 
   42400   -1299.9875    75.793563    18.010439    3738.9776    1628.2922    2134.9335    1693.1713    716.89978 
   42410   -1300.0288    74.247475    18.010439    3738.9776     1949.031    2356.6466      2033.27    748.70381 
   42420   -1300.0651    74.661687    18.010439    3738.9776    2093.9725     2554.406    2115.2464    577.20941 
   42430   -1300.0967    75.999497    18.010439    3738.9776    2140.3518    2630.3765    2157.2014    541.11305 
   42440   -1300.1242    76.355014    18.010439    3738.9776    1845.9514    2341.2478    1781.4173    211.64558 
   42450   -1300.1471    75.086132    18.010439    3738.9776    1505.1981    1945.7158    1298.5298   -148.37009 
   42460   -1300.1648    73.126202    18.010439    3738.9776    1327.9087    1884.6448    840.26305   -179.28106 
   42470   -1300.1766    71.874162    18.010439    3738.9776    1075.0158    1724.3656    292.23738   -146.56528 
   42480    -1300.183    71.908002    18.010439    3738.9776    726.19389    1455.6576   -311.01948   -139.24941 
   42490   -1300.1849    72.551142    18.010439    3738.9776    519.98089    1499.2411   -721.69072   -79.753256 
   42500   -1300.1832    72.915718    18.010439    3738.9776    453.70108    1673.6495   -818.31088   -70.031078 
   42510   -1300.1788    73.024642    18.010439    3738.9776     585.0187    1962.7295    -660.2794   -72.400417 
   42520    -1300.172    73.878537    18.010439    3738.9776    843.30553    2417.1225   -344.58928   -85.073051 
   42530   -1300.1636    75.909812    18.010439    3738.9776    854.99827    2700.8422   -340.57454   -75.725272 
   42540   -1300.1551    78.334545    18.010439    3738.9776    726.55562    2911.5229   -528.76343   -103.08652 
   42550   -1300.1482    79.999446    18.010439    3738.9776    600.66372    3061.3969   -798.68034   -261.07004 
   42560   -1300.1442    79.949238    18.010439    3738.9776    611.03422    3215.1858   -926.09492   -318.58902 
   42570   -1300.1427    77.917547    18.010439    3738.9776     795.8167    3462.1488   -794.82622   -357.09425 
   42580    -1300.142    74.539348    18.010439    3738.9776    1174.7116    3798.3846    -417.1526   -319.49996 
   42590   -1300.1394    71.404609    18.010439    3738.9776    1285.8018    3886.1774   -150.65898   -278.59537 
   42600    -1300.133    70.379521    18.010439    3738.9776    1275.6842    3799.8817   -177.01217   -219.61917 
   42610   -1300.1221    72.601408    18.010439    3738.9776    1241.9907    3625.1599   -265.20878   -42.501827 
   42620   -1300.1076    77.113416    18.010439    3738.9776    952.21144    3289.5792   -693.86354    42.080681 
   42630   -1300.0927    81.364993    18.010439    3738.9776    786.60144    3072.4342   -1069.3644     190.0741 
   42640   -1300.0809    82.591963    18.010439    3738.9776    764.76721    3018.2328   -1249.5545    254.75742 
   42650   -1300.0739    79.756962    18.010439    3738.9776     932.6055    3059.5447   -1004.7454    431.14965 
   42660   -1300.0694    74.664081    18.010439    3738.9776     1329.107    3440.1939   -597.11876    605.58625 
   42670   -1300.0634    70.692456    18.010439    3738.9776    1706.5462    3759.7989   -43.156613    773.72099 
   42680    -1300.053    69.887067    18.010439    3738.9776    1823.3763    3619.6404    154.01763    715.24753 
   42690   -1300.0369    71.665992    18.010439    3738.9776    1607.1897    3148.1996    35.536273    490.19746 
   42700   -1300.0156    73.931939    18.010439    3738.9776     1473.284    2853.9123    7.6723724    366.15643 
   42710   -1299.9904    75.445458    18.010439    3738.9776    1220.3599    2472.8391   -126.30414    302.76975 
   42720   -1299.9626     76.55939    18.010439    3738.9776    977.08476    2066.8106   -293.70825    316.12927 
   42730   -1299.9335     78.12399    18.010439    3738.9776    938.17813    1964.6065   -368.79414    347.76364 
   42740   -1299.9041    80.068475    18.010439    3738.9776    847.60836    1917.6647   -474.74964    348.73166 
   42750   -1299.8765    81.294523    18.010439    3738.9776    894.40176     2039.108   -247.27833    505.87893 
   42760   -1299.8521    80.586532    18.010439    3738.9776    1064.6329    2282.3106    68.885161     781.8584 
   42770   -1299.8312    78.331077    18.010439    3738.9776    1117.5372    2548.1549    283.58949    781.30137 
   42780    -1299.812    76.050153    18.010439    3738.9776    1229.9996    2830.5994    660.10277    594.14615 
   42790   -1299.7924    75.214944    18.010439    3738.9776    1292.0665    3108.5738    933.39541    505.78938 
   42800   -1299.7715    76.897024    18.010439    3738.9776    1266.2215    3133.3717    1080.5466     695.7108 
   42810   -1299.7498    80.870123    18.010439    3738.9776    1210.9366    3075.5502    1186.2787    925.53003 
   42820   -1299.7303    85.018039    18.010439    3738.9776      1151.64    3024.1555    1211.1623    1123.9243 
   42830   -1299.7171    86.707204    18.010439    3738.9776    1214.4924     2984.097    1417.6444    1285.3995 
   42840   -1299.7123    84.808797    18.010439    3738.9776    1143.1235    2863.2753    1138.8447    1212.6055 
   42850   -1299.7145    80.906671    18.010439    3738.9776    1544.9047    3026.8199    1203.9508    1101.7605 
   42860   -1299.7202    78.098509    18.010439    3738.9776    1771.6661      3043.38    1197.5098     951.5928 
   42870   -1299.7275    78.225357    18.010439    3738.9776    1847.0246    2817.2258    1143.9442    974.88213 
   42880   -1299.7371    80.330638    18.010439    3738.9776    1631.6036    2431.6901    919.11917    816.76353 
   42890   -1299.7516    82.051234    18.010439    3738.9776    1398.1116      2168.11    691.51041    610.46181 
   42900   -1299.7738    81.623435    18.010439    3738.9776    1569.3853     2441.508    890.76317    659.07447 
   42910   -1299.8058    79.428512    18.010439    3738.9776    1729.2381     2763.973    959.12851    495.67877 
   42920   -1299.8483    76.643337    18.010439    3738.9776    1784.5117    2917.0768    858.64635    171.33122 
   42930    -1299.901    74.372526    18.010439    3738.9776    1779.1033     2987.457    642.26223     121.7945 
   42940   -1299.9624    73.394599    18.010439    3738.9776     1660.547    2859.1418     341.9795    181.50906 
   42950   -1300.0289    73.727854    18.010439    3738.9776    1294.1902    2484.2027   -205.11056    31.371349 
   42960   -1300.0949     74.51439    18.010439    3738.9776     828.0357    1980.8433   -705.87974   -21.616252 
   42970   -1300.1548    75.001931    18.010439    3738.9776    390.01581    1538.2951   -1399.0453   -42.865551 
   42980   -1300.2045    74.843727    18.010439    3738.9776    313.15992    1458.2375   -1707.2617    164.01297 
   42990   -1300.2429    74.215176    18.010439    3738.9776    447.67941    1662.2239   -1825.0016    496.21379 
   43000   -1300.2712    73.711317    18.010439    3738.9776    601.25256    1687.1206   -1577.0621    796.47528 
   43010   -1300.2913    73.877176    18.010439    3738.9776    801.04511    1725.9514   -1142.3872    1072.8848 
   43020   -1300.3056    74.533854    18.010439    3738.9776       994.13    1899.1455   -812.55193    1158.2899 
   43030   -1300.3159    74.901059    18.010439    3738.9776    1002.3738    2011.5919   -736.20875    951.34906 
   43040   -1300.3233    74.714794    18.010439    3738.9776    1104.4248    2081.0961   -578.55329    771.47313 
   43050   -1300.3281    74.149172    18.010439    3738.9776    1319.1866    2213.9415   -245.94661    621.02454 
   43060   -1300.3303    73.374462    18.010439    3738.9776    1592.8837    2398.9101    244.27779    471.78028 
   43070   -1300.3295    72.037199    18.010439    3738.9776    1792.4543     2566.671    682.49199     250.4532 
   43080    -1300.325    70.008798    18.010439    3738.9776    1984.5009    2743.6974    1250.7666     123.5888 
   43090   -1300.3157    68.298603    18.010439    3738.9776    2051.2783    2862.2669    1584.6854   -38.976941 
   43100   -1300.3004    68.555196    18.010439    3738.9776    1946.8717    2907.4916    1555.9554   -249.28455 
   43110   -1300.2788    71.404544    18.010439    3738.9776    1558.0398    2757.4904    1069.6105   -388.80247 
   43120   -1300.2522    75.826808    18.010439    3738.9776    1137.6124    2507.6113    510.87103   -511.19281 
   43130   -1300.2236    79.568512    18.010439    3738.9776    734.62671    2218.9805   -57.011316   -631.02547 
   43140   -1300.1968    80.534173    18.010439    3738.9776    601.37798    2231.5749   -165.36311   -477.24407 
   43150   -1300.1736    78.152817    18.010439    3738.9776    698.14517     2356.556   -120.74826   -348.37107 
   43160   -1300.1528    74.008758    18.010439    3738.9776    1003.0297    2453.6371    265.20465     -174.561 
   43170   -1300.1315    71.031676    18.010439    3738.9776    1305.0264    2591.8045    550.10035    33.928859 
   43180   -1300.1068    71.114195    18.010439    3738.9776    1392.9498    2509.3655    723.26032    310.69292 
   43190   -1300.0782    73.850623    18.010439    3738.9776    1378.7503    2365.8577    719.41985    413.78356 
   43200   -1300.0471    77.126847    18.010439    3738.9776    1142.5656    2234.2576    305.70874    411.72095 
   43210   -1300.0166    78.521531    18.010439    3738.9776    1194.6353      2344.18    234.25759    483.46353 
   43220   -1299.9889    77.060967    18.010439    3738.9776     1289.684    2548.6125    328.08073    514.52281 
   43230   -1299.9637    74.431058    18.010439    3738.9776    1424.9338    2755.3586    493.24918    606.02613 
   43240    -1299.939    73.111599    18.010439    3738.9776    1664.6518     2906.579    922.47975    719.14728 
   43250   -1299.9134    74.646178    18.010439    3738.9776    1636.8804     3066.566    932.65638    810.21655 
   43260   -1299.8872     78.88998    18.010439    3738.9776    1437.9197    3091.0073    691.59821    895.65841 
   43270   -1299.8634    83.449124    18.010439    3738.9776    1260.9235    3143.2494    428.58339    939.02649 
   43280    -1299.846    85.397469    18.010439    3738.9776    1156.9418    3111.1004    383.79148    928.98833 
   43290   -1299.8369    83.505717    18.010439    3738.9776    964.81218    2901.1448    182.62939    832.62027 
   43300    -1299.834    79.337654    18.010439    3738.9776    1052.3382    2807.6955    334.88584    694.84574 
   43310   -1299.8334    76.068643    18.010439    3738.9776    1167.6308    2662.8902    451.69785    601.10072 
   43320   -1299.8323    75.775032    18.010439    3738.9776    1282.5102    2481.9094    809.26725     681.5777 
   43330   -1299.8306    78.076336    18.010439    3738.9776    1293.6407    2278.9363    902.99141    655.11631 
   43340   -1299.8297    80.824173    18.010439    3738.9776     1235.731    2103.2152    876.10323    503.47046 
   43350    -1299.832    81.802281    18.010439    3738.9776    1128.6311    1990.1366    712.40318    368.10523 
   43360   -1299.8382    80.390064    18.010439    3738.9776     1111.345    2167.3245    301.44753    246.06488 
   43370   -1299.8469     77.54283    18.010439    3738.9776    1280.6211    2624.6388     218.9472    314.20204 
   43380   -1299.8558     74.90458    18.010439    3738.9776    1348.3629    3151.9423   -181.90225    349.83558 
   43390    -1299.863    73.798189    18.010439    3738.9776     1200.574    3565.9355   -727.96066    370.26956 
   43400   -1299.8679    74.427737    18.010439    3738.9776    1168.8597    4011.4636   -1020.0268    441.14595 
   43410    -1299.871    76.242365    18.010439    3738.9776     1260.757    4363.9269   -1079.8503    480.80027 
   43420   -1299.8737    78.430676    18.010439    3738.9776     1271.658    4547.7887   -1068.7647    509.19519 
   43430   -1299.8779    80.003819    18.010439    3738.9776    1492.7043    4717.7639   -800.83057    672.38457 
   43440    -1299.885    80.569727    18.010439    3738.9776    1608.3062    4640.6428   -614.70927    760.51913 
   43450    -1299.896    80.222336    18.010439    3738.9776    1433.0231    4372.0204    -674.3184    754.79082 
   43460   -1299.9111    79.367887    18.010439    3738.9776    1562.6387    4209.6527   -103.42761    942.74721 
   43470   -1299.9303    78.157582    18.010439    3738.9776    1637.3217    3877.4118    309.65628    1037.4131 
   43480   -1299.9532    76.733404    18.010439    3738.9776    1524.0484    3506.6958     429.4069    1010.0986 
   43490   -1299.9793    75.470779    18.010439    3738.9776    1403.7277    3181.6678    471.95824    819.53883 
   43500   -1300.0085    74.904604    18.010439    3738.9776     1205.435    2825.7832    327.28849    660.71074 
   43510   -1300.0412    75.250726    18.010439    3738.9776    768.77616    2450.0033   -110.94758    393.35205 
   43520   -1300.0779    75.792102    18.010439    3738.9776     530.7071    2308.3111   -377.01159    205.87176 
   43530   -1300.1189    75.532548    18.010439    3738.9776    540.68617    2464.8501   -367.30129    111.76423 
   43540   -1300.1627    74.497867    18.010439    3738.9776    802.32998    2787.5992   -185.41875    109.93135 
   43550    -1300.207    73.644466    18.010439    3738.9776    955.46491    3010.5755    -115.2359    53.455903 
   43560   -1300.2497     73.66055    18.010439    3738.9776    1190.3851    3240.7279   -14.158207    91.874709 
   43570   -1300.2899    74.289739    18.010439    3738.9776      1250.21    3346.1721   -25.469746    222.28604 
   43580   -1300.3267    74.893151    18.010439    3738.9776    1324.3296     3328.985    104.88635    449.15391 
   43590   -1300.3597    74.631526    18.010439    3738.9776    1241.1925    3248.9621   -123.81974    519.50901 
   43600   -1300.3876    73.174917    18.010439    3738.9776    1157.3202    3170.7877   -264.96119    568.15926 
   43610   -1300.4093    71.395888    18.010439    3738.9776    1046.4234    3100.6508   -505.88325    619.28966 
   43620   -1300.4244    70.314743    18.010439    3738.9776    811.39279    2947.4388   -754.88781    584.79003 
   43630   -1300.4331     70.26438    18.010439    3738.9776    571.01472    2746.3228   -1002.5768    434.35277 
   43640   -1300.4361    70.695878    18.010439    3738.9776    451.67473    2535.4737   -1114.2152    394.57487 
   43650   -1300.4342    71.012972    18.010439    3738.9776    532.99841    2329.3311   -945.85252    502.74535 
   43660   -1300.4282    71.358304    18.010439    3738.9776    698.91227    2224.4237   -736.68975    526.58813 
   43670   -1300.4186    72.224109    18.010439    3738.9776    855.15866    2221.6733   -684.25796    526.35132 
   43680   -1300.4063    72.849686    18.010439    3738.9776    650.56837    2075.1814   -994.88474    297.71056 
   43690   -1300.3919    72.542033    18.010439    3738.9776    613.96133    2135.2714   -1127.3763    127.40172 
   43700   -1300.3756    71.361802    18.010439    3738.9776    909.66169    2656.4189   -863.45979    193.88949 
   43710    -1300.357    70.318544    18.010439    3738.9776    1086.4742    3139.9256   -628.27916    200.39933 
   43720   -1300.3357    70.466062    18.010439    3738.9776    1139.8033    3320.2197   -246.29071     323.9362 
   43730   -1300.3117    72.255301    18.010439    3738.9776    941.72257    3110.4918   -270.46466    290.16213 
   43740   -1300.2864    74.806975    18.010439    3738.9776    762.98068    2754.7248   -283.27746    294.85497 
   43750   -1300.2619    76.227429    18.010439    3738.9776    631.91065     2525.458   -435.14906    309.62717 
   43760   -1300.2398    75.502117    18.010439    3738.9776     591.6988    2507.9809   -585.41622    209.84786 
   43770   -1300.2198    73.604587    18.010439    3738.9776    620.99621    2527.4608   -680.50273    168.79401 
   43780   -1300.2006    72.349975    18.010439    3738.9776    693.10772    2612.7013   -845.90987    65.772798 
   43790   -1300.1809    72.908936    18.010439    3738.9776    837.71662    2691.4644   -636.16603     42.53903 
   43800   -1300.1607    75.170297    18.010439    3738.9776    899.88212    2776.0995   -443.92057   -22.544653 
   43810   -1300.1413    77.704656    18.010439    3738.9776    1148.0303     2883.167    69.691441   -73.825068 
   43820   -1300.1244    78.741456    18.010439    3738.9776    1320.2412    2890.2404    397.70624   -42.101789 
   43830   -1300.1107    77.698928    18.010439    3738.9776    1308.4551    2894.9096    492.97758    10.924416 
   43840   -1300.0992    75.626502    18.010439    3738.9776    1400.0108    2907.8997    763.98307    188.40757 
   43850   -1300.0881    74.360821    18.010439    3738.9776    1559.0861    2939.7948    1094.5882    514.35737 
   43860   -1300.0762    74.583396    18.010439    3738.9776    1521.5865    2880.1294    1087.0342    676.70207 
   43870   -1300.0633    75.410225    18.010439    3738.9776     1287.143    2678.0477    658.78057    589.52179 
   43880   -1300.0499    75.717492    18.010439    3738.9776    1088.7302    2499.0083    239.01919    539.52899 
   43890   -1300.0362    75.219915    18.010439    3738.9776    856.52569    2341.8787   -340.93941    356.72948 
   43900   -1300.0219    74.760728    18.010439    3738.9776    809.49639    2302.4797   -648.43108     299.5883 
   43910   -1300.0067    75.391269    18.010439    3738.9776     741.1958    2239.1201   -838.76031    130.56856 
   43920   -1299.9906    77.134653    18.010439    3738.9776     813.1153    2355.4739   -923.08044    121.68829 
   43930   -1299.9749    78.633522    18.010439    3738.9776    946.28467    2613.5709   -851.28227    154.35264 
   43940   -1299.9608      78.4254    18.010439    3738.9776    1266.0591    3229.8385    -653.6818    237.94071 
   43950   -1299.9482    76.515843    18.010439    3738.9776    1695.2555    3971.8131   -270.72509    318.08297 
   43960   -1299.9359    74.415308    18.010439    3738.9776      2093.64    4593.7144     119.3111    370.50064 
   43970   -1299.9221    73.841506    18.010439    3738.9776    2495.4249    5035.4627     754.5689     587.5794 
   43980    -1299.906    75.739121    18.010439    3738.9776    2307.3953     4894.048    635.49701    545.84007 
   43990   -1299.8885    79.114703    18.010439    3738.9776    1966.8285    4494.0184    399.26768    665.88668 
   44000   -1299.8722    81.748199    18.010439    3738.9776     1715.874    4110.7794    191.78077    950.09248 
Loop time of 27.5855 on 1 procs for 3000 steps with 320 atoms

Performance: 9.396 ns/day, 2.554 hours/ns, 108.753 timesteps/s
94.7% CPU use with 1 MPI tasks x 1 OpenMP threads

MPI task timing breakdown:
Section |  min time  |  avg time  |  max time  |%varavg| %total
---------------------------------------------------------------
Pair    | 25.68      | 25.68      | 25.68      |   0.0 | 93.09
Neigh   | 0          | 0          | 0          |   0.0 |  0.00
Comm    | 0.022898   | 0.022898   | 0.022898   |   0.0 |  0.08
Output  | 1.478      | 1.478      | 1.478      |   0.0 |  5.36
Modify  | 0.39293    | 0.39293    | 0.39293    |   0.0 |  1.42
Other   |            | 0.012      |            |       |  0.04

Nlocal:    320 ave 320 max 320 min
Histogram: 1 0 0 0 0 0 0 0 0 0
Nghost:    1592 ave 1592 max 1592 min
Histogram: 1 0 0 0 0 0 0 0 0 0
Neighs:    13768 ave 13768 max 13768 min
Histogram: 1 0 0 0 0 0 0 0 0 0
FullNghs:  27536 ave 27536 max 27536 min
Histogram: 1 0 0 0 0 0 0 0 0 0

Total # of neighbors = 27536
Ave neighs/atom = 86.05
Neighbor list builds = 0
Dangerous builds = 0

# ----- Output restart data -----
write_data data.in.restart
Total wall time: 0:06:47
