LAMMPS data file via write_data, version 22 Dec 2022, timestep = 37

12 atoms
2 atom types

-0.017593056666090182 6.52409105666609 xlo xhi
-0.017593056666090182 6.52409105666609 ylo yhi
-0.014229573607686688 5.2767995736076845 zlo zhi

Masses

1 58.693
2 91.224

Atoms # atomic

8 2 1.1095755030241319 2.1260804403097766 -0.014229573607686688 0 0 0
11 1 3.2532489999999994 3.253248999999999 1.3085277131961561 0 0 0
3 2 2.1260804403097766 1.1095755030241319 2.6312849999999988 0 0 0
12 1 3.2532489999999994 3.253248999999999 3.954042286803842 0 0 0
2 2 2.126080440309777 5.396922496975866 -0.014229573607686688 0 0 0
5 2 1.109575503024132 4.380417559690222 2.631284999999999 0 0 0
9 1 -0.017593056666090182 6.524091056666089 3.954042286803842 0 -1 0
1 2 4.380417559690222 1.109575503024132 -0.014229573607686688 0 0 0
6 2 5.396922496975867 2.126080440309777 2.631284999999999 0 0 0
7 2 5.396922496975867 4.380417559690222 -0.014229573607686688 0 0 0
10 1 6.524091056666089 6.524091056666089 1.3085277131961557 -1 -1 0
4 2 4.380417559690222 5.396922496975866 2.6312849999999988 0 0 0

Velocities

8 0 0 0
11 0 0 0
3 0 0 0
12 0 0 0
2 0 0 0
5 0 0 0
9 0 0 0
1 0 0 0
6 0 0 0
7 0 0 0
10 0 0 0
4 0 0 0
