LAMMPS (22 Dec 2022)
  using 1 OpenMP thread(s) per MPI task
Loaded 1 plugins from C:\Program Files\LAMMPS 64-bit 23Jun2022\plugins
Loaded 0 plugins from C:\Program Files\LAMMPS 64-bit 23Jun2022-MPI\plugins
Loaded 1 plugins from C:\Program Files\LAMMPS 64-bit 22Dec2022-MSMPI\plugins
Loaded 1 plugins from C:\Program Files\LAMMPS 64-bit 28Mar2023-MPI\plugins
# Compute elastic constant tensor for a crystal
#
# Written by Aidan Thompson (Sandia, athomps@sandia.gov)
#
#  This script uses the following three include files.
#
#   init.mod      (must be modified for different crystal structures)
# 	       	  Define units, deformation parameters and initial
#		  configuration of the atoms and simulation cell.
#
#
#   potential.mod    (must be modified for different pair styles)
# 		     Define pair style and other attributes
#		     not stored in restart file
#
#
#   displace.mod    (displace.mod should not need to be modified)
# 		    Perform positive and negative box displacements
# 		    in direction ${dir} and size ${up}.
# 		    It uses the resultant changes
#		    in stress to compute one
# 		    row of the elastic stiffness tensor
#
#		    Inputs variables:
#		    	   dir = the Voigt deformation component
#		    		    (1,2,3,4,5,6)
#		    Global constants:
#       	    	   up = the deformation magnitude (strain units)
#       		   cfac = conversion from LAMMPS pressure units to
#               	   output units for elastic constants
#
#
#  To run this on a different system, it should only be necessary to
#  modify the files init.mod and potential.mod. In order to calculate
#  the elastic constants correctly, care must be taken to specify
#  the correct units in init.mod (units, cfac and cunits). It is also
#  important to verify that the minimization of energy w.r.t atom
#  positions in the deformed cell is fully converged.
#  One indication of this is that the elastic constants are insensitive
#  to the choice of the variable ${up} in init.mod. Another is to check
#  the final max and two-norm forces reported in the log file. If you know
#  that minimization is not required, you can set maxiter = 0.0 in
#  init.mod.
#

include init.mod
# NOTE: This script can be modified for different atomic structures,
# units, etc. See in.elastic for more info.
#

# Define the finite deformation size. Try several values of this
# variable to verify that results do not depend on it.
variable up equal 1.0e-6

# Define the amount of random jiggle for atoms
# This prevents atoms from staying on saddle points
variable atomjiggle equal 1.0e-5

# Uncomment one of these blocks, depending on what units
# you are using in LAMMPS and for output

# metal units, elastic constants in eV/A^3
#units		metal
#variable cfac equal 6.2414e-7
#variable cunits string eV/A^3

# metal units, elastic constants in GPa
units		metal
variable cfac equal 1.0e-4
variable cunits string GPa

# real units, elastic constants in GPa
#units		real
#variable cfac equal 1.01325e-4
#variable cunits string GPa

# Define minimization parameters
variable etol equal 0.0
variable ftol equal 1.0e-10
variable maxiter equal 1000
variable maxeval equal 100000
variable dmax equal 1.0e-2

# generate the box and atom positions using a diamond lattice

dimension    3
boundary     p p p
read_data    data.in
Reading data file ...
  orthogonal box = (-0.017593057 -0.017593057 -0.014229574) to (6.5240911 6.5240911 5.2767996)
  2 by 2 by 1 MPI processor grid
  reading atoms ...
  12 atoms
  reading velocities ...
  12 velocities
  read_data CPU = 0.001 seconds
#replicate    2 3 4
replicate    2 3 4
Replication is creating a 2x3x4 = 24 times larger system...
  orthogonal box = (-0.017593057 -0.017593057 -0.014229574) to (13.065775 19.607459 21.149887)
  1 by 2 by 2 MPI processor grid
  288 atoms
  replicate CPU = 0.000 seconds
change_box   all triclinic
Changing box ...
  triclinic box = (-0.017593057 -0.017593057 -0.014229574) to (13.065775 19.607459 21.149887) with tilt (0 0 0)

# Need to set mass to something, just to satisfy LAMMPS
mass 1 1.0e-20

include potential.mod
# NOTE: This script can be modified for different pair styles
# See in.elastic for more info.

# Choose potential
#-----------------------
#pair_style	sw
#pair_coeff * * Si.sw Si
#-----------------------
#pair_style morse	2.83994742	# D0[eV] a[1/A] r0[A] rc[A], 1NN for BCC
#pair_coeff 1 1	2.1173	1.0202	2.4595	2.6497	#	Fe-Fe
#-----------------------
#pair_style smatb # R0(A)   p       q     A(eV)   xi(eV)  Rcs(A)   Rc(A), 4NN: Rcs=4NN, Rc=(4NN+5NN)/2
#pair_coeff 1 1	2.4802	7.0149	2.3779	0.3144	3.0551	4.033	4.176	#	Co	Co
#-----------------------
#pair_style eam/alloy
#pair_coeff * * AlCrFeCoNi_Zhou04.eam.alloy Fe
#-----------------------
pair_style meam
pair_coeff * * ./../../library.meam Ni Zr ./../../NiZr.meam Ni Zr
#-----------------------

# Setup neighbor style
neighbor 1.0 nsq
neigh_modify once no every 1 delay 0 check yes

# Setup minimization style
min_style	     cg
min_modify	     dmax ${dmax} line quadratic
min_modify	     dmax 0.01 line quadratic

# Setup output
thermo		1
thermo_style custom step temp pe press pxx pyy pzz pxy pxz pyz lx ly lz vol
thermo_modify norm no

# Compute initial state
fix 3 all box/relax  aniso 0.0
minimize ${etol} ${ftol} ${maxiter} ${maxeval}
minimize 0 ${ftol} ${maxiter} ${maxeval}
minimize 0 1e-10 ${maxiter} ${maxeval}
minimize 0 1e-10 1000 ${maxeval}
minimize 0 1e-10 1000 100000
Neighbor list info ...
  update: every = 1 steps, delay = 0 steps, check = yes
  max neighbors/atom: 2000, page size: 100000
  master list distance cutoff = 5.8
  ghost atom cutoff = 5.8
  2 neighbor lists, perpetual/occasional/extra = 2 0 0
  (1) pair meam, perpetual
      attributes: full, newton on
      pair build: full/nsq
      stencil: none
      bin: none
  (2) pair meam, perpetual, half/full from (1)
      attributes: half, newton on
      pair build: halffull/newton
      stencil: none
      bin: none
Per MPI rank memory allocation (min/avg/max) = 9.884 | 9.884 | 9.884 Mbytes
   Step          Temp          PotEng         Press           Pxx            Pyy            Pzz            Pxy            Pxz            Pyz             Lx             Ly             Lz           Volume    
         0   0             -1757.6622     -0.016024756   -10168.224     -10168.224      20336.4        1.9639992e-11  1.5965677e-11 -3.5880961e-11  13.083368      19.625052      21.164117      5434.1364    
         1   0             -1757.6725     -7.6711967     -10148.498     -10148.498      20273.983      1.9705459e-11 -2.1345257e-11 -7.209258e-12   13.082714      19.624071      21.166233      5434.1363    
         2   0             -1757.6828     -15.153339     -10128.56      -10128.56       20211.66       7.2013315e-12 -4.2850608e-12 -5.9430165e-12  13.082059      19.623089      21.168349      5434.1355    
         3   0             -1757.6931     -22.464515     -10108.411     -10108.411      20149.428      4.3273468e-11  1.5749529e-11 -1.5178805e-11  13.081403      19.622105      21.170466      5434.1339    
         4   0             -1757.7034     -29.606773     -10088.054     -10088.054      20087.287     -6.5466697e-14  9.8194932e-12  2.0553986e-11  13.080747      19.62112       21.172582      5434.1316    
         5   0             -1757.7136     -36.582152     -10067.49      -10067.49       20025.234      2.9787364e-12  1.6226033e-13 -4.3737405e-12  13.080089      19.620134      21.174699      5434.1285    
         6   0             -1757.7238     -43.392675     -10046.723     -10046.723      19963.268     -5.531943e-12   2.3576416e-11  4.6561969e-13  13.079431      19.619146      21.176815      5434.1246    
         7   0             -1757.734      -50.040354     -10025.754     -10025.754      19901.387     -8.2160879e-12  1.5796176e-11 -5.6342396e-12  13.078772      19.618158      21.178931      5434.1201    
         8   0             -1757.7442     -56.527188     -10004.586     -10004.586      19839.59      -4.5172161e-12 -8.5970059e-13  1.6537361e-11  13.078112      19.617168      21.181048      5434.1148    
         9   0             -1757.7543     -62.855164     -9983.22       -9983.22        19777.875      4.6154215e-12  1.8017866e-11 -7.6444198e-12  13.077451      19.616177      21.183164      5434.1088    
        10   0             -1757.7644     -69.026254     -9961.6592     -9961.6592      19716.24       1.5941227e-11 -2.2465748e-11  6.6176705e-13  13.07679       19.615185      21.185281      5434.1021    
        11   0             -1757.7745     -75.042419     -9939.9055     -9939.9055      19654.684      2.1604157e-12 -2.363741e-11   4.4653833e-12  13.076128      19.614192      21.187397      5434.0947    
        12   0             -1757.7846     -80.905607     -9917.9609     -9917.9609      19593.205     -4.4190386e-12 -4.6139699e-12  2.8896562e-11  13.075465      19.613198      21.189514      5434.0866    
        13   0             -1757.7946     -86.617752     -9895.8276     -9895.8276      19531.802      2.2946304e-11  9.6850753e-12  1.3468052e-11  13.074802      19.612203      21.19163       5434.0779    
        14   0             -1757.8046     -92.180776     -9873.5078     -9873.5078      19470.473      7.5287577e-12 -7.2024433e-12  5.3051657e-12  13.074138      19.611207      21.193746      5434.0684    
        15   0             -1757.8146     -97.596588     -9851.0036     -9851.0036      19409.217      9.7219355e-12  1.1248117e-11  6.9047198e-12  13.073473      19.610209      21.195863      5434.0584    
        16   0             -1757.8246     -102.86708     -9828.317      -9828.317       19348.033      1.171872e-11  -4.7985145e-12  1.0541835e-11  13.072807      19.609211      21.197979      5434.0477    
        17   0             -1757.8345     -107.99414     -9805.4502     -9805.4502      19286.918     -1.1195002e-11 -2.1009328e-11 -1.0580537e-11  13.072141      19.608212      21.200096      5434.0363    
        18   0             -1757.8444     -112.97964     -9782.4053     -9782.4053      19225.872      8.4126367e-12 -4.2321475e-12 -1.4242293e-11  13.071474      19.607211      21.202212      5434.0243    
        19   0             -1757.8543     -117.82543     -9759.1843     -9759.1843      19164.892     -2.4386883e-11 -2.7168352e-11 -3.5327734e-11  13.070807      19.60621       21.204328      5434.0117    
        20   0             -1757.8641     -122.53342     -9735.7893     -9735.7893      19103.978     -7.0051082e-12 -1.4198374e-11  8.4637598e-12  13.070139      19.605208      21.206445      5433.9985    
        21   0             -1757.874      -127.10557     -9712.2223     -9712.2223      19043.128      2.5107157e-11  8.0039037e-13  7.0990451e-12  13.06947       19.604205      21.208561      5433.9847    
        22   0             -1757.8838     -131.54376     -9688.4854     -9688.4854      18982.339      1.3748415e-12  9.0895919e-12 -3.9882805e-12  13.068801      19.603201      21.210678      5433.9703    
        23   0             -1757.8936     -135.84976     -9664.5805     -9664.5805      18921.612      4.6482863e-12 -1.8188057e-12 -2.0673315e-11  13.068131      19.602196      21.212794      5433.9553    
        24   0             -1757.9033     -140.02535     -9640.5098     -9640.5098      18860.943      2.1244693e-11  2.6384554e-11  3.390131e-12   13.06746       19.60119       21.21491       5433.9397    
        25   0             -1757.913      -144.07231     -9616.2751     -9616.2751      18800.333     -1.7152931e-11 -8.6474971e-13  2.2256524e-11  13.066789      19.600183      21.217027      5433.9236    
        26   0             -1757.9227     -147.99239     -9591.8785     -9591.8785      18739.78      -2.5369394e-11 -8.9329294e-12  3.9126984e-11  13.066117      19.599176      21.219143      5433.9069    
        27   0             -1757.9324     -151.78735     -9567.3219     -9567.3219      18679.282      1.1719061e-11  1.354831e-11  -3.2780775e-11  13.065445      19.598167      21.22126       5433.8897    
        28   0             -1757.942      -155.4589      -9542.6073     -9542.6073      18618.838     -2.451845e-11  -1.670235e-11   3.477637e-12   13.064772      19.597158      21.223376      5433.8719    
        29   0             -1757.9517     -159.00877     -9517.7366     -9517.7366      18558.447     -2.717007e-12  -7.2344082e-12 -1.0602056e-11  13.064099      19.596148      21.225493      5433.8536    
        30   0             -1757.9613     -162.43866     -9492.7118     -9492.7118      18498.108     -3.6336002e-12 -1.7326925e-12 -4.0916364e-12  13.063425      19.595137      21.227609      5433.8347    
        31   0             -1757.9708     -165.75028     -9467.5349     -9467.5349      18437.819      1.3912483e-11 -6.3040938e-14  1.1592787e-11  13.06275       19.594125      21.229725      5433.8153    
        32   0             -1757.9804     -168.94532     -9442.2077     -9442.2077      18377.579      3.2735373e-12  2.900271e-11  -1.0639572e-11  13.062075      19.593113      21.231842      5433.7955    
        33   0             -1757.9899     -172.02545     -9416.7322     -9416.7322      18317.388      3.4175858e-11  1.2757637e-11  2.3488869e-11  13.0614        19.5921        21.233958      5433.7751    
        34   0             -1757.9994     -174.99233     -9391.1102     -9391.1102      18257.243     -1.2505008e-11 -1.5166375e-11 -3.6112026e-11  13.060724      19.591086      21.236075      5433.7542    
        35   0             -1758.0088     -177.8476      -9365.3437     -9365.3437      18197.145      6.5144144e-12 -1.05978e-11    1.3130393e-11  13.060047      19.590071      21.238191      5433.7329    
        36   0             -1758.0182     -180.59289     -9339.4346     -9339.4346      18137.091     -1.2668786e-11 -2.5598293e-11  2.9007124e-11  13.05937       19.589056      21.240307      5433.711     
        37   0             -1758.0276     -183.22981     -9313.3847     -9313.3847      18077.08      -2.4552012e-12  4.1081463e-12 -9.396995e-12   13.058693      19.58804       21.242424      5433.6887    
        38   0             -1758.037      -185.75999     -9287.1958     -9287.1958      18017.112      9.1333869e-12 -4.3473069e-12  4.8847424e-11  13.058015      19.587023      21.24454       5433.666     
        39   0             -1758.0464     -188.18499     -9260.8699     -9260.8699      17957.185      4.3866633e-12 -7.0004198e-12 -1.7556788e-11  13.057337      19.586005      21.246657      5433.6428    
        40   0             -1758.0557     -190.50648     -9234.4087     -9234.4087      17897.298      1.8201458e-11  1.7731144e-11 -2.0148253e-12  13.056658      19.584987      21.248773      5433.6191    
        41   0             -1758.065      -192.72614     -9207.8141     -9207.8141      17837.45       2.815346e-12   3.6677599e-12 -4.1853336e-11  13.055979      19.583969      21.250889      5433.595     
        42   0             -1758.0742     -194.84552     -9181.0879     -9181.0879      17777.639     -8.2496558e-12 -1.1285412e-11  1.8190208e-11  13.0553        19.582949      21.253006      5433.5704    
        43   0             -1758.0835     -196.86615     -9154.2318     -9154.2318      17717.865      1.8660021e-12  1.1295822e-12  2.334277e-11   13.05462       19.581929      21.255122      5433.5455    
        44   0             -1758.0927     -198.78956     -9127.2478     -9127.2478      17658.127      5.6962437e-12 -7.5510171e-12  2.3614734e-11  13.053939      19.580909      21.257239      5433.5201    
        45   0             -1758.1018     -200.61726     -9100.1375     -9100.1375      17598.423     -2.1933916e-12 -2.8608482e-11 -6.2688518e-12  13.053258      19.579888      21.259355      5433.4943    
        46   0             -1758.111      -202.35075     -9072.9027     -9072.9027      17538.753      3.0118358e-12  1.8774148e-11 -2.7146693e-11  13.052577      19.578866      21.261472      5433.4681    
        47   0             -1758.1201     -203.99151     -9045.5452     -9045.5452      17479.116      3.4210694e-11  1.0673002e-11 -3.7730839e-11  13.051896      19.577844      21.263588      5433.4415    
        48   0             -1758.1292     -205.54105     -9018.0667     -9018.0667      17419.51       5.8600427e-12 -2.0356979e-12 -1.6886275e-11  13.051214      19.576821      21.265704      5433.4145    
        49   0             -1758.1383     -207.00088     -8990.469      -8990.469       17359.935     -3.3065212e-12 -1.0458739e-11  7.132148e-13   13.050532      19.575797      21.267821      5433.3872    
        50   0             -1758.1473     -208.37244     -8962.7538     -8962.7538      17300.39       8.9702121e-12 -1.9258353e-11  3.3354731e-11  13.049849      19.574773      21.269937      5433.3595    
        51   0             -1758.1563     -209.65717     -8934.9228     -8934.9228      17240.874     -2.2163741e-11  8.4445935e-12 -1.9633311e-12  13.049166      19.573749      21.272054      5433.3313    
        52   0             -1758.1653     -210.85647     -8906.9777     -8906.9777      17181.386      1.2571523e-11 -1.3483145e-12 -2.3469666e-11  13.048483      19.572724      21.27417       5433.3029    
        53   0             -1758.1742     -211.97173     -8878.9202     -8878.9202      17121.925      1.3422791e-11 -8.0744639e-12  3.0208633e-12  13.047799      19.571699      21.276286      5433.2741    
        54   0             -1758.1831     -213.00434     -8850.7519     -8850.7519      17062.491      3.9286429e-13 -1.4502688e-11 -3.2125336e-11  13.047115      19.570673      21.278403      5433.2449    
        55   0             -1758.192      -213.9557      -8822.4745     -8822.4745      17003.082      6.6787292e-12 -1.8793198e-12  8.7222308e-12  13.046431      19.569647      21.280519      5433.2154    
        56   0             -1758.2009     -214.82717     -8794.0896     -8794.0896      16943.698     -5.1727696e-12  1.3376587e-11 -9.417408e-12   13.045746      19.56862       21.282636      5433.1856    
        57   0             -1758.2097     -215.62011     -8765.599      -8765.599       16884.338     -7.9228937e-12  2.5221596e-12 -3.5535765e-11  13.045062      19.567592      21.284752      5433.1554    
        58   0             -1758.2185     -216.33588     -8737.0042     -8737.0042      16825.001      1.0443873e-11  1.3196446e-11 -7.0267127e-12  13.044377      19.566565      21.286868      5433.1249    
        59   0             -1758.2273     -216.97581     -8708.3069     -8708.3069      16765.686     -2.9825775e-11 -1.1988496e-11  4.140135e-11   13.043691      19.565537      21.288985      5433.0941    
        60   0             -1758.236      -217.54128     -8679.5087     -8679.5087      16706.394      3.1102797e-12  2.3133209e-11  8.2120513e-12  13.043006      19.564508      21.291101      5433.063     
        61   0             -1758.2447     -218.03372     -8650.6112     -8650.6112      16647.121      1.6402728e-11  8.9592073e-12  2.3328864e-11  13.04232       19.563479      21.293218      5433.0316    
        62   0             -1758.2534     -218.45442     -8621.6159     -8621.6159      16587.869     -2.4849787e-11  4.3486432e-12  9.0262227e-12  13.041633      19.56245       21.295334      5432.9999    
        63   0             -1758.2621     -218.80467     -8592.5245     -8592.5245      16528.635     -2.3802242e-11 -3.6988889e-11 -2.2653124e-11  13.040947      19.56142       21.297451      5432.9679    
        64   0             -1758.2707     -219.08575     -8563.3385     -8563.3385      16469.42      -7.2356626e-12  2.844703e-11  -7.7310073e-12  13.04026       19.56039       21.299567      5432.9356    
        65   0             -1758.2793     -219.29891     -8534.0596     -8534.0596      16410.222      2.1281488e-12  2.3788266e-11 -2.2078904e-12  13.039573      19.55936       21.301683      5432.903     
        66   0             -1758.2878     -219.4454      -8504.6892     -8504.6892      16351.042      2.1314358e-11  4.421355e-12   1.5469443e-11  13.038886      19.558329      21.3038        5432.8702    
        67   0             -1758.2964     -219.52646     -8475.2289     -8475.2289      16291.878     -1.3161942e-11  2.249402e-11  -1.6194407e-11  13.038199      19.557298      21.305916      5432.8371    
        68   0             -1758.3049     -219.54333     -8445.6803     -8445.6803      16232.731     -9.4622499e-12 -1.2959711e-11 -2.5348862e-11  13.037511      19.556267      21.308033      5432.8037    
        69   0             -1758.3134     -219.49721     -8416.0448     -8416.0448      16173.598     -2.1380233e-11 -9.2735769e-12 -9.6379665e-12  13.036824      19.555236      21.310149      5432.7701    
        70   0             -1758.3218     -219.38931     -8386.3241     -8386.3241      16114.48      -3.264353e-11   1.2882434e-12  1.3973895e-11  13.036136      19.554204      21.312265      5432.7363    
        71   0             -1758.3302     -219.22082     -8356.5195     -8356.5195      16055.377     -1.0804847e-12 -1.6187313e-11 -1.4972857e-11  13.035448      19.553171      21.314382      5432.7022    
        72   0             -1758.3386     -218.99292     -8326.6326     -8326.6326      15996.287      7.39973e-12    3.9379731e-13  4.0522878e-11  13.034759      19.552139      21.316498      5432.6678    
        73   0             -1758.347      -218.70679     -8296.665      -8296.665       15937.21      -1.2835012e-11 -1.781242e-11  -8.5201403e-12  13.034071      19.551106      21.318615      5432.6333    
        74   0             -1758.3553     -218.3636      -8266.618      -8266.618       15878.145      1.0051974e-11 -1.1660212e-11 -4.1589947e-11  13.033382      19.550073      21.320731      5432.5985    
        75   0             -1758.3636     -217.96454     -8236.4932     -8236.4932      15819.093     -1.1689179e-11 -6.6815111e-12  3.1099482e-12  13.032693      19.54904       21.322847      5432.5635    
        76   0             -1758.3718     -217.51075     -8206.2919     -8206.2919      15760.052     -2.1610386e-12 -5.3718221e-12 -3.7207402e-13  13.032004      19.548006      21.324964      5432.5282    
        77   0             -1758.3801     -217.00333     -8176.0157     -8176.0157      15701.022      1.2769857e-12 -1.1672557e-12 -5.7685569e-12  13.031315      19.546973      21.32708       5432.4928    
        78   0             -1758.3883     -216.44339     -8145.666      -8145.666       15642.002     -2.7831922e-12 -4.5840933e-12  2.2959321e-11  13.030626      19.545939      21.329197      5432.4572    
        79   0             -1758.3964     -215.83204     -8115.2442     -8115.2442      15582.992      1.7616086e-11  1.0385774e-11 -1.7318105e-11  13.029936      19.544905      21.331313      5432.4213    
        80   0             -1758.4046     -215.17044     -8084.7517     -8084.7517      15523.992     -7.3346271e-12  1.1750897e-11  2.8128492e-11  13.029247      19.54387       21.33343       5432.3853    
        81   0             -1758.4127     -214.45978     -8054.19       -8054.19        15465.001      3.5363617e-12 -1.4897064e-11 -1.4942027e-11  13.028557      19.542836      21.335546      5432.3491    
        82   0             -1758.4208     -213.70107     -8023.5603     -8023.5603      15406.017      6.679839e-12  -2.0797952e-12  4.0743181e-12  13.027867      19.541801      21.337662      5432.3127    
        83   0             -1758.4288     -212.89538     -7992.8641     -7992.8641      15347.042      2.1938835e-12  1.1130773e-11  2.5210731e-11  13.027178      19.540766      21.339779      5432.2761    
        84   0             -1758.4368     -212.04374     -7962.1028     -7962.1028      15288.074     -9.332254e-12  -4.6440067e-12  6.6676009e-12  13.026488      19.539731      21.341895      5432.2394    
        85   0             -1758.4448     -211.14719     -7931.2776     -7931.2776      15229.114      1.9581494e-11 -4.9389464e-12  1.3639198e-11  13.025797      19.538696      21.344012      5432.2024    
        86   0             -1758.4528     -210.20675     -7900.3901     -7900.3901      15170.16      -4.9117795e-12 -3.3715258e-11 -2.9399074e-11  13.025107      19.537661      21.346128      5432.1654    
        87   0             -1758.4607     -209.22342     -7869.4415     -7869.4415      15111.213     -4.4861227e-12 -2.2240962e-11  1.8742833e-11  13.024417      19.536625      21.348244      5432.1281    
        88   0             -1758.4686     -208.19823     -7838.4332     -7838.4332      15052.272      4.9773383e-12 -2.4649024e-13 -4.6337421e-11  13.023727      19.53559       21.350361      5432.0907    
        89   0             -1758.4765     -207.13214     -7807.3666     -7807.3666      14993.337     -1.2443432e-11 -5.3689828e-12 -3.2843953e-11  13.023036      19.534554      21.352477      5432.0532    
        90   0             -1758.4843     -206.02615     -7776.2429     -7776.2429      14934.407      2.1415949e-11 -5.021822e-12  -9.9566787e-13  13.022346      19.533518      21.354594      5432.0155    
        91   0             -1758.4921     -204.88121     -7745.0635     -7745.0635      14875.483     -2.3479117e-11 -2.1629142e-11  3.5033516e-11  13.021655      19.532482      21.35671       5431.9777    
        92   0             -1758.4999     -203.69827     -7713.8297     -7713.8297      14816.565      1.4473978e-11 -1.2100367e-11 -4.6992263e-11  13.020964      19.531446      21.358826      5431.9397    
        93   0             -1758.5076     -202.47829     -7682.5428     -7682.5428      14757.651     -7.4990141e-12  7.9443065e-12 -3.5886886e-11  13.020274      19.53041       21.360943      5431.9017    
        94   0             -1758.5153     -201.22221     -7651.2041     -7651.2041      14698.742     -5.5014988e-12 -2.0043646e-12  2.3353581e-11  13.019583      19.529374      21.363059      5431.8634    
        95   0             -1758.523      -199.93096     -7619.8148     -7619.8148      14639.837      1.4048569e-11  2.2268506e-11  2.6321267e-11  13.018892      19.528338      21.365176      5431.8251    
        96   0             -1758.5306     -198.60545     -7588.3763     -7588.3763      14580.936     -4.1589299e-12  5.0174403e-12  2.2897541e-11  13.018201      19.527302      21.367292      5431.7867    
        97   0             -1758.5382     -197.2466      -7556.8899     -7556.8899      14522.04      -1.1134222e-11 -1.569408e-12   4.1672299e-11  13.01751       19.526265      21.369409      5431.7481    
        98   0             -1758.5458     -195.8553      -7525.3568     -7525.3568      14463.148      1.1592773e-11  1.7026237e-12  3.9123207e-12  13.016819      19.525229      21.371525      5431.7094    
        99   0             -1758.5534     -194.43246     -7493.7782     -7493.7782      14404.259      3.2420697e-12  9.300409e-12   9.8933737e-12  13.016128      19.524193      21.373641      5431.6707    
       100   0             -1758.5609     -192.97903     -7462.1554     -7462.1554      14345.374      3.0456025e-12 -1.8067293e-11 -3.5388404e-12  13.015438      19.523156      21.375758      5431.6318    
       101   0             -1758.5684     -191.49599     -7430.4898     -7430.4898      14286.492     -1.0315824e-11 -2.3271699e-11 -2.9004319e-11  13.014747      19.52212       21.377874      5431.5928    
       102   0             -1758.5758     -189.98425     -7398.7824     -7398.7824      14227.612     -2.1941752e-12  7.0174726e-12  3.0854323e-11  13.014056      19.521083      21.379991      5431.5538    
       103   0             -1758.5832     -188.44466     -7367.0345     -7367.0345      14168.735     -2.5151324e-11 -1.0764665e-11  8.7521691e-12  13.013365      19.520047      21.382107      5431.5146    
       104   0             -1758.5906     -186.87807     -7335.2475     -7335.2475      14109.861      1.6702172e-11  2.1549076e-11  5.5018919e-12  13.012674      19.51901       21.384223      5431.4754    
       105   0             -1758.598      -185.2853      -7303.4222     -7303.4222      14050.988      1.0840115e-11  3.2684094e-11 -1.8667268e-11  13.011983      19.517974      21.38634       5431.4361    
       106   0             -1758.6053     -183.66717     -7271.5595     -7271.5595      13992.117      1.3001683e-11 -8.121958e-12  -1.9453399e-11  13.011292      19.516938      21.388456      5431.3967    
       107   0             -1758.6126     -182.02449     -7239.6602     -7239.6602      13933.247      9.0062689e-12  2.4562551e-11 -2.3383549e-11  13.010601      19.515901      21.390573      5431.3573    
       108   0             -1758.6199     -180.35804     -7207.7252     -7207.7252      13874.376      8.2858277e-12  1.0480098e-12 -3.2750307e-13  13.00991       19.514865      21.392689      5431.3178    
       109   0             -1758.6271     -178.66863     -7175.7553     -7175.7553      13815.505     -1.0152669e-12 -2.043634e-11  -1.3296722e-11  13.009219      19.513828      21.394805      5431.2782    
       110   0             -1758.6343     -176.95703     -7143.7511     -7143.7511      13756.631     -1.2674554e-11 -1.1921286e-11  4.2445017e-11  13.008528      19.512792      21.396922      5431.2386    
       111   0             -1758.6415     -175.22395     -7111.7135     -7111.7135      13697.755      1.342792e-11  -5.8951843e-12  4.5851434e-12  13.007837      19.511756      21.399038      5431.1989    
       112   0             -1758.6486     -173.47017     -7079.6431     -7079.6431      13638.876      4.7816845e-12 -1.3755531e-11  9.3013589e-12  13.007146      19.51072       21.401155      5431.1591    
       113   0             -1758.6558     -171.69642     -7047.5408     -7047.5408      13579.992      1.1463026e-11 -6.4192947e-12 -1.0087463e-11  13.006456      19.509684      21.403271      5431.1193    
       114   0             -1758.6628     -169.90345     -7015.4073     -7015.4073      13521.104      3.4389331e-12 -6.0263209e-12 -4.3887337e-12  13.005765      19.508647      21.405388      5431.0795    
       115   0             -1758.6699     -168.09199     -6983.2433     -6983.2433      13462.211     -1.3297306e-11 -2.5022516e-11  2.508802e-11   13.005074      19.507611      21.407504      5431.0396    
       116   0             -1758.6769     -166.26278     -6951.0495     -6951.0495      13403.311      1.6245104e-11  7.0089762e-12 -1.8275742e-11  13.004384      19.506576      21.40962       5430.9997    
       117   0             -1758.6839     -164.41652     -6918.8267     -6918.8267      13344.404      7.4348098e-12  3.0656308e-11 -2.4826369e-11  13.003693      19.50554       21.411737      5430.9597    
       118   0             -1758.6908     -162.55392     -6886.5756     -6886.5756      13285.49      -5.0766696e-12 -2.4368014e-11  1.3101083e-12  13.003003      19.504504      21.413853      5430.9197    
       119   0             -1758.6977     -160.67566     -6854.2969     -6854.2969      13226.567      9.3345904e-12  1.3952756e-11 -3.4718126e-12  13.002312      19.503468      21.41597       5430.8797    
       120   0             -1758.7046     -158.78253     -6821.9912     -6821.9912      13167.635      2.9314105e-11  2.659559e-11  -8.7123486e-12  13.001622      19.502433      21.418086      5430.8397    
       121   0             -1758.7115     -156.87529     -6789.6593     -6789.6593      13108.693     -3.9304118e-13  2.2206827e-11 -3.0853733e-11  13.000932      19.501397      21.420202      5430.7996    
       122   0             -1758.7183     -154.95457     -6757.3018     -6757.3018      13049.74      -5.5026172e-12  5.9611686e-12  2.3189601e-11  13.000241      19.500362      21.422319      5430.7595    
       123   0             -1758.7251     -153.02103     -6724.9192     -6724.9192      12990.775     -2.0765982e-11 -1.3036058e-11  8.1884788e-12  12.999551      19.499327      21.424435      5430.7194    
       124   0             -1758.7318     -151.0753      -6692.5124     -6692.5124      12931.799      1.3527467e-11  8.9091308e-12 -1.3101663e-13  12.998861      19.498292      21.426552      5430.6793    
       125   0             -1758.7386     -149.11802     -6660.0818     -6660.0818      12872.81       7.5007574e-12 -2.0962816e-12  1.0546917e-11  12.998171      19.497257      21.428668      5430.6392    
       126   0             -1758.7453     -147.14982     -6627.6282     -6627.6282      12813.807     -3.2623623e-11 -3.5243994e-11  2.1290517e-11  12.997481      19.496222      21.430784      5430.5991    
       127   0             -1758.7519     -145.17132     -6595.1522     -6595.1522      12754.79       3.3442736e-11  1.3626031e-11 -5.2407813e-13  12.996792      19.495188      21.432901      5430.5589    
       128   0             -1758.7585     -143.18313     -6562.6543     -6562.6543      12695.759     -1.0809191e-12  5.2408201e-13  1.8932462e-11  12.996102      19.494153      21.435017      5430.5188    
       129   0             -1758.7651     -141.18591     -6530.1352     -6530.1352      12636.713     -8.5163955e-12 -1.4805426e-11 -2.6204294e-12  12.995412      19.493119      21.437134      5430.4787    
       130   0             -1758.7717     -139.18026     -6497.5956     -6497.5956      12577.65       1.0547306e-11  5.1098751e-12 -3.9306731e-12  12.994723      19.492085      21.43925       5430.4385    
       131   0             -1758.7782     -137.16676     -6465.0359     -6465.0359      12518.571     -1.058014e-11  -2.155335e-11  -5.8960532e-12  12.994034      19.491051      21.441367      5430.3984    
       132   0             -1758.7847     -135.14599     -6432.4567     -6432.4567      12459.475     -1.2250779e-11 -1.257834e-11  -4.133819e-11   12.993344      19.490017      21.443483      5430.3583    
       133   0             -1758.7912     -133.11851     -6399.8587     -6399.8587      12400.362      1.6116117e-11 -7.4029317e-12 -3.557338e-11   12.992655      19.488983      21.445599      5430.3182    
       134   0             -1758.7976     -131.08488     -6367.2424     -6367.2424      12341.23       5.2410523e-13  8.7787626e-12 -6.6823417e-12  12.991966      19.487949      21.447716      5430.2782    
       135   0             -1758.804      -129.04566     -6334.6083     -6334.6083      12282.08      -4.0290887e-12 -8.9753682e-12 -3.1774114e-11  12.991277      19.486916      21.449832      5430.2381    
       136   0             -1758.8104     -127.00138     -6301.9569     -6301.9569      12222.91      -3.0824393e-11 -1.3233852e-11  2.2405829e-11  12.990589      19.485883      21.451949      5430.1981    
       137   0             -1758.8168     -124.95258     -6269.2889     -6269.2889      12163.72       4.9135952e-13 -1.1727114e-11 -2.0964673e-11  12.9899        19.48485       21.454065      5430.1581    
       138   0             -1758.8231     -122.89979     -6236.6048     -6236.6048      12104.51       1.3987471e-11  3.079209e-12   4.7760497e-11  12.989212      19.483817      21.456181      5430.1181    
       139   0             -1758.8293     -120.84352     -6203.905      -6203.905       12045.279      2.0309826e-12  4.4550585e-12  2.3389057e-11  12.988523      19.482785      21.458298      5430.0782    
       140   0             -1758.8356     -118.78437     -6171.1901     -6171.1901      11986.027      5.6998962e-12  4.1930271e-12  9.1722468e-13  12.987835      19.481753      21.460414      5430.0382    
       141   0             -1758.8418     -116.7229      -6138.4605     -6138.4605      11926.752     -3.832717e-12  -1.5723967e-12  6.3551034e-12  12.987147      19.48072       21.462531      5429.9984    
       142   0             -1758.848      -114.65959     -6105.7167     -6105.7167      11867.455     -8.2551433e-12  1.3955123e-11 -2.4896464e-12  12.986459      19.479689      21.464647      5429.9585    
       143   0             -1758.8541     -112.59494     -6072.9592     -6072.9592      11808.134     -1.0646592e-11 -3.1448396e-12 -1.775524e-11   12.985771      19.478657      21.466763      5429.9187    
       144   0             -1758.8602     -110.52943     -6040.1885     -6040.1885      11748.789      3.6034884e-12 -6.3552431e-12 -3.3741755e-11  12.985084      19.477625      21.46888       5429.8789    
       145   0             -1758.8663     -108.46352     -6007.4051     -6007.4051      11689.42       4.9138837e-13  3.2759225e-13  5.5690682e-12  12.984396      19.476594      21.470996      5429.8392    
       146   0             -1758.8724     -106.39769     -5974.6093     -5974.6093      11630.026      4.9466791e-12 -8.9105743e-12  2.1031576e-11  12.983709      19.475563      21.473113      5429.7995    
       147   0             -1758.8784     -104.33239     -5941.8018     -5941.8018      11570.606     -3.1547594e-11  9.827911e-12   2.3128351e-11  12.983022      19.474532      21.475229      5429.7599    
       148   0             -1758.8844     -102.26808     -5908.9829     -5908.9829      11511.162      1.9000766e-11  1.683861e-11   2.6863152e-11  12.982335      19.473502      21.477346      5429.7203    
       149   0             -1758.8903     -100.20521     -5876.1532     -5876.1532      11451.691     -9.8280541e-14 -2.6208144e-12 -2.2801086e-11  12.981648      19.472472      21.479462      5429.6808    
       150   0             -1758.8962     -98.144201     -5843.3129     -5843.3129      11392.193      5.4382295e-12  2.031146e-12  -2.6863543e-12  12.980961      19.471442      21.481578      5429.6414    
       151   0             -1758.9021     -96.085501     -5810.4626     -5810.4626      11332.669      1.5888918e-11  5.5037903e-12  1.9656394e-11  12.980275      19.470412      21.483695      5429.602     
       152   0             -1758.908      -94.029532     -5777.6027     -5777.6027      11273.117     -9.5006592e-13  1.244914e-12   5.2286387e-11  12.979588      19.469382      21.485811      5429.5626    
       153   0             -1758.9138     -91.976714     -5744.7336     -5744.7336      11213.537     -1.4021764e-11 -1.1859529e-11  3.9772013e-11  12.978902      19.468353      21.487928      5429.5233    
       154   0             -1758.9196     -89.927444     -5711.8557     -5711.8557      11153.929      3.7347959e-12 -9.3042284e-12 -1.1007819e-11  12.978216      19.467324      21.490044      5429.4841    
       155   0             -1758.9254     -87.882153     -5678.9694     -5678.9694      11094.292     -1.6708418e-12 -1.5791093e-11  2.5750621e-11  12.97753       19.466295      21.49216       5429.4449    
       156   0             -1758.9311     -85.841296     -5646.0752     -5646.0752      11034.626     -1.3432354e-11  8.9112204e-12  1.4415209e-12  12.976845      19.465267      21.494277      5429.4058    
       157   0             -1758.9368     -83.805279     -5613.1734     -5613.1734      10974.931      5.8971735e-12  1.1794347e-11  2.0771156e-11  12.976159      19.464239      21.496393      5429.3668    
       158   0             -1758.9424     -81.774488     -5580.2644     -5580.2644      10915.205      9.1406846e-12 -5.4385435e-12  3.6890361e-11  12.975474      19.463211      21.49851       5429.3279    
       159   0             -1758.9481     -79.749304     -5547.3486     -5547.3486      10855.449      1.7495199e-11  1.2908443e-11 -3.0796792e-11  12.974789      19.462183      21.500626      5429.289     
       160   0             -1758.9537     -77.730208     -5514.4264     -5514.4264      10795.662     -1.5005353e-11 -4.4557379e-12  1.5529557e-11  12.974104      19.461156      21.502742      5429.2502    
       161   0             -1758.9592     -75.717635     -5481.4982     -5481.4982      10735.843      7.0112847e-12  4.7178738e-12  2.8372769e-11  12.973419      19.460129      21.504859      5429.2115    
       162   0             -1758.9648     -73.711941     -5448.5642     -5448.5642      10675.993      2.2934272e-12  2.8831656e-12 -1.0222133e-11  12.972735      19.459102      21.506975      5429.1728    
       163   0             -1758.9702     -71.713478     -5415.6249     -5415.6249      10616.109     -8.7150853e-12 -4.586887e-13   5.1111027e-12  12.97205       19.458076      21.509092      5429.1343    
       164   0             -1758.9757     -69.722593     -5382.6806     -5382.6806      10556.193     -1.3957341e-11  4.2592824e-12 -9.9601681e-12  12.971366      19.457049      21.511208      5429.0958    
       165   0             -1758.9811     -67.739629     -5349.7317     -5349.7317      10496.244     -2.3262399e-12 -3.1715496e-11  4.1348096e-11  12.970682      19.456023      21.513325      5429.0574    
       166   0             -1758.9865     -65.76492      -5316.7784     -5316.7784      10436.262     -1.2352094e-11 -5.8975513e-12  4.5935372e-11  12.969999      19.454998      21.515441      5429.0191    
       167   0             -1758.9919     -63.798797     -5283.8212     -5283.8212      10376.246     -5.8975928e-12 -3.1584886e-11  2.1231334e-11  12.969315      19.453973      21.517557      5428.9808    
       168   0             -1758.9973     -61.841587     -5250.8603     -5250.8603      10316.196     -2.2869715e-11  1.4481969e-11 -1.6447847e-11  12.968632      19.452948      21.519674      5428.9427    
       169   0             -1759.0026     -59.893597     -5217.896      -5217.896       10256.111     -1.4908013e-11 -6.5529729e-13  1.4351011e-11  12.967949      19.451923      21.52179       5428.9046    
       170   0             -1759.0078     -57.955109     -5184.9287     -5184.9287      10195.992      2.2935565e-13 -1.1795434e-12 -2.3721928e-11  12.967266      19.450899      21.523907      5428.8667    
       171   0             -1759.0131     -56.026437     -5151.9585     -5151.9585      10135.838     -4.2660449e-11  2.948879e-12  -5.701166e-12   12.966583      19.449875      21.526023      5428.8288    
       172   0             -1759.0183     -54.107886     -5118.9859     -5118.9859      10075.648      3.8991004e-12  1.1730067e-11 -1.4744497e-11  12.965901      19.448851      21.528139      5428.7911    
       173   0             -1759.0234     -52.199759     -5086.0112     -5086.0112      10015.423      8.1914443e-13  1.559651e-11  -2.2280728e-11  12.965218      19.447827      21.530256      5428.7534    
       174   0             -1759.0286     -50.302355     -5053.0345     -5053.0345      9955.162      -4.9149006e-13 -2.7916635e-11 -2.3591523e-12  12.964536      19.446804      21.532372      5428.7158    
       175   0             -1759.0337     -48.415965     -5020.0563     -5020.0563      9894.8647      2.7523633e-12  4.128545e-12  -4.9149345e-12  12.963854      19.445782      21.534489      5428.6784    
       176   0             -1759.0388     -46.540878     -4987.0768     -4987.0768      9834.531       1.5301935e-11  5.5702974e-12  2.7523823e-12  12.963173      19.444759      21.536605      5428.641     
       177   0             -1759.0438     -44.677378     -4954.0963     -4954.0963      9774.1605      8.2899702e-12 -1.9660008e-13  8.3882702e-12  12.962491      19.443737      21.538721      5428.6037    
       178   0             -1759.0488     -42.825743     -4921.1151     -4921.1151      9713.753       1.5236611e-11  4.0630962e-12 -1.9463541e-11  12.96181       19.442715      21.540838      5428.5666    
       179   0             -1759.0538     -40.986249     -4888.1334     -4888.1334      9653.3082     -1.2058303e-11 -1.4679674e-11  2.9687018e-11  12.961129      19.441694      21.542954      5428.5295    
       180   0             -1759.0587     -39.159277     -4855.1516     -4855.1516      9592.8254     -3.5716413e-12  1.2058385e-11 -7.0122132e-12  12.960449      19.440673      21.545071      5428.4926    
       181   0             -1759.0637     -37.345151     -4822.1699     -4822.1699      9532.3043     -7.1105635e-12  7.2088662e-13  2.418247e-11   12.959768      19.439652      21.547187      5428.4557    
       182   0             -1759.0685     -35.544175     -4789.1885     -4789.1885      9471.7445     -2.6410843e-11 -1.887425e-11  -6.9467727e-12  12.959088      19.438632      21.549304      5428.419     
       183   0             -1759.0734     -33.75662      -4756.2078     -4756.2078      9411.1457      3.7224467e-11  2.9753359e-11 -3.7355539e-12  12.958408      19.437612      21.55142       5428.3824    
       184   0             -1759.0782     -31.98273      -4723.2279     -4723.2279      9350.5076     -2.5264311e-11 -2.0119698e-11  5.7016732e-12  12.957728      19.436592      21.553536      5428.3459    
       185   0             -1759.083      -30.222744     -4690.2491     -4690.2491      9289.83       -4.8497316e-12 -5.1774162e-12  1.0879128e-11  12.957048      19.435573      21.555653      5428.3095    
       186   0             -1759.0877     -28.476881     -4657.2717     -4657.2717      9229.1127      2.0316579e-11 -1.0092752e-11  2.7132463e-11  12.956369      19.434554      21.557769      5428.2732    
       187   0             -1759.0925     -26.745373     -4624.2958     -4624.2958      9168.3555      4.3910318e-12  1.9005958e-12  1.4877078e-11  12.95569       19.433535      21.559886      5428.237     
       188   0             -1759.0971     -25.028447     -4591.3217     -4591.3217      9107.558      -2.6903441e-11 -1.5729174e-11 -4.4565992e-12  12.955011      19.432517      21.562002      5428.201     
       189   0             -1759.1018     -23.326298     -4558.3495     -4558.3495      9046.7202     -2.3856071e-11 -5.2430925e-13  5.2430925e-12  12.954332      19.431499      21.564118      5428.1651    
       190   0             -1759.1064     -21.63914      -4525.3796     -4525.3796      8985.8418     -8.6839293e-12 -5.5052835e-12  4.3517955e-11  12.953654      19.430481      21.566235      5428.1293    
       191   0             -1759.111      -19.967195     -4492.4121     -4492.4121      8924.9226     -6.9144194e-12 -7.2093472e-12  2.3594227e-12  12.952976      19.429464      21.568351      5428.0936    
       192   0             -1759.1156     -18.310679     -4459.4472     -4459.4472      8863.9623     -1.4091089e-11  1.1797191e-12 -6.0296753e-12  12.952298      19.428447      21.570468      5428.058     
       193   0             -1759.1201     -16.669807     -4426.4851     -4426.4851      8802.9609     -1.5729691e-12  1.1076324e-11 -1.4091181e-11  12.95162       19.427431      21.572584      5428.0226    
       194   0             -1759.1246     -15.044786     -4393.5262     -4393.5262      8741.918       3.8669074e-12 -3.9914349e-11 -2.6806189e-11  12.950943      19.426415      21.5747        5427.9873    
       195   0             -1759.129      -13.435824     -4360.5705     -4360.5705      8680.8335      2.9165847e-12 -1.4484612e-11  1.3960282e-11  12.950266      19.425399      21.576817      5427.9521    
       196   0             -1759.1335     -11.843122     -4327.6183     -4327.6183      8619.7072      3.2770826e-14  1.5009038e-11 -5.2236697e-11  12.949589      19.424383      21.578933      5427.917     
       197   0             -1759.1378     -10.266888     -4294.6698     -4294.6698      8558.5389      2.7396587e-11  3.1001401e-11 -1.1928657e-11  12.948912      19.423368      21.58105       5427.8821    
       198   0             -1759.1422     -8.7073287     -4261.7251     -4261.7251      8497.3283      1.2453074e-11  1.4484891e-11 -2.1039141e-11  12.948236      19.422354      21.583166      5427.8473    
       199   0             -1759.1465     -7.1646093     -4228.7846     -4228.7846      8436.0753     -1.0060837e-11  7.8651496e-12 -9.1760078e-12  12.94756       19.42134       21.585283      5427.8126    
       200   0             -1759.1508     -5.6390159     -4195.8482     -4195.8482      8374.7794     -8.4550896e-12  1.7696699e-11 -4.0243605e-11  12.946884      19.420326      21.587399      5427.778     
       201   0             -1759.1551     -4.1307849     -4162.9163     -4162.9163      8313.4403     -2.9494686e-13 -7.4064433e-12  1.5075062e-12  12.946208      19.419312      21.589515      5427.7436    
       202   0             -1759.1593     -2.640094      -4129.989      -4129.989       8252.0576      1.7303658e-11  1.8548997e-11  2.0449778e-11  12.945533      19.418299      21.591632      5427.7093    
       203   0             -1759.1635     -1.1671175     -4097.0664     -4097.0664      8190.6314     -1.1929112e-11 -1.8155846e-11 -5.5712886e-12  12.944858      19.417287      21.593748      5427.6752    
       204   0             -1759.1677      0.28797268    -4064.1488     -4064.1488      8129.1615      3.3427941e-12  1.4878711e-11  6.1612284e-12  12.944183      19.416274      21.595865      5427.6412    
       205   0             -1759.1718      1.7250076     -4031.2363     -4031.2363      8067.6476     -3.670542e-12  -1.507544e-12   2.2023252e-11  12.943508      19.415262      21.597981      5427.6073    
       206   0             -1759.1759      3.1438209     -3998.3291     -3998.3291      8006.0896      1.0749511e-11  2.9888885e-11  1.5206625e-11  12.942834      19.414251      21.600097      5427.5736    
       207   0             -1759.18        4.5442491     -3965.4273     -3965.4273      7944.4874      1.5403358e-11  7.341175e-12   1.9336131e-11  12.94216       19.41324       21.602214      5427.54      
       208   0             -1759.184       5.9261148     -3932.5313     -3932.5313      7882.8409     -9.7008982e-12  2.2941313e-12  1.6321106e-11  12.941486      19.412229      21.60433       5427.5065    
       209   0             -1759.188       7.2892065     -3899.641      -3899.641       7821.1496     -2.8971779e-11 -3.4674369e-11  4.6541451e-11  12.940812      19.411218      21.606447      5427.4732    
       210   0             -1759.192       8.6333684     -3866.7567     -3866.7567      7759.4135     -2.749714e-11  -8.3900688e-12  1.8986218e-11  12.940139      19.410208      21.608563      5427.44      
       211   0             -1759.1959      9.9584504     -3833.8786     -3833.8786      7697.6325      4.5883468e-12 -4.3917034e-12  2.6219125e-11  12.939466      19.409199      21.610679      5427.4069    
       212   0             -1759.1998      11.264305     -3801.0068     -3801.0068      7635.8064     -1.133984e-11  -1.4748347e-11  7.7541483e-12  12.938793      19.40819       21.612796      5427.374     
       213   0             -1759.2037      12.550787     -3768.1414     -3768.1414      7573.9351     -1.4715662e-11  2.0516713e-11  1.0098582e-12  12.938121      19.407181      21.614912      5427.3413    
       214   0             -1759.2075      13.817753     -3735.2826     -3735.2826      7512.0185     -1.2716506e-11 -3.0152539e-12 -5.6955935e-12  12.937448      19.406173      21.617029      5427.3086    
       215   0             -1759.2113      15.065062     -3702.4306     -3702.4306      7450.0564      2.6645827e-11  8.8491678e-12  1.2604943e-11  12.936776      19.405165      21.619145      5427.2762    
       216   0             -1759.2151      16.292577     -3669.5855     -3669.5855      7388.0487      1.7075718e-11  4.9817834e-12  2.840354e-11   12.936105      19.404157      21.621262      5427.2438    
       217   0             -1759.2188      17.50016      -3636.7474     -3636.7474      7325.9953     -2.0648304e-12  2.1631556e-11  2.0627819e-12  12.935433      19.40315       21.623378      5427.2117    
       218   0             -1759.2225      18.68769      -3603.9166     -3603.9166      7263.8962     -2.9169998e-12 -8.9804263e-12 -2.6654495e-11  12.934762      19.402143      21.625494      5427.1796    
       219   0             -1759.2262      19.855038     -3571.093      -3571.093       7201.7511     -4.2935867e-12 -3.8675056e-12  8.9825275e-12  12.934091      19.401137      21.627611      5427.1477    
       220   0             -1759.2299      21.001956     -3538.2769     -3538.2769      7139.5597      4.6869198e-12 -6.4895812e-12 -1.7798209e-11  12.933421      19.400131      21.629727      5427.116     
       221   0             -1759.2335      22.128274     -3505.4684     -3505.4684      7077.3216     -2.1468184e-11  1.9665512e-12 -2.5587699e-11  12.93275       19.399125      21.631844      5427.0844    
       222   0             -1759.2371      23.233873     -3472.6676     -3472.6676      7015.0369      1.8256256e-11  2.1566637e-11 -4.4667602e-12  12.93208       19.39812       21.63396       5427.053     
       223   0             -1759.2406      24.318636     -3439.8747     -3439.8747      6952.7053     -2.1730642e-11 -4.1953577e-12 -3.4930245e-11  12.93141       19.397116      21.636076      5427.0217    
       224   0             -1759.2441      25.382447     -3407.0898     -3407.0898      6890.3269     -3.277642e-13   1.1602853e-11  2.0202566e-11  12.930741      19.396111      21.638193      5426.9905    
       225   0             -1759.2476      26.425193     -3374.3129     -3374.3129      6827.9015      7.8991624e-12  5.4409169e-12  4.0981002e-12  12.930072      19.395108      21.640309      5426.9596    
       226   0             -1759.251       27.446762     -3341.5444     -3341.5444      6765.429      -1.9534969e-11  3.4743401e-12  1.8220825e-11  12.929403      19.394104      21.642426      5426.9287    
       227   0             -1759.2545      28.447043     -3308.7841     -3308.7841      6702.9094     -5.7687483e-12  1.2127482e-11  1.810416e-11   12.928734      19.393101      21.644542      5426.8981    
       228   0             -1759.2578      29.425927     -3276.0324     -3276.0324      6640.3426     -8.0631822e-12 -2.9368338e-11 -2.8394242e-11  12.928066      19.392098      21.646658      5426.8675    
       229   0             -1759.2612      30.383338     -3243.2893     -3243.2893      6577.7286     -1.0718192e-11 -1.173429e-11  -1.0186585e-11  12.927398      19.391096      21.648775      5426.8372    
       230   0             -1759.2645      31.319183     -3210.5548     -3210.5548      6515.0672      2.7533125e-12  8.6532678e-12 -1.0642454e-11  12.92673       19.390095      21.650891      5426.8069    
       231   0             -1759.2678      32.233355     -3177.8292     -3177.8292      6452.3584      2.8156054e-11  2.8057721e-11 -2.5244983e-11  12.926062      19.389093      21.653008      5426.7769    
       232   0             -1759.271       33.125748     -3145.1124     -3145.1124      6389.6021      3.310567e-12   5.9655763e-12 -8.1299414e-12  12.925395      19.388092      21.655124      5426.747     
       233   0             -1759.2743      33.996258     -3112.4048     -3112.4048      6326.7983     -7.4406222e-12 -1.3111228e-13  2.7018349e-11  12.924728      19.387092      21.657241      5426.7172    
       234   0             -1759.2775      34.844782     -3079.7063     -3079.7063      6263.9469      2.2453101e-11 -1.31113e-12   -3.7075274e-11  12.924061      19.386092      21.659357      5426.6877    
       235   0             -1759.2806      35.67117      -3047.0171     -3047.0171      6201.0477      5.4084405e-12  1.042354e-11  -3.283579e-11   12.923395      19.385092      21.661473      5426.6582    
       236   0             -1759.2837      36.475301     -3014.3374     -3014.3374      6138.1006      1.573373e-12  -5.7690344e-12  8.1598238e-12  12.922729      19.384093      21.66359       5426.629     
       237   0             -1759.2868      37.257077     -2981.6672     -2981.6672      6075.1056      1.1210343e-11  1.5274912e-11 -6.653068e-12   12.922063      19.383094      21.665706      5426.5999    
       238   0             -1759.2899      38.016392     -2949.0067     -2949.0067      6012.0627      6.8835805e-12 -6.555791e-13  -1.7465037e-12  12.921397      19.382096      21.667823      5426.5709    
       239   0             -1759.2929      38.753147     -2916.3561     -2916.3561      5948.9716      6.3263719e-12 -5.3102189e-12 -5.4997232e-12  12.920732      19.381098      21.669939      5426.5421    
       240   0             -1759.2959      39.467136     -2883.7154     -2883.7154      5885.8322      1.9962595e-11  2.3535539e-11  4.4520438e-11  12.920067      19.3801        21.672055      5426.5135    
       241   0             -1759.2989      40.158235     -2851.0847     -2851.0847      5822.6441     -1.1735052e-11 -9.96496e-12    2.8241565e-12  12.919402      19.379103      21.674172      5426.4851    
       242   0             -1759.3018      40.826368     -2818.4642     -2818.4642      5759.4074      1.3242976e-11  7.5393182e-12  1.9477255e-11  12.918738      19.378107      21.676288      5426.4568    
       243   0             -1759.3047      41.471456     -2785.8539     -2785.8539      5696.1222      1.2521889e-11 -2.1634677e-12  1.9796959e-11  12.918074      19.377111      21.678405      5426.4287    
       244   0             -1759.3075      42.093425     -2753.254      -2753.254       5632.7882     -1.2718634e-11  3.1468784e-12  1.2078399e-11  12.91741       19.376115      21.680521      5426.4007    
       245   0             -1759.3104      42.692197     -2720.6645     -2720.6645      5569.4057      9.8668255e-12  1.6390076e-11 -1.4238878e-13  12.916746      19.37512       21.682637      5426.3729    
       246   0             -1759.3132      43.267698     -2688.0857     -2688.0857      5505.9745      1.6947424e-11  1.4685583e-11  1.5807284e-11  12.916083      19.374125      21.684754      5426.3453    
       247   0             -1759.3159      43.819855     -2655.5175     -2655.5175      5442.4946      1.9078242e-11 -8.5884868e-12  1.6441462e-12  12.91542       19.37313       21.68687       5426.3178    
       248   0             -1759.3187      44.348592     -2622.9602     -2622.9602      5378.9661     -1.058815e-11  -1.8619409e-11  6.3717386e-12  12.914758      19.372136      21.688987      5426.2905    
       249   0             -1759.3214      44.853837     -2590.4137     -2590.4137      5315.389       1.8685063e-12 -1.8095009e-11  4.4971178e-12  12.914095      19.371143      21.691103      5426.2634    
       250   0             -1759.324       45.335519     -2557.8783     -2557.8783      5251.7632     -4.9499273e-12 -6.3595093e-12 -2.122056e-11   12.913433      19.37015       21.69322       5426.2364    
       251   0             -1759.3267      45.79358      -2525.354      -2525.354       5188.0888     -3.6714874e-12 -1.8685248e-11  2.14194e-11    12.912771      19.369157      21.695336      5426.2096    
       252   0             -1759.3293      46.227952     -2492.8409     -2492.8409      5124.3657     -1.0490015e-11 -6.0973215e-12  1.026362e-11   12.91211       19.368165      21.697452      5426.183     
       253   0             -1759.3319      46.638561     -2460.3392     -2460.3392      5060.5941      1.1932451e-11  1.0031126e-11 -5.029905e-12   12.911449      19.367173      21.699569      5426.1566    
       254   0             -1759.3344      47.025337     -2427.849      -2427.849       4996.774       1.540736e-12   2.0980235e-12  2.6805118e-11  12.910788      19.366182      21.701685      5426.1303    
       255   0             -1759.3369      47.388208     -2395.3703     -2395.3703      4932.9053     -7.5398082e-12  8.6543885e-12  3.1275862e-12  12.910127      19.365191      21.703802      5426.1042    
       256   0             -1759.3394      47.727105     -2362.9034     -2362.9034      4868.9881      1.3440592e-12  3.9993956e-12 -2.9852046e-12  12.909467      19.364201      21.705918      5426.0782    
       257   0             -1759.3418      48.041957     -2330.4483     -2330.4483      4805.0225     -1.6063223e-11  4.6550563e-12 -1.2720474e-11  12.908807      19.363211      21.708034      5426.0525    
       258   0             -1759.3442      48.332694     -2298.0052     -2298.0052      4741.0085     -7.9005202e-12 -6.7531417e-12 -2.5977877e-11  12.908148      19.362221      21.710151      5426.0269    
       259   0             -1759.3466      48.599258     -2265.5742     -2265.5742      4676.9461     -2.3931148e-12 -7.6055156e-12 -2.3961882e-12  12.907488      19.361232      21.712267      5426.0015    
       260   0             -1759.349       48.841489     -2233.1553     -2233.1553      4612.835      -1.7046925e-11 -2.6226038e-13 -3.87418e-11    12.906829      19.360244      21.714384      5425.9762    
       261   0             -1759.3513      49.059269     -2200.7487     -2200.7487      4548.6752     -6.5893225e-12  2.8848775e-11 -2.2025876e-11  12.90617       19.359256      21.7165        5425.9512    
       262   0             -1759.3536      49.252491     -2168.3545     -2168.3545      4484.4666     -1.7014299e-11  4.5895989e-13 -2.212535e-11   12.905512      19.358268      21.718616      5425.9263    
       263   0             -1759.3558      49.421101     -2135.973      -2135.973       4420.2092      9.0153246e-12 -5.3764118e-12 -6.1765218e-12  12.904854      19.357281      21.720733      5425.9016    
       264   0             -1759.358       49.565045     -2103.6041     -2103.6041      4355.9033     -3.9339776e-12  1.6260441e-11 -5.4163905e-12  12.904196      19.356294      21.722849      5425.8771    
       265   0             -1759.3602      49.684273     -2071.248      -2071.248       4291.5488     -5.3764602e-12 -7.2123246e-12  1.3433979e-11  12.903538      19.355308      21.724966      5425.8527    
       266   0             -1759.3624      49.77873      -2038.9049     -2038.9049      4227.146       6.1960701e-12 -6.2288536e-12  2.3050856e-11  12.902881      19.354322      21.727082      5425.8285    
       267   0             -1759.3645      49.848364     -2006.5749     -2006.5749      4162.6948     -3.2455749e-12  1.1474255e-11  4.0610666e-12  12.902224      19.353337      21.729199      5425.8046    
       268   0             -1759.3666      49.893123     -1974.2581     -1974.2581      4098.1956      8.7204718e-12 -1.5014948e-11  3.3900424e-12  12.901568      19.352352      21.731315      5425.7807    
       269   0             -1759.3687      49.912954     -1941.9547     -1941.9547      4033.6483     -1.6326368e-11 -2.9243213e-11 -4.5942498e-11  12.900911      19.351367      21.733431      5425.7571    
       270   0             -1759.3707      49.907803     -1909.6648     -1909.6648      3969.0531      2.5473178e-11  2.1440745e-11 -6.2105215e-12  12.900256      19.350383      21.735548      5425.7337    
       271   0             -1759.3727      49.877619     -1877.3887     -1877.3887      3904.4102      1.5080711e-11  3.9340984e-12  4.4444043e-11  12.8996        19.3494        21.737664      5425.7104    
       272   0             -1759.3747      49.822347     -1845.1264     -1845.1264      3839.7198      1.5375833e-11  1.435952e-11   4.025194e-11   12.898944      19.348417      21.739781      5425.6873    
       273   0             -1759.3766      49.741937     -1812.8781     -1812.8781      3774.9821      1.4752994e-12 -2.0982036e-12  1.3052302e-11  12.898289      19.347434      21.741897      5425.6644    
       274   0             -1759.3785      49.636335     -1780.6441     -1780.6441      3710.1972      7.8027274e-12 -6.8847594e-12  3.273949e-11   12.897635      19.346452      21.744013      5425.6417    
       275   0             -1759.3804      49.505489     -1748.4244     -1748.4244      3645.3653      5.386527e-11   2.9506234e-11  1.1032565e-11  12.89698       19.34547       21.74613       5425.6192    
       276   0             -1759.3822      49.349347     -1716.2193     -1716.2193      3580.4867      6.1963347e-12  3.0817749e-12  1.9940867e-11  12.896326      19.344489      21.748246      5425.5969    
       277   0             -1759.384       49.167844     -1684.029      -1684.029       3515.5615      9.8354921e-13  1.0687901e-11 -4.8880347e-12  12.895672      19.343509      21.750363      5425.5747    
       278   0             -1759.3858      48.960924     -1651.8537     -1651.8537      3450.5901     -1.9671064e-11 -2.170374e-11   4.5950376e-13  12.895019      19.342528      21.752479      5425.5528    
       279   0             -1759.3875      48.728525     -1619.6936     -1619.6936      3385.5727     -1.7113894e-11 -2.072027e-11  -4.0633204e-12  12.894366      19.341549      21.754595      5425.531     
       280   0             -1759.3892      48.47048      -1587.5488     -1587.5488      3320.5091      1.7638528e-11  2.6228295e-11  1.2510179e-11  12.893713      19.34057       21.756712      5425.5094    
       281   0             -1759.3909      48.186722     -1555.4198     -1555.4198      3255.3997      1.7900882e-11 -6.5570995e-14 -8.0488397e-12  12.893061      19.339591      21.758828      5425.488     
       282   0             -1759.3926      47.877219     -1523.3066     -1523.3066      3190.2448      1.5146959e-11  1.4228962e-11 -2.1821395e-11  12.892408      19.338613      21.760945      5425.4668    
       283   0             -1759.3942      47.541937     -1491.2094     -1491.2094      3125.0447     -2.7802318e-11 -7.6062946e-12 -2.6884317e-11  12.891757      19.337635      21.763061      5425.4458    
       284   0             -1759.3958      47.180849     -1459.1286     -1459.1286      3059.7998     -1.7442087e-11 -1.1606201e-11 -3.0969848e-11  12.891105      19.336658      21.765177      5425.425     
       285   0             -1759.3973      46.793932     -1427.0644     -1427.0644      2994.5107      1.1278385e-11  1.7376582e-11  5.8792475e-11  12.890454      19.335681      21.767294      5425.4044    
       286   0             -1759.3989      46.38115      -1395.0171     -1395.0171      2929.1776      3.5474589e-11  2.5573178e-12  2.7727329e-11  12.889803      19.334704      21.76941       5425.384     
       287   0             -1759.4004      45.942461     -1362.9869     -1362.9869      2863.8012      6.6228222e-12  1.6261979e-11 -5.1556376e-12  12.889152      19.333729      21.771527      5425.3638    
       288   0             -1759.4018      45.477777     -1330.9742     -1330.9742      2798.3817      2.9507732e-13 -3.6720734e-12  3.5503027e-11  12.888502      19.332753      21.773643      5425.3437    
       289   0             -1759.4033      44.987054     -1298.9793     -1298.9793      2732.9198     -1.3868685e-11  9.180217e-13  -3.2315183e-12  12.887852      19.331778      21.77576       5425.3239    
       290   0             -1759.4047      44.470294     -1267.0026     -1267.0026      2667.4161      4.9507778e-12  8.7212376e-12  5.120346e-12   12.887203      19.330804      21.777876      5425.3043    
       291   0             -1759.406       43.927481     -1235.0443     -1235.0443      2601.8711      9.1474963e-12 -5.4425963e-12 -2.4948136e-11  12.886554      19.32983       21.779992      5425.2849    
       292   0             -1759.4074      43.358582     -1203.105      -1203.105       2536.2857     -5.4098288e-12  5.2458946e-13  2.7481008e-11  12.885905      19.328857      21.782109      5425.2657    
       293   0             -1759.4087      42.763563     -1171.1849     -1171.1849      2470.6606      2.6885304e-12 -1.6065608e-11 -1.8198297e-11  12.885256      19.327884      21.784225      5425.2467    
       294   0             -1759.41        42.142393     -1139.2847     -1139.2847      2404.9966     -1.0950881e-11 -1.7639443e-11  1.9530335e-11  12.884608      19.326912      21.786342      5425.2279    
       295   0             -1759.4112      41.49504      -1107.4047     -1107.4047      2339.2946      6.2951389e-12 -9.7050058e-12  1.345504e-11   12.88396       19.32594       21.788458      5425.2093    
       296   0             -1759.4125      40.821477     -1075.5456     -1075.5456      2273.5556     -9.8689751e-12 -1.8492033e-11  1.397917e-11   12.883313      19.324969      21.790574      5425.191     
       297   0             -1759.4137      40.121674     -1043.7079     -1043.7079      2207.7808     -3.3115276e-12 -1.8098646e-11 -1.3239963e-11  12.882666      19.323998      21.792691      5425.1728    
       298   0             -1759.4148      39.395607     -1011.8922     -1011.8922      2141.9712     -7.0165273e-12 -1.6262605e-11 -1.0259929e-11  12.882019      19.323028      21.794807      5425.1549    
       299   0             -1759.416       38.64324      -980.09922     -980.09922      2076.1282     -9.4100463e-12 -4.7869922e-12 -7.8792744e-12  12.881372      19.322058      21.796924      5425.1372    
       300   0             -1759.4171      37.864435     -948.32969     -948.32969      2010.2527      5.573913e-12   4.0656777e-12  3.7921051e-12  12.880726      19.321089      21.79904       5425.1197    
       301   0             -1759.4181      37.059171     -916.5844      -916.5844       1944.3463      8.8855013e-12  9.6396213e-12  2.1876653e-11  12.88008       19.320121      21.801156      5425.1024    
       302   0             -1759.4192      36.227461     -884.8642      -884.8642       1878.4108     -2.7213982e-12  1.9672758e-13  2.4830197e-11  12.879435      19.319153      21.803273      5425.0854    
       303   0             -1759.4202      35.36932      -853.17003     -853.17003      1812.448       6.1969381e-12  1.6918625e-11  9.6816911e-12  12.87879       19.318185      21.805389      5425.0686    
       304   0             -1759.4212      34.484764     -821.50295     -821.50295      1746.4602      1.2492278e-11  1.9607303e-11  6.4290355e-12  12.878146      19.317218      21.807506      5425.0521    
       305   0             -1759.4222      33.573815     -789.86411     -789.86411      1680.4497     -9.803681e-12   2.446002e-11  -2.3976394e-13  12.877501      19.316252      21.809622      5425.0357    
       306   0             -1759.4231      32.6365       -758.25482     -758.25482      1614.4191      1.1344761e-11  1.5672821e-11 -2.8472564e-11  12.876857      19.315286      21.811739      5425.0197    
       307   0             -1759.424       31.672853     -726.67652     -726.67652      1548.3716      2.9509581e-12 -1.9673054e-12 -1.8207821e-12  12.876214      19.314321      21.813855      5425.0039    
       308   0             -1759.4249      30.682914     -695.13086     -695.13086      1482.3105      2.0853497e-11  1.6525413e-11  1.3158442e-11  12.875571      19.313356      21.815971      5424.9883    
       309   0             -1759.4258      29.666735     -663.61968     -663.61968      1416.2396     -2.2296255e-12 -9.5086969e-12  1.9591195e-11  12.874928      19.312392      21.818088      5424.973     
       310   0             -1759.4266      28.624381     -632.14508     -632.14508      1350.1633      7.8364995e-12  7.016782e-12   6.8943367e-12  12.874286      19.311429      21.820204      5424.958     
       311   0             -1759.4275      27.555931     -600.70946     -600.70946      1284.0867      1.409918e-11   3.278879e-12  -1.8113245e-11  12.873644      19.310466      21.822321      5424.9432    
       312   0             -1759.4283      26.461483     -569.31558     -569.31558      1218.0156     -1.1148218e-12 -1.547635e-11   2.0641623e-12  12.873003      19.309504      21.824437      5424.9288    
       313   0             -1759.429       25.34116      -537.96664     -537.96664      1151.9568     -2.1050514e-11 -2.623117e-12   4.1173715e-11  12.872362      19.308543      21.826553      5424.9146    
       314   0             -1759.4298      24.195089     -506.66638     -506.66638      1085.918      -3.2789046e-13 -3.8691075e-12 -2.1457357e-11  12.871721      19.307582      21.82867       5424.9008    
       315   0             -1759.4305      23.023418     -475.41922     -475.41922      1019.9087     -2.9510215e-12 -2.0591572e-11 -1.5378613e-11  12.871082      19.306622      21.830786      5424.8873    
       316   0             -1759.4312      21.826406     -444.23035     -444.23035      953.93992      1.7345491e-11 -2.6231366e-12 -2.5661141e-11  12.870442      19.305663      21.832903      5424.8741    
       317   0             -1759.432       20.604378     -413.10603     -413.10603      888.02519     -1.6394642e-12 -1.7050428e-11  3.6734246e-13  12.869803      19.304705      21.835019      5424.8614    
       318   0             -1759.4326      19.357707     -382.05392     -382.05392      822.18097      6.295557e-12   7.5415527e-12  1.3930354e-12  12.869165      19.303747      21.837135      5424.849     
       319   0             -1759.4333      18.086859     -351.08348     -351.08348      756.42755     -8.5252522e-13 -8.2629368e-12 -2.7041803e-11  12.868527      19.302791      21.839252      5424.8371    
       320   0             -1759.434       16.792339     -320.20656     -320.20656      690.79014      1.705054e-12   8.4596912e-12  1.68661e-12    12.86789       19.301835      21.841368      5424.8256    
       321   0             -1759.4347      15.475003     -289.43822     -289.43822      625.30146     -1.514878e-11  -2.6362812e-11  2.4645202e-11  12.867254      19.30088       21.843485      5424.8147    
       322   0             -1759.4354      14.135944     -258.79824     -258.79824      560.0043       5.9677125e-12  9.7713095e-12 -1.0277243e-11  12.866618      19.299927      21.845601      5424.8044    
       323   0             -1759.4361      12.776588     -228.31315     -228.31315      494.95607     -3.672445e-12  -1.468978e-11   7.1233034e-12  12.865984      19.298975      21.847718      5424.7948    
       324   0             -1759.4369      11.39891      -198.0197      -198.0197       430.23613     -5.1151995e-12  0             -3.7522734e-11  12.86535       19.298025      21.849834      5424.786     
       325   0             -1759.4377      10.005748     -167.97062     -167.97062      365.95848     -7.9351285e-12  3.7380357e-12  3.2497753e-12  12.864718      19.297077      21.85195       5424.7782    
       326   0             -1759.4385      8.6013819     -138.24535     -138.24535      302.29485      0              1.9477157e-11  9.3502238e-12  12.864087      19.296131      21.854067      5424.7718    
       327   0             -1759.4395      7.1926681     -108.97126     -108.97126      239.52053     -2.5379347e-11 -1.4624275e-11 -3.6746923e-11  12.863459      19.295188      21.856183      5424.7672    
       328   0             -1759.4407      5.79153       -80.370344     -80.370344      178.11528      1.1607613e-11  8.5253653e-13  1.4706255e-11  12.862834      19.29425       21.8583        5424.7651    
       329   0             -1759.4423      4.4212935     -52.87849      -52.87849       119.02086     -3.4757245e-12 -1.2263405e-11 -8.4390325e-12  12.862213      19.29332       21.860416      5424.7672    
       330   0             -1759.4446      3.1366336     -27.522423     -27.522423      64.454747     -1.2525701e-11 -1.114853e-12   1.2046919e-11  12.861603      19.292404      21.862532      5424.7772    
       331   0             -1759.4487      2.1119667     -7.5952994     -7.5952994      21.526499     -2.1509986e-11 -1.7509653e-11 -3.5824445e-11  12.861016      19.291524      21.864649      5424.8071    
       332   0             -1759.461       2.3030756     -11.220194     -11.220194      29.349615     -5.1806482e-12 -6.0987378e-12 -3.3934475e-11  12.860531      19.290796      21.866765      5424.9229    
       333   0             -1759.47        1.8436258     -5.3800571     -5.3800571      16.290992      2.0656705e-11  8.2626819e-12  3.009977e-11   12.860005      19.290007      21.868882      5425.0044    
       334   0             -1759.4859      5.6080649     -16.591542     -16.591542      50.007279     -4.7869843e-12  4.8525594e-12 -3.7515633e-11  12.859551      19.289326      21.870998      5425.1462    
       335   0             -1759.4911     -16.76512      -22.967128     -22.967128     -4.3611062     -1.9803178e-11  4.9835812e-12 -2.7393047e-11  12.859094      19.288641      21.873114      5425.286     
       336   0             -1759.5015      271.42143      250.57891      250.57891      313.10647      1.0362893e-11 -2.374283e-11   2.5996518e-11  12.857786      19.286679      21.872732      5424.0873    
       337   0             -1759.5027     -42.31649      -59.023051     -59.023051     -8.9033693      2.1638306e-11 -2.8195369e-12  3.3881828e-11  12.85886       19.28829       21.874849      5425.5186    
       338   0             -1759.5079      199.74619      190.22982      190.22982      218.77893     -3.2135845e-12  9.8375035e-13 -4.7546653e-12  12.857552      19.286328      21.875054      5424.4654    
       339   0             -1759.5093     -123.75883     -130.95375     -130.95375     -109.36899     -1.9013985e-12 -4.1961898e-12 -4.9102386e-12  12.858684      19.288026      21.87717       5425.9456    
       340   0             -1759.5119      206.97192      195.42247      195.42247      230.07082      4.7875787e-12  4.3940791e-12 -1.3988194e-11  12.857376      19.286063      21.875682      5424.4725    
       341   0             -1759.5135     -110.36892     -119.661       -119.661       -91.784762      2.3538084e-11 -3.868376e-12  -2.6741071e-12  12.858477      19.287715      21.877798      5425.9266    
       342   0             -1759.5163      212.04734      199.72601      199.72601      236.69        -5.4433921e-12 -4.1973144e-12 -6.6223497e-13  12.857168      19.285752      21.876465      5424.4918    
       343   0             -1759.5179     -103.04399     -112.69618     -112.69618     -83.739596     -1.1473979e-11  1.5866874e-11 -1.4384733e-12  12.858256      19.287384      21.878581      5425.9347    
       344   0             -1759.5208      215.84535      203.51958      203.51958      240.49687     -6.6894387e-12  6.5582732e-13 -3.9784765e-11  12.856948      19.285422      21.877316      5424.517     
       345   0             -1759.5223     -100.09312     -109.69762     -109.69762     -80.884109      2.6160535e-11  4.6551327e-12 -8.7596198e-12  12.85804       19.28706       21.879433      5425.9634    
       346   0             -1759.5252      217.88213      205.58845      205.58845      242.46948     -1.6592328e-11  3.2791163e-12  5.0775066e-12  12.856732      19.285097      21.878188      5424.5507    
       347   0             -1759.5267     -98.727645     -108.29955     -108.29955     -79.583837     -1.5211035e-11 -6.2286567e-12 -9.7207511e-12  12.857827      19.286741      21.880305      5426         
       348   0             -1759.5297      218.82542      206.55069      206.55069      243.37488      2.1117357e-11  1.8362919e-12  1.7594382e-12  12.856519      19.284778      21.87907       5424.5896    
       349   0             -1759.5312     -98.093431     -107.64105     -107.64105     -78.998183     -2.0915019e-11 -1.7046724e-12 -1.303411e-11   12.857616      19.286424      21.881186      5426.0402    
       350   0             -1759.5342      219.25242      206.99927      206.99927      243.75873      2.1051615e-11  9.8372034e-13 -9.0430541e-12  12.856308      19.284461      21.879955      5424.6309    
       351   0             -1759.5357     -97.823967     -107.34388     -107.34388     -78.78414       5.2451052e-13  4.7861585e-12 -3.5002369e-12  12.857405      19.286108      21.882072      5426.0822    
       352   0             -1759.5387      219.45144      207.22241      207.22241      243.9095      -9.1813181e-13 -1.941193e-11  -1.7403901e-11  12.856097      19.284146      21.880842      5424.6732    
[...]
      1003   0             -1760.599       556.12709     -31.076979     -31.096605      1730.5549     -0.47385426     0.0019269059  -0.0066831813   12.783783      19.175675      22.207398      5443.8696    
      1004   0             -1760.599       556.1053      -31.076474     -31.097932      1730.4903     -0.47641145     0.00080316806 -0.0043059748   12.783783      19.175675      22.207398      5443.8696    
      1005   0             -1760.599       556.10181     -31.075893     -31.098644      1730.48       -0.47839956     0.00055331851 -0.0018835432   12.783783      19.175675      22.207398      5443.8696    
      1006   0             -1760.599       556.09983     -31.075718     -31.098893      1730.4741     -0.47929125    -0.00076722711  0.0029330971   12.783783      19.175675      22.207398      5443.8696    
      1007   0             -1760.599       556.10172     -31.076117     -31.098423      1730.4797     -0.47791675    -0.00047924015  0.0025378114   12.783783      19.175675      22.207398      5443.8696    
      1008   0             -1760.599       556.10486     -31.076353     -31.09807       1730.489      -0.47674465    -0.00011885345  0.00028630416  12.783783      19.175675      22.207398      5443.8696    
      1009   0             -1760.599       556.10511     -31.076147     -31.098266      1730.4898     -0.47733722     0.0002561583  -0.0011601187   12.783783      19.175675      22.207398      5443.8696    
      1010   0             -1760.599       556.1034      -31.076002     -31.098475      1730.4847     -0.47807845     0.00020807345 -0.00092420323  12.783783      19.175675      22.207398      5443.8696    
      1011   0             -1760.599       556.10203     -31.07609      -31.098439      1730.4806     -0.47798359    -7.5031688e-06 -5.8286745e-05  12.783783      19.175675      22.207398      5443.8696    
      1012   0             -1760.599       556.10233     -31.076152     -31.098365      1730.4815     -0.47767123    -5.9683847e-05  0.00033966374  12.783783      19.175675      22.207398      5443.8696    
      1013   0             -1760.599       556.10333     -31.076097     -31.098383      1730.4845     -0.47769882    -7.7034097e-05  0.00029322752  12.783783      19.175675      22.207398      5443.8696    
      1014   0             -1760.599       556.10388     -31.076055     -31.098404      1730.4861     -0.47783795     1.0546499e-05  7.1603754e-07  12.783783      19.175675      22.207398      5443.8696    
      1015   0             -1760.599       556.10337     -31.076097     -31.098381      1730.4846     -0.47779407     1.4588527e-05 -0.00010596284  12.783783      19.175675      22.207398      5443.8696    
      1016   0             -1760.599       556.10287     -31.07612      -31.098378      1730.4831     -0.47772977     2.9063347e-05 -0.00010876234  12.783783      19.175675      22.207398      5443.8696    
      1017   0             -1760.599       556.10288     -31.076104     -31.098393      1730.4831     -0.47774923     4.9912652e-06 -3.5039882e-05  12.783783      19.175675      22.207398      5443.8696    
      1018   0             -1760.599       556.10314     -31.076093     -31.098394      1730.4839     -0.47778261    -2.1414866e-06  1.4392575e-05  12.783783      19.175675      22.207398      5443.8696    
      1019   0             -1760.599       556.10326     -31.076097     -31.098385      1730.4843     -0.47777549    -6.6047045e-06  3.1097403e-05  12.783783      19.175675      22.207398      5443.8696    
      1020   0             -1760.599       556.10319     -31.076101     -31.098384      1730.4841     -0.47775913    -4.9130454e-06  2.0311886e-05  12.783783      19.175675      22.207398      5443.8696    
      1021   0             -1760.599       556.1031      -31.0761       -31.098388      1730.4838     -0.47776118     2.6374876e-07  1.6578378e-06  12.783783      19.175675      22.207398      5443.8696    
      1022   0             -1760.599       556.10309     -31.076099     -31.09839       1730.4837     -0.47777018     1.155729e-06  -8.2941363e-06  12.783783      19.175675      22.207398      5443.8696    
      1023   0             -1760.599       556.10313     -31.0761       -31.098388      1730.4839     -0.47776915     2.6493616e-06 -9.9842853e-06  12.783783      19.175675      22.207398      5443.8696    
      1024   0             -1760.599       556.10315     -31.0761       -31.098387      1730.4839     -0.47776479     5.4692053e-07 -4.0443471e-06  12.783783      19.175675      22.207398      5443.8696    
      1025   0             -1760.599       556.10314     -31.076099     -31.098388      1730.4839     -0.4777645     -6.7621796e-08  1.2647312e-06  12.783783      19.175675      22.207398      5443.8696    
      1026   0             -1760.599       556.10313     -31.076099     -31.098388      1730.4839     -0.4777666     -8.5362063e-07  3.6423662e-06  12.783783      19.175675      22.207398      5443.8696    
      1027   0             -1760.599       556.10313     -31.0761       -31.098388      1730.4839     -0.47776695    -5.0507586e-07  2.3066137e-06  12.783783      19.175675      22.207398      5443.8696    
      1028   0             -1760.599       556.10313     -31.0761       -31.098388      1730.4839     -0.47776588     2.5312886e-08  1.0832015e-07  12.783783      19.175675      22.207398      5443.8696    
      1029   0             -1760.599       556.10313     -31.076099     -31.098388      1730.4839     -0.47776573     1.1884184e-07 -7.4389868e-07  12.783783      19.175675      22.207398      5443.8696    
      1030   0             -1760.599       556.10313     -31.076099     -31.098388      1730.4839     -0.47776618     1.8199701e-07 -6.9663164e-07  12.783783      19.175675      22.207398      5443.8696    
      1031   0             -1760.599       556.10313     -31.0761       -31.098388      1730.4839     -0.47776631    -1.2058306e-08 -7.9369283e-08  12.783783      19.175675      22.207398      5443.8696    
      1032   0             -1760.599       556.10313     -31.0761       -31.098388      1730.4839     -0.47776609    -1.6423185e-08  1.6910667e-07  12.783783      19.175675      22.207398      5443.8696    
      1033   0             -1760.599       556.10313     -31.076099     -31.098388      1730.4839     -0.47776599    -6.2478179e-08  2.3682151e-07  12.783783      19.175675      22.207398      5443.8696    
      1034   0             -1760.599       556.10313     -31.0761       -31.098388      1730.4839     -0.47776611    -1.516318e-08   1.0461872e-07  12.783783      19.175675      22.207398      5443.8696    
      1035   0             -1760.599       556.10313     -31.0761       -31.098388      1730.4839     -0.47776615    -4.2216489e-09 -4.5820356e-09  12.783783      19.175675      22.207398      5443.8696    
      1036   0             -1760.599       556.10313     -31.0761       -31.098388      1730.4839     -0.4777661      1.985814e-08  -7.7739693e-08  12.783783      19.175675      22.207398      5443.8696    
      1037   0             -1760.599       556.10313     -31.0761       -31.098388      1730.4839     -0.47776608     9.1456589e-09 -5.2634325e-08  12.783783      19.175675      22.207398      5443.8696    
      1038   0             -1760.599       556.10313     -31.0761       -31.098388      1730.4839     -0.47776611     2.9224827e-09 -7.1295423e-09  12.783783      19.175675      22.207398      5443.8696    
      1039   0             -1760.599       556.10313     -31.0761       -31.098388      1730.4839     -0.47776611    -5.0519318e-09  2.0775991e-08  12.783783      19.175675      22.207398      5443.8696    
      1040   0             -1760.599       556.10313     -31.0761       -31.098388      1730.4839     -0.4777661     -3.3119989e-09  1.6987773e-08  12.783783      19.175675      22.207398      5443.8696    
Loop time of 0.0401338 on 4 procs for 40 steps with 288 atoms

77.9% CPU use with 4 MPI tasks x 1 OpenMP threads

Minimization stats:
  Stopping criterion = force tolerance
  Energy initial, next-to-last, final = 
     -1760.58217177719  -1760.59900422067  -1760.59900422067
  Force two-norm initial, final = 0.40498161 9.7757111e-11
  Force max component initial, final = 0.02077766 1.111905e-11
  Final line search alpha, max atom move = 1 1.111905e-11
  Iterations, force evaluations = 40 80

MPI task timing breakdown:
Section |  min time  |  avg time  |  max time  |%varavg| %total
---------------------------------------------------------------
Pair    | 0.035749   | 0.036124   | 0.036616   |   0.2 | 90.01
Neigh   | 0          | 0          | 0          |   0.0 |  0.00
Comm    | 0.002508   | 0.002974   | 0.003357   |   0.6 |  7.41
Output  | 0.000422   | 0.00045025 | 0.00051    |   0.0 |  1.12
Modify  | 0          | 0          | 0          |   0.0 |  0.00
Other   |            | 0.0005857  |            |       |  1.46

Nlocal:             72 ave          75 max          69 min
Histogram: 1 1 0 0 0 0 0 0 1 1
Nghost:            600 ave         603 max         597 min
Histogram: 1 1 0 0 0 0 0 0 1 1
Neighs:           1416 ave        1482 max        1352 min
Histogram: 1 0 1 0 0 0 0 1 0 1
FullNghs:         2832 ave        2953 max        2711 min
Histogram: 1 1 0 0 0 0 0 0 1 1

Total # of neighbors = 11328
Ave neighs/atom = 39.333333
Neighbor list builds = 0
Dangerous builds = 0

# Obtain new stress tensor

variable tmp equal pe
variable e1 equal ${tmp}
variable e1 equal -1760.59900422067
variable tmp equal press
variable p1 equal ${tmp}
variable p1 equal 556.10313191646
variable tmp equal pxx
variable pxx1 equal ${tmp}
variable pxx1 equal -31.0760995115582
variable tmp equal pyy
variable pyy1 equal ${tmp}
variable pyy1 equal -31.0983878106247
variable tmp equal pzz
variable pzz1 equal ${tmp}
variable pzz1 equal 1730.48388307156
variable tmp equal pxy
variable pxy1 equal ${tmp}
variable pxy1 equal -0.477766101772271
variable tmp equal pxz
variable pxz1 equal ${tmp}
variable pxz1 equal -3.3119989403912e-09
variable tmp equal pyz
variable pyz1 equal ${tmp}
variable pyz1 equal 1.69877731222555e-08

# Compute elastic constant from pressure tensor

variable C1pos equal ${d1}
variable C1pos equal -411.014568175
variable C2pos equal ${d2}
variable C2pos equal -411.05427725651
variable C3pos equal ${d3}
variable C3pos equal -183013.365442661
variable C4pos equal ${d4}
variable C4pos equal -1.69597595907073e-06
variable C5pos equal ${d5}
variable C5pos equal 3.31964484249554e-07
variable C6pos equal ${d6}
variable C6pos equal 47.7766101829517

# Combine positive and negative

variable C1${dir} equal 0.5*(${C1neg}+${C1pos})
variable C16 equal 0.5*(${C1neg}+${C1pos})
variable C16 equal 0.5*(411.01456818636+${C1pos})
variable C16 equal 0.5*(411.01456818636+-411.014568175)
variable C2${dir} equal 0.5*(${C2neg}+${C2pos})
variable C26 equal 0.5*(${C2neg}+${C2pos})
variable C26 equal 0.5*(411.05427725934+${C2pos})
variable C26 equal 0.5*(411.05427725934+-411.05427725651)
variable C3${dir} equal 0.5*(${C3neg}+${C3pos})
variable C36 equal 0.5*(${C3neg}+${C3pos})
variable C36 equal 0.5*(183013.365442699+${C3pos})
variable C36 equal 0.5*(183013.365442699+-183013.365442661)
variable C4${dir} equal 0.5*(${C4neg}+${C4pos})
variable C46 equal 0.5*(${C4neg}+${C4pos})
variable C46 equal 0.5*(1.69991980686557e-06+${C4pos})
variable C46 equal 0.5*(1.69991980686557e-06+-1.69597595907073e-06)
variable C5${dir} equal 0.5*(${C5neg}+${C5pos})
variable C56 equal 0.5*(${C5neg}+${C5pos})
variable C56 equal 0.5*(-3.38226608772193e-07+${C5pos})
variable C56 equal 0.5*(-3.38226608772193e-07+3.31964484249554e-07)
variable C6${dir} equal 0.5*(${C6neg}+${C6pos})
variable C66 equal 0.5*(${C6neg}+${C6pos})
variable C66 equal 0.5*(47.7766111378204+${C6pos})
variable C66 equal 0.5*(47.7766111378204+47.7766101829517)

# Delete dir to make sure it is not reused

variable dir delete

# Output final values

variable C11all equal ${C11}
variable C11all equal 168.53808456835
variable C22all equal ${C22}
variable C22all equal 168.538067749495
variable C33all equal ${C33}
variable C33all equal 152.872703093002

variable C12all equal 0.5*(${C12}+${C21})
variable C12all equal 0.5*(88.13484301067+${C21})
variable C12all equal 0.5*(88.13484301067+88.13484078851)
variable C13all equal 0.5*(${C13}+${C31})
variable C13all equal 0.5*(93.051120989775+${C31})
variable C13all equal 0.5*(93.051120989775+93.2272769885021)
variable C23all equal 0.5*(${C23}+${C32})
variable C23all equal 0.5*(93.051122056945+${C32})
variable C23all equal 0.5*(93.051122056945+93.2272802774969)

variable C44all equal ${C44}
variable C44all equal 54.8280469733307
variable C55all equal ${C55}
variable C55all equal 54.8280563424786
variable C66all equal ${C66}
variable C66all equal 47.7766106603861

variable C14all equal 0.5*(${C14}+${C41})
variable C14all equal 0.5*(-1.00999386631884e-09+${C41})
variable C14all equal 0.5*(-1.00999386631884e-09+2.08634780725996e-09)
variable C15all equal 0.5*(${C15}+${C51})
variable C15all equal 0.5*(4.02999944526528e-09+${C51})
variable C15all equal 0.5*(4.02999944526528e-09+-2.62657320036601e-09)
variable C16all equal 0.5*(${C16}+${C61})
variable C16all equal 0.5*(5.67999336453795e-09+${C61})
variable C16all equal 0.5*(5.67999336453795e-09+6.00191638852998e-10)

variable C24all equal 0.5*(${C24}+${C42})
variable C24all equal 0.5*(1.99975147552323e-10+${C42})
variable C24all equal 0.5*(1.99975147552323e-10+-1.46376823022999e-09)
variable C25all equal 0.5*(${C25}+${C52})
variable C25all equal 0.5*(3.8050131934142e-09+${C52})
variable C25all equal 0.5*(3.8050131934142e-09+3.95740004768751e-09)
variable C26all equal 0.5*(${C26}+${C62})
variable C26all equal 0.5*(1.41500322570209e-09+${C62})
variable C26all equal 0.5*(1.41500322570209e-09+-2.88565381633494e-10)

variable C34all equal 0.5*(${C34}+${C43})
variable C34all equal 0.5*(-3.19996615871787e-08+${C43})
variable C34all equal 0.5*(-3.19996615871787e-08+-9.67925029574981e-10)
variable C35all equal 0.5*(${C35}+${C53})
variable C35all equal 0.5*(1.39989424496889e-08+${C53})
variable C35all equal 0.5*(1.39989424496889e-08+-4.72020578380801e-09)
variable C36all equal 0.5*(${C36}+${C63})
variable C36all equal 0.5*(1.90048012882471e-08+${C63})
variable C36all equal 0.5*(1.90048012882471e-08+-8.21163310204019e-10)

variable C45all equal 0.5*(${C45}+${C54})
variable C45all equal 0.5*(-4.1506792492085e-08+${C54})
variable C45all equal 0.5*(-4.1506792492085e-08+-4.3589810693589e-08)
variable C46all equal 0.5*(${C46}+${C64})
variable C46all equal 0.5*(1.97192389741992e-09+${C64})
variable C46all equal 0.5*(1.97192389741992e-09+-1.8680180483134e-08)
variable C56all equal 0.5*(${C56}+${C65})
variable C56all equal 0.5*(-3.1310622613195e-09+${C65})
variable C56all equal 0.5*(-3.1310622613195e-09+2.56497143244004e-09)

# Average moduli for cubic crystals

variable C11cubic equal (${C11all}+${C22all}+${C33all})/3.0
variable C11cubic equal (168.53808456835+${C22all}+${C33all})/3.0
variable C11cubic equal (168.53808456835+168.538067749495+${C33all})/3.0
variable C11cubic equal (168.53808456835+168.538067749495+152.872703093002)/3.0
variable C12cubic equal (${C12all}+${C13all}+${C23all})/3.0
variable C12cubic equal (88.13484189959+${C13all}+${C23all})/3.0
variable C12cubic equal (88.13484189959+93.1391989891385+${C23all})/3.0
variable C12cubic equal (88.13484189959+93.1391989891385+93.139201167221)/3.0
variable C44cubic equal (${C44all}+${C55all}+${C66all})/3.0
variable C44cubic equal (54.8280469733307+${C55all}+${C66all})/3.0
variable C44cubic equal (54.8280469733307+54.8280563424786+${C66all})/3.0
variable C44cubic equal (54.8280469733307+54.8280563424786+47.7766106603861)/3.0

variable bulkmodulus equal (${C11cubic}+2*${C12cubic})/3.0
variable bulkmodulus equal (163.316285136949+2*${C12cubic})/3.0
variable bulkmodulus equal (163.316285136949+2*91.4710806853165)/3.0
variable shearmodulus1 equal ${C44cubic}
variable shearmodulus1 equal 52.4775713253985
variable shearmodulus2 equal (${C11cubic}-${C12cubic})/2.0
variable shearmodulus2 equal (163.316285136949-${C12cubic})/2.0
variable shearmodulus2 equal (163.316285136949-91.4710806853165)/2.0
variable poissonratio equal 1.0/(1.0+${C11cubic}/${C12cubic})
variable poissonratio equal 1.0/(1.0+163.316285136949/${C12cubic})
variable poissonratio equal 1.0/(1.0+163.316285136949/91.4710806853165)

# For Stillinger-Weber silicon, the analytical results
# are known to be (E. R. Cowley, 1988):
#               C11 = 151.4 GPa
#               C12 = 76.4 GPa
#               C44 = 56.4 GPa

print "========================================="
=========================================
print "Components of the Elastic Constant Tensor"
Components of the Elastic Constant Tensor
print "========================================="
=========================================

print "Elastic Constant C11all = ${C11all} ${cunits}"
Elastic Constant C11all = 168.53808456835 GPa
print "Elastic Constant C22all = ${C22all} ${cunits}"
Elastic Constant C22all = 168.538067749495 GPa
print "Elastic Constant C33all = ${C33all} ${cunits}"
Elastic Constant C33all = 152.872703093002 GPa

print "Elastic Constant C12all = ${C12all} ${cunits}"
Elastic Constant C12all = 88.13484189959 GPa
print "Elastic Constant C13all = ${C13all} ${cunits}"
Elastic Constant C13all = 93.1391989891385 GPa
print "Elastic Constant C23all = ${C23all} ${cunits}"
Elastic Constant C23all = 93.139201167221 GPa

print "Elastic Constant C44all = ${C44all} ${cunits}"
Elastic Constant C44all = 54.8280469733307 GPa
print "Elastic Constant C55all = ${C55all} ${cunits}"
Elastic Constant C55all = 54.8280563424786 GPa
print "Elastic Constant C66all = ${C66all} ${cunits}"
Elastic Constant C66all = 47.7766106603861 GPa

print "Elastic Constant C14all = ${C14all} ${cunits}"
Elastic Constant C14all = 5.3817697047056e-10 GPa
print "Elastic Constant C15all = ${C15all} ${cunits}"
Elastic Constant C15all = 7.01713122449635e-10 GPa
print "Elastic Constant C16all = ${C16all} ${cunits}"
Elastic Constant C16all = 3.14009250169547e-09 GPa

print "Elastic Constant C24all = ${C24all} ${cunits}"
Elastic Constant C24all = -6.31896541338834e-10 GPa
print "Elastic Constant C25all = ${C25all} ${cunits}"
Elastic Constant C25all = 3.88120662055086e-09 GPa
print "Elastic Constant C26all = ${C26all} ${cunits}"
Elastic Constant C26all = 5.63218922034298e-10 GPa

print "Elastic Constant C34all = ${C34all} ${cunits}"
Elastic Constant C34all = -1.64837933083768e-08 GPa
print "Elastic Constant C35all = ${C35all} ${cunits}"
Elastic Constant C35all = 4.63936833294044e-09 GPa
print "Elastic Constant C36all = ${C36all} ${cunits}"
Elastic Constant C36all = 9.09181898902154e-09 GPa

print "Elastic Constant C45all = ${C45all} ${cunits}"
Elastic Constant C45all = -4.2548301592837e-08 GPa
print "Elastic Constant C46all = ${C46all} ${cunits}"
Elastic Constant C46all = -8.35412829285704e-09 GPa
print "Elastic Constant C56all = ${C56all} ${cunits}"
Elastic Constant C56all = -2.8304541443973e-10 GPa

print "========================================="
=========================================
print "Average properties for a cubic crystal"
Average properties for a cubic crystal
print "========================================="
=========================================

print "Bulk Modulus = ${bulkmodulus} ${cunits}"
Bulk Modulus = 115.419482169194 GPa
print "Shear Modulus 1 = ${shearmodulus1} ${cunits}"
Shear Modulus 1 = 52.4775713253985 GPa
print "Shear Modulus 2 = ${shearmodulus2} ${cunits}"
Shear Modulus 2 = 35.9226022258163 GPa
print "Poisson Ratio = ${poissonratio}"
Poisson Ratio = 0.35900948381061
Total wall time: 0:00:01
