Output produced by LAMMPSStructureWriter


20736 atoms
3 atom types
0.00000000 61.74000000 xlo xhi
0.00000000 61.74000000 ylo yhi
0.00000000 61.74000000 zlo zhi
0.00000000 0.00000000 0.00000000 xy xz yz



Masses

1 15.99939999999999962199 #O
2 91.22400000000000375167 #Zr
3 238.02890999999999621650 #U

Atoms

1 0 1 0.0 1.28622942000000040075 1.28622942000000040075 3.85875000000000012434
2 0 1 0.0 1.28622942000000062279 1.28622942000000062279 9.00372941999999909513
3 0 1 0.0 1.28622942000000106688 1.28622942000000106688 14.14877058000000076277
4 0 1 0.0 1.28622942000000128893 1.28622942000000128893 19.29374999999999928946
5 0 1 0.0 1.28622942000000173302 1.28622942000000173302 24.43872942000000136886
6 0 1 0.0 1.28622942000000195506 1.28622942000000195506 29.58377058000000303650
7 0 1 0.0 1.28622942000000239915 1.28622942000000239915 34.72874999999999801048
8 0 1 0.0 1.28622942000000262119 1.28622942000000262119 39.87372942000000364260
9 0 1 0.0 1.28622942000000284324 1.28622942000000284324 45.01877058000000175753
10 0 1 0.0 1.28622942000000328733 1.28622942000000328733 50.16375000000000028422
11 0 1 0.0 1.28622942000000350937 1.28622942000000350937 55.30872941999999881091
12 0 1 0.0 1.28622942000000395346 1.28622942000000395346 60.45377058000000403126
13 0 1 0.0 1.28622942000000084484 6.43127057999999962590 3.85875000000000012434
14 0 1 0.0 1.28622942000000106688 6.43127058000000051408 9.00372941999999909513
15 0 1 0.0 1.28622942000000151097 6.43127058000000051408 14.14877058000000076277
16 0 1 0.0 1.28622942000000173302 6.43127058000000051408 19.29374999999999928946
17 0 1 0.0 1.28622942000000217710 6.43127058000000140225 24.43872942000000136886
18 0 1 0.0 1.28622942000000239915 6.43127058000000140225 29.58377058000000303650
19 0 1 0.0 1.28622942000000284324 6.43127058000000140225 34.72874999999999801048
20 0 1 0.0 1.28622942000000306528 6.43127058000000229043 39.87372942000000364260
21 0 1 0.0 1.28622942000000328733 6.43127058000000229043 45.01877058000000175753
22 0 1 0.0 1.28622942000000373142 6.43127058000000229043 50.16375000000000028422
23 0 1 0.0 1.28622942000000395346 6.43127058000000317861 55.30872941999999881091
24 0 1 0.0 1.28622942000000439755 6.43127058000000317861 60.45377058000000403126
25 0 1 0.0 1.28622942000000106688 11.57624999999999992895 3.85875000000000012434
26 0 1 0.0 1.28622942000000128893 11.57624999999999992895 9.00372941999999909513
27 0 1 0.0 1.28622942000000173302 11.57624999999999992895 14.14877058000000076277
28 0 1 0.0 1.28622942000000195506 11.57625000000000170530 19.29374999999999928946
29 0 1 0.0 1.28622942000000239915 11.57625000000000170530 24.43872942000000136886
30 0 1 0.0 1.28622942000000262119 11.57625000000000170530 29.58377058000000303650
31 0 1 0.0 1.28622942000000306528 11.57625000000000170530 34.72874999999999801048
32 0 1 0.0 1.28622942000000328733 11.57625000000000170530 39.87372942000000364260
33 0 1 0.0 1.28622942000000350937 11.57625000000000348166 45.01877058000000175753
34 0 1 0.0 1.28622942000000395346 11.57625000000000348166 50.16375000000000028422
35 0 1 0.0 1.28622942000000417551 11.57625000000000348166 55.30872941999999881091
36 0 1 0.0 1.28622942000000461960 11.57625000000000348166 60.45377058000000403126
37 0 1 0.0 1.28622942000000151097 16.72122942000000023199 3.85875000000000012434
38 0 1 0.0 1.28622942000000173302 16.72122942000000023199 9.00372941999999909513
39 0 1 0.0 1.28622942000000217710 16.72122942000000023199 14.14877058000000076277
40 0 1 0.0 1.28622942000000239915 16.72122942000000023199 19.29374999999999928946
41 0 1 0.0 1.28622942000000284324 16.72122942000000023199 24.43872942000000136886
42 0 1 0.0 1.28622942000000306528 16.72122942000000378471 29.58377058000000303650
43 0 1 0.0 1.28622942000000350937 16.72122942000000378471 34.72874999999999801048
44 0 1 0.0 1.28622942000000373142 16.72122942000000378471 39.87372942000000364260
45 0 1 0.0 1.28622942000000395346 16.72122942000000378471 45.01877058000000175753
46 0 1 0.0 1.28622942000000439755 16.72122942000000378471 50.16375000000000028422
47 0 1 0.0 1.28622942000000461960 16.72122942000000378471 55.30872941999999881091
48 0 1 0.0 1.28622942000000506368 16.72122942000000378471 60.45377058000000403126
49 0 1 0.0 1.28622942000000173302 21.86627058000000189963 3.85875000000000012434
50 0 1 0.0 1.28622942000000195506 21.86627058000000189963 9.00372941999999909513
51 0 1 0.0 1.28622942000000239915 21.86627058000000189963 14.14877058000000076277
52 0 1 0.0 1.28622942000000262119 21.86627058000000189963 19.29374999999999928946
53 0 1 0.0 1.28622942000000306528 21.86627058000000189963 24.43872942000000136886
54 0 1 0.0 1.28622942000000328733 21.86627058000000545235 29.58377058000000303650
55 0 1 0.0 1.28622942000000373142 21.86627058000000545235 34.72874999999999801048
56 0 1 0.0 1.28622942000000395346 21.86627058000000545235 39.87372942000000364260
57 0 1 0.0 1.28622942000000417551 21.86627058000000545235 45.01877058000000175753
58 0 1 0.0 1.28622942000000461960 21.86627058000000545235 50.16375000000000028422
59 0 1 0.0 1.28622942000000484164 21.86627058000000545235 55.30872941999999881091
60 0 1 0.0 1.28622942000000528573 21.86627058000000545235 60.45377058000000403126
61 0 1 0.0 1.28622942000000195506 27.01125000000000042633 3.85875000000000012434
62 0 1 0.0 1.28622942000000217710 27.01125000000000042633 9.00372941999999909513
63 0 1 0.0 1.28622942000000262119 27.01125000000000042633 14.14877058000000076277
64 0 1 0.0 1.28622942000000284324 27.01125000000000042633 19.29374999999999928946
65 0 1 0.0 1.28622942000000328733 27.01125000000000042633 24.43872942000000136886
66 0 1 0.0 1.28622942000000350937 27.01125000000000397904 29.58377058000000303650
67 0 1 0.0 1.28622942000000395346 27.01125000000000397904 34.72874999999999801048
68 0 1 0.0 1.28622942000000417551 27.01125000000000397904 39.87372942000000364260
69 0 1 0.0 1.28622942000000439755 27.01125000000000397904 45.01877058000000175753
70 0 1 0.0 1.28622942000000484164 27.01125000000000397904 50.16375000000000028422
71 0 1 0.0 1.28622942000000506368 27.01125000000000397904 55.30872941999999881091
72 0 1 0.0 1.28622942000000550777 27.01125000000000397904 60.45377058000000403126
73 0 1 0.0 1.28622942000000239915 32.15622942000000250573 3.85875000000000012434
74 0 1 0.0 1.28622942000000262119 32.15622942000000250573 9.00372941999999909513
75 0 1 0.0 1.28622942000000306528 32.15622942000000250573 14.14877058000000076277
76 0 1 0.0 1.28622942000000328733 32.15622942000000250573 19.29374999999999928946
77 0 1 0.0 1.28622942000000373142 32.15622942000000250573 24.43872942000000136886
78 0 1 0.0 1.28622942000000395346 32.15622942000000250573 29.58377058000000303650
79 0 1 0.0 1.28622942000000439755 32.15622942000000250573 34.72874999999999801048
80 0 1 0.0 1.28622942000000461960 32.15622942000000250573 39.87372942000000364260
81 0 1 0.0 1.28622942000000484164 32.15622942000000250573 45.01877058000000175753
82 0 1 0.0 1.28622942000000528573 32.15622942000000250573 50.16375000000000028422
83 0 1 0.0 1.28622942000000550777 32.15622942000000250573 55.30872941999999881091
84 0 1 0.0 1.28622942000000595186 32.15622942000000961116 60.45377058000000403126
85 0 1 0.0 1.28622942000000262119 37.30127058000000062066 3.85875000000000012434
86 0 1 0.0 1.28622942000000284324 37.30127058000000062066 9.00372941999999909513
87 0 1 0.0 1.28622942000000328733 37.30127058000000062066 14.14877058000000076277
88 0 1 0.0 1.28622942000000350937 37.30127058000000062066 19.29374999999999928946
89 0 1 0.0 1.28622942000000395346 37.30127058000000062066 24.43872942000000136886
90 0 1 0.0 1.28622942000000417551 37.30127058000000062066 29.58377058000000303650
91 0 1 0.0 1.28622942000000461960 37.30127058000000062066 34.72874999999999801048
92 0 1 0.0 1.28622942000000484164 37.30127058000000062066 39.87372942000000364260
93 0 1 0.0 1.28622942000000506368 37.30127058000000062066 45.01877058000000175753
94 0 1 0.0 1.28622942000000550777 37.30127058000000062066 50.16375000000000028422
95 0 1 0.0 1.28622942000000572982 37.30127058000000062066 55.30872941999999881091
96 0 1 0.0 1.28622942000000617391 37.30127058000000772608 60.45377058000000403126
97 0 1 0.0 1.28622942000000306528 42.44624999999999914735 3.85875000000000012434
98 0 1 0.0 1.28622942000000328733 42.44624999999999914735 9.00372941999999909513
99 0 1 0.0 1.28622942000000373142 42.44624999999999914735 14.14877058000000076277
100 0 1 0.0 1.28622942000000395346 42.44624999999999914735 19.29374999999999928946
101 0 1 0.0 1.28622942000000439755 42.44624999999999914735 24.43872942000000136886
102 0 1 0.0 1.28622942000000461960 42.44624999999999914735 29.58377058000000303650
103 0 1 0.0 1.28622942000000506368 42.44624999999999914735 34.72874999999999801048
104 0 1 0.0 1.28622942000000528573 42.44624999999999914735 39.87372942000000364260
105 0 1 0.0 1.28622942000000550777 42.44624999999999914735 45.01877058000000175753
106 0 1 0.0 1.28622942000000595186 42.44624999999999914735 50.16375000000000028422
107 0 1 0.0 1.28622942000000617391 42.44624999999999914735 55.30872941999999881091
108 0 1 0.0 1.28622942000000661800 42.44625000000000625278 60.45377058000000403126
109 0 1 0.0 1.28622942000000328733 47.59122941999999767404 3.85875000000000012434
110 0 1 0.0 1.28622942000000350937 47.59122941999999767404 9.00372941999999909513
111 0 1 0.0 1.28622942000000395346 47.59122941999999767404 14.14877058000000076277
112 0 1 0.0 1.28622942000000417551 47.59122941999999767404 19.29374999999999928946
113 0 1 0.0 1.28622942000000461960 47.59122941999999767404 24.43872942000000136886
114 0 1 0.0 1.28622942000000484164 47.59122941999999767404 29.58377058000000303650
115 0 1 0.0 1.28622942000000528573 47.59122941999999767404 34.72874999999999801048
116 0 1 0.0 1.28622942000000550777 47.59122941999999767404 39.87372942000000364260
117 0 1 0.0 1.28622942000000572982 47.59122941999999767404 45.01877058000000175753
118 0 1 0.0 1.28622942000000617391 47.59122941999999767404 50.16375000000000028422
119 0 1 0.0 1.28622942000000639595 47.59122941999999767404 55.30872941999999881091
120 0 1 0.0 1.28622942000000684004 47.59122942000000477947 60.45377058000000403126
121 0 1 0.0 1.28622942000000373142 52.73627058000000289439 3.85875000000000012434
122 0 1 0.0 1.28622942000000395346 52.73627058000000289439 9.00372941999999909513
123 0 1 0.0 1.28622942000000439755 52.73627058000000289439 14.14877058000000076277
124 0 1 0.0 1.28622942000000461960 52.73627058000000289439 19.29374999999999928946
125 0 1 0.0 1.28622942000000506368 52.73627058000000289439 24.43872942000000136886
126 0 1 0.0 1.28622942000000528573 52.73627058000000289439 29.58377058000000303650
127 0 1 0.0 1.28622942000000572982 52.73627058000000289439 34.72874999999999801048
128 0 1 0.0 1.28622942000000595186 52.73627058000000289439 39.87372942000000364260
129 0 1 0.0 1.28622942000000617391 52.73627058000000289439 45.01877058000000175753
130 0 1 0.0 1.28622942000000661800 52.73627058000000289439 50.16375000000000028422
131 0 1 0.0 1.28622942000000684004 52.73627058000000289439 55.30872941999999881091
132 0 1 0.0 1.28622942000000728413 52.73627058000000999982 60.45377058000000403126
133 0 1 0.0 1.28622942000000395346 57.88125000000000142109 3.85875000000000012434
134 0 1 0.0 1.28622942000000417551 57.88125000000000142109 9.00372941999999909513
135 0 1 0.0 1.28622942000000461960 57.88125000000000142109 14.14877058000000076277
136 0 1 0.0 1.28622942000000484164 57.88125000000000142109 19.29374999999999928946
137 0 1 0.0 1.28622942000000528573 57.88125000000000142109 24.43872942000000136886
138 0 1 0.0 1.28622942000000550777 57.88125000000000142109 29.58377058000000303650
139 0 1 0.0 1.28622942000000595186 57.88125000000000142109 34.72874999999999801048
140 0 1 0.0 1.28622942000000617391 57.88125000000000142109 39.87372942000000364260
141 0 1 0.0 1.28622942000000639595 57.88125000000000142109 45.01877058000000175753
142 0 1 0.0 1.28622942000000684004 57.88125000000000142109 50.16375000000000028422
143 0 1 0.0 1.28622942000000706209 57.88125000000000142109 55.30872941999999881091
144 0 1 0.0 1.28622942000000750618 57.88125000000000852651 60.45377058000000403126
145 0 1 0.0 6.43127057999999962590 1.28622942000000040075 3.85875000000000012434
146 0 1 0.0 6.43127058000000051408 1.28622942000000062279 9.00372941999999909513
147 0 1 0.0 6.43127058000000051408 1.28622942000000106688 14.14877058000000076277
148 0 1 0.0 6.43127058000000051408 1.28622942000000128893 19.29374999999999928946
149 0 1 0.0 6.43127058000000140225 1.28622942000000173302 24.43872942000000136886
150 0 1 0.0 6.43127058000000140225 1.28622942000000195506 29.58377058000000303650
151 0 1 0.0 6.43127058000000140225 1.28622942000000239915 34.72874999999999801048
152 0 1 0.0 6.43127058000000229043 1.28622942000000262119 39.87372942000000364260
153 0 1 0.0 6.43127058000000229043 1.28622942000000284324 45.01877058000000175753
154 0 1 0.0 6.43127058000000229043 1.28622942000000328733 50.16375000000000028422
155 0 1 0.0 6.43127058000000317861 1.28622942000000350937 55.30872941999999881091
156 0 1 0.0 6.43127058000000317861 1.28622942000000395346 60.45377058000000403126
157 0 1 0.0 6.43127057999999962590 6.43127057999999962590 3.85875000000000012434
158 0 1 0.0 6.43127058000000051408 6.43127058000000051408 9.00372941999999909513
159 0 1 0.0 6.43127058000000051408 6.43127058000000051408 14.14877058000000076277
160 0 1 0.0 6.43127058000000051408 6.43127058000000051408 19.29374999999999928946
161 0 1 0.0 6.43127058000000140225 6.43127058000000140225 24.43872942000000136886
162 0 1 0.0 6.43127058000000140225 6.43127058000000140225 29.58377058000000303650
163 0 1 0.0 6.43127058000000140225 6.43127058000000140225 34.72874999999999801048
164 0 1 0.0 6.43127058000000229043 6.43127058000000229043 39.87372942000000364260
165 0 1 0.0 6.43127058000000229043 6.43127058000000229043 45.01877058000000175753
166 0 1 0.0 6.43127058000000229043 6.43127058000000229043 50.16375000000000028422
167 0 1 0.0 6.43127058000000317861 6.43127058000000317861 55.30872941999999881091
168 0 1 0.0 6.43127058000000317861 6.43127058000000317861 60.45377058000000403126
169 0 1 0.0 6.43127058000000051408 11.57624999999999992895 3.85875000000000012434
170 0 1 0.0 6.43127058000000140225 11.57624999999999992895 9.00372941999999909513
171 0 1 0.0 6.43127058000000140225 11.57624999999999992895 14.14877058000000076277
172 0 1 0.0 6.43127058000000140225 11.57625000000000170530 19.29374999999999928946
173 0 1 0.0 6.43127058000000229043 11.57625000000000170530 24.43872942000000136886
174 0 1 0.0 6.43127058000000229043 11.57625000000000170530 29.58377058000000303650
175 0 1 0.0 6.43127058000000229043 11.57625000000000170530 34.72874999999999801048
176 0 1 0.0 6.43127058000000317861 11.57625000000000170530 39.87372942000000364260
177 0 1 0.0 6.43127058000000317861 11.57625000000000348166 45.01877058000000175753
178 0 1 0.0 6.43127058000000317861 11.57625000000000348166 50.16375000000000028422
179 0 1 0.0 6.43127058000000406679 11.57625000000000348166 55.30872941999999881091
180 0 1 0.0 6.43127058000000406679 11.57625000000000348166 60.45377058000000403126
181 0 1 0.0 6.43127058000000051408 16.72122942000000023199 3.85875000000000012434
182 0 1 0.0 6.43127058000000140225 16.72122942000000023199 9.00372941999999909513
183 0 1 0.0 6.43127058000000140225 16.72122942000000023199 14.14877058000000076277
184 0 1 0.0 6.43127058000000140225 16.72122942000000023199 19.29374999999999928946
185 0 1 0.0 6.43127058000000229043 16.72122942000000023199 24.43872942000000136886
186 0 1 0.0 6.43127058000000229043 16.72122942000000378471 29.58377058000000303650
187 0 1 0.0 6.43127058000000229043 16.72122942000000378471 34.72874999999999801048
188 0 1 0.0 6.43127058000000317861 16.72122942000000378471 39.87372942000000364260
189 0 1 0.0 6.43127058000000317861 16.72122942000000378471 45.01877058000000175753
190 0 1 0.0 6.43127058000000317861 16.72122942000000378471 50.16375000000000028422
191 0 1 0.0 6.43127058000000406679 16.72122942000000378471 55.30872941999999881091
192 0 1 0.0 6.43127058000000406679 16.72122942000000378471 60.45377058000000403126
193 0 1 0.0 6.43127058000000140225 21.86627058000000189963 3.85875000000000012434
194 0 1 0.0 6.43127058000000229043 21.86627058000000189963 9.00372941999999909513
195 0 1 0.0 6.43127058000000229043 21.86627058000000189963 14.14877058000000076277
196 0 1 0.0 6.43127058000000229043 21.86627058000000189963 19.29374999999999928946
197 0 1 0.0 6.43127058000000317861 21.86627058000000189963 24.43872942000000136886
198 0 1 0.0 6.43127058000000317861 21.86627058000000545235 29.58377058000000303650
199 0 1 0.0 6.43127058000000317861 21.86627058000000545235 34.72874999999999801048
200 0 1 0.0 6.43127058000000406679 21.86627058000000545235 39.87372942000000364260
201 0 1 0.0 6.43127058000000406679 21.86627058000000545235 45.01877058000000175753
202 0 1 0.0 6.43127058000000406679 21.86627058000000545235 50.16375000000000028422
203 0 1 0.0 6.43127058000000495497 21.86627058000000545235 55.30872941999999881091
204 0 1 0.0 6.43127058000000495497 21.86627058000000545235 60.45377058000000403126
205 0 1 0.0 6.43127058000000140225 27.01125000000000042633 3.85875000000000012434
206 0 1 0.0 6.43127058000000229043 27.01125000000000042633 9.00372941999999909513
207 0 1 0.0 6.43127058000000229043 27.01125000000000042633 14.14877058000000076277
208 0 1 0.0 6.43127058000000229043 27.01125000000000042633 19.29374999999999928946
209 0 1 0.0 6.43127058000000317861 27.01125000000000042633 24.43872942000000136886
210 0 1 0.0 6.43127058000000317861 27.01125000000000397904 29.58377058000000303650
211 0 1 0.0 6.43127058000000317861 27.01125000000000397904 34.72874999999999801048
212 0 1 0.0 6.43127058000000406679 27.01125000000000397904 39.87372942000000364260
213 0 1 0.0 6.43127058000000406679 27.01125000000000397904 45.01877058000000175753
214 0 1 0.0 6.43127058000000406679 27.01125000000000397904 50.16375000000000028422
215 0 1 0.0 6.43127058000000495497 27.01125000000000397904 55.30872941999999881091
216 0 1 0.0 6.43127058000000495497 27.01125000000000397904 60.45377058000000403126
217 0 1 0.0 6.43127058000000140225 32.15622942000000250573 3.85875000000000012434
218 0 1 0.0 6.43127058000000229043 32.15622942000000250573 9.00372941999999909513
219 0 1 0.0 6.43127058000000229043 32.15622942000000250573 14.14877058000000076277
220 0 1 0.0 6.43127058000000229043 32.15622942000000250573 19.29374999999999928946
221 0 1 0.0 6.43127058000000317861 32.15622942000000250573 24.43872942000000136886
222 0 1 0.0 6.43127058000000317861 32.15622942000000250573 29.58377058000000303650
223 0 1 0.0 6.43127058000000317861 32.15622942000000250573 34.72874999999999801048
224 0 1 0.0 6.43127058000000406679 32.15622942000000250573 39.87372942000000364260
225 0 1 0.0 6.43127058000000406679 32.15622942000000250573 45.01877058000000175753
226 0 1 0.0 6.43127058000000406679 32.15622942000000250573 50.16375000000000028422
227 0 1 0.0 6.43127058000000495497 32.15622942000000250573 55.30872941999999881091
228 0 1 0.0 6.43127058000000495497 32.15622942000000961116 60.45377058000000403126
229 0 1 0.0 6.43127058000000229043 37.30127058000000062066 3.85875000000000012434
230 0 1 0.0 6.43127058000000317861 37.30127058000000062066 9.00372941999999909513
231 0 1 0.0 6.43127058000000317861 37.30127058000000062066 14.14877058000000076277
232 0 1 0.0 6.43127058000000317861 37.30127058000000062066 19.29374999999999928946
233 0 1 0.0 6.43127058000000406679 37.30127058000000062066 24.43872942000000136886
234 0 1 0.0 6.43127058000000406679 37.30127058000000062066 29.58377058000000303650
235 0 1 0.0 6.43127058000000406679 37.30127058000000062066 34.72874999999999801048
236 0 1 0.0 6.43127058000000495497 37.30127058000000062066 39.87372942000000364260
237 0 1 0.0 6.43127058000000495497 37.30127058000000062066 45.01877058000000175753
238 0 1 0.0 6.43127058000000495497 37.30127058000000062066 50.16375000000000028422
239 0 1 0.0 6.43127058000000584315 37.30127058000000062066 55.30872941999999881091
240 0 1 0.0 6.43127058000000584315 37.30127058000000772608 60.45377058000000403126
241 0 1 0.0 6.43127058000000229043 42.44624999999999914735 3.85875000000000012434
242 0 1 0.0 6.43127058000000317861 42.44624999999999914735 9.00372941999999909513
243 0 1 0.0 6.43127058000000317861 42.44624999999999914735 14.14877058000000076277
244 0 1 0.0 6.43127058000000317861 42.44624999999999914735 19.29374999999999928946
245 0 1 0.0 6.43127058000000406679 42.44624999999999914735 24.43872942000000136886
246 0 1 0.0 6.43127058000000406679 42.44624999999999914735 29.58377058000000303650
247 0 1 0.0 6.43127058000000406679 42.44624999999999914735 34.72874999999999801048
248 0 1 0.0 6.43127058000000495497 42.44624999999999914735 39.87372942000000364260
249 0 1 0.0 6.43127058000000495497 42.44624999999999914735 45.01877058000000175753
250 0 1 0.0 6.43127058000000495497 42.44624999999999914735 50.16375000000000028422
251 0 1 0.0 6.43127058000000584315 42.44624999999999914735 55.30872941999999881091
252 0 1 0.0 6.43127058000000584315 42.44625000000000625278 60.45377058000000403126
253 0 1 0.0 6.43127058000000229043 47.59122941999999767404 3.85875000000000012434
254 0 1 0.0 6.43127058000000317861 47.59122941999999767404 9.00372941999999909513
255 0 1 0.0 6.43127058000000317861 47.59122941999999767404 14.14877058000000076277
256 0 1 0.0 6.43127058000000317861 47.59122941999999767404 19.29374999999999928946
257 0 1 0.0 6.43127058000000406679 47.59122941999999767404 24.43872942000000136886
258 0 1 0.0 6.43127058000000406679 47.59122941999999767404 29.58377058000000303650
259 0 1 0.0 6.43127058000000406679 47.59122941999999767404 34.72874999999999801048
260 0 1 0.0 6.43127058000000495497 47.59122941999999767404 39.87372942000000364260
261 0 1 0.0 6.43127058000000495497 47.59122941999999767404 45.01877058000000175753
262 0 1 0.0 6.43127058000000495497 47.59122941999999767404 50.16375000000000028422
263 0 1 0.0 6.43127058000000584315 47.59122941999999767404 55.30872941999999881091
264 0 1 0.0 6.43127058000000584315 47.59122942000000477947 60.45377058000000403126
265 0 1 0.0 6.43127058000000317861 52.73627058000000289439 3.85875000000000012434
266 0 1 0.0 6.43127058000000406679 52.73627058000000289439 9.00372941999999909513
267 0 1 0.0 6.43127058000000406679 52.73627058000000289439 14.14877058000000076277
268 0 1 0.0 6.43127058000000406679 52.73627058000000289439 19.29374999999999928946
269 0 1 0.0 6.43127058000000495497 52.73627058000000289439 24.43872942000000136886
270 0 1 0.0 6.43127058000000495497 52.73627058000000289439 29.58377058000000303650
271 0 1 0.0 6.43127058000000495497 52.73627058000000289439 34.72874999999999801048
272 0 1 0.0 6.43127058000000584315 52.73627058000000289439 39.87372942000000364260
273 0 1 0.0 6.43127058000000584315 52.73627058000000289439 45.01877058000000175753
274 0 1 0.0 6.43127058000000584315 52.73627058000000289439 50.16375000000000028422
275 0 1 0.0 6.43127058000000673132 52.73627058000000289439 55.30872941999999881091
276 0 1 0.0 6.43127058000000673132 52.73627058000000999982 60.45377058000000403126
277 0 1 0.0 6.43127058000000317861 57.88125000000000142109 3.85875000000000012434
278 0 1 0.0 6.43127058000000406679 57.88125000000000142109 9.00372941999999909513
279 0 1 0.0 6.43127058000000406679 57.88125000000000142109 14.14877058000000076277
280 0 1 0.0 6.43127058000000406679 57.88125000000000142109 19.29374999999999928946
281 0 1 0.0 6.43127058000000495497 57.88125000000000142109 24.43872942000000136886
282 0 1 0.0 6.43127058000000495497 57.88125000000000142109 29.58377058000000303650
283 0 1 0.0 6.43127058000000495497 57.88125000000000142109 34.72874999999999801048
284 0 1 0.0 6.43127058000000584315 57.88125000000000142109 39.87372942000000364260
285 0 1 0.0 6.43127058000000584315 57.88125000000000142109 45.01877058000000175753
286 0 1 0.0 6.43127058000000584315 57.88125000000000142109 50.16375000000000028422
287 0 1 0.0 6.43127058000000673132 57.88125000000000142109 55.30872941999999881091
288 0 1 0.0 6.43127058000000673132 57.88125000000000852651 60.45377058000000403126
289 0 1 0.0 11.57624999999999992895 1.28622942000000040075 3.85875000000000012434
290 0 1 0.0 11.57624999999999992895 1.28622942000000062279 9.00372941999999909513
291 0 1 0.0 11.57624999999999992895 1.28622942000000106688 14.14877058000000076277
292 0 1 0.0 11.57625000000000170530 1.28622942000000128893 19.29374999999999928946
293 0 1 0.0 11.57625000000000170530 1.28622942000000173302 24.43872942000000136886
294 0 1 0.0 11.57625000000000170530 1.28622942000000195506 29.58377058000000303650
295 0 1 0.0 11.57625000000000170530 1.28622942000000239915 34.72874999999999801048
296 0 1 0.0 11.57625000000000170530 1.28622942000000262119 39.87372942000000364260
297 0 1 0.0 11.57625000000000348166 1.28622942000000284324 45.01877058000000175753
298 0 1 0.0 11.57625000000000348166 1.28622942000000328733 50.16375000000000028422
299 0 1 0.0 11.57625000000000348166 1.28622942000000350937 55.30872941999999881091
300 0 1 0.0 11.57625000000000348166 1.28622942000000395346 60.45377058000000403126
301 0 1 0.0 11.57624999999999992895 6.43127057999999962590 3.85875000000000012434
302 0 1 0.0 11.57624999999999992895 6.43127058000000051408 9.00372941999999909513
303 0 1 0.0 11.57624999999999992895 6.43127058000000051408 14.14877058000000076277
304 0 1 0.0 11.57625000000000170530 6.43127058000000051408 19.29374999999999928946
305 0 1 0.0 11.57625000000000170530 6.43127058000000140225 24.43872942000000136886
306 0 1 0.0 11.57625000000000170530 6.43127058000000140225 29.58377058000000303650
307 0 1 0.0 11.57625000000000170530 6.43127058000000140225 34.72874999999999801048
308 0 1 0.0 11.57625000000000170530 6.43127058000000229043 39.87372942000000364260
309 0 1 0.0 11.57625000000000348166 6.43127058000000229043 45.01877058000000175753
310 0 1 0.0 11.57625000000000348166 6.43127058000000229043 50.16375000000000028422
311 0 1 0.0 11.57625000000000348166 6.43127058000000317861 55.30872941999999881091
312 0 1 0.0 11.57625000000000348166 6.43127058000000317861 60.45377058000000403126
313 0 1 0.0 11.57624999999999992895 11.57624999999999992895 3.85875000000000012434
314 0 1 0.0 11.57624999999999992895 11.57624999999999992895 9.00372941999999909513
315 0 1 0.0 11.57624999999999992895 11.57624999999999992895 14.14877058000000076277
316 0 1 0.0 11.57625000000000170530 11.57625000000000170530 19.29374999999999928946
317 0 1 0.0 11.57625000000000170530 11.57625000000000170530 24.43872942000000136886
318 0 1 0.0 11.57625000000000170530 11.57625000000000170530 29.58377058000000303650
319 0 1 0.0 11.57625000000000170530 11.57625000000000170530 34.72874999999999801048
320 0 1 0.0 11.57625000000000170530 11.57625000000000170530 39.87372942000000364260
321 0 1 0.0 11.57625000000000348166 11.57625000000000348166 45.01877058000000175753
322 0 1 0.0 11.57625000000000348166 11.57625000000000348166 50.16375000000000028422
323 0 1 0.0 11.57625000000000348166 11.57625000000000348166 55.30872941999999881091
324 0 1 0.0 11.57625000000000348166 11.57625000000000348166 60.45377058000000403126
325 0 1 0.0 11.57625000000000170530 16.72122942000000023199 3.85875000000000012434
326 0 1 0.0 11.57625000000000170530 16.72122942000000023199 9.00372941999999909513
327 0 1 0.0 11.57625000000000170530 16.72122942000000023199 14.14877058000000076277
328 0 1 0.0 11.57625000000000348166 16.72122942000000023199 19.29374999999999928946
329 0 1 0.0 11.57625000000000348166 16.72122942000000023199 24.43872942000000136886
330 0 1 0.0 11.57625000000000348166 16.72122942000000378471 29.58377058000000303650
331 0 1 0.0 11.57625000000000348166 16.72122942000000378471 34.72874999999999801048
332 0 1 0.0 11.57625000000000348166 16.72122942000000378471 39.87372942000000364260
333 0 1 0.0 11.57625000000000525802 16.72122942000000378471 45.01877058000000175753
334 0 1 0.0 11.57625000000000525802 16.72122942000000378471 50.16375000000000028422
335 0 1 0.0 11.57625000000000525802 16.72122942000000378471 55.30872941999999881091
336 0 1 0.0 11.57625000000000525802 16.72122942000000378471 60.45377058000000403126
337 0 1 0.0 11.57625000000000170530 21.86627058000000189963 3.85875000000000012434
338 0 1 0.0 11.57625000000000170530 21.86627058000000189963 9.00372941999999909513
339 0 1 0.0 11.57625000000000170530 21.86627058000000189963 14.14877058000000076277
340 0 1 0.0 11.57625000000000348166 21.86627058000000189963 19.29374999999999928946
341 0 1 0.0 11.57625000000000348166 21.86627058000000189963 24.43872942000000136886
342 0 1 0.0 11.57625000000000348166 21.86627058000000545235 29.58377058000000303650
343 0 1 0.0 11.57625000000000348166 21.86627058000000545235 34.72874999999999801048
344 0 1 0.0 11.57625000000000348166 21.86627058000000545235 39.87372942000000364260
345 0 1 0.0 11.57625000000000525802 21.86627058000000545235 45.01877058000000175753
346 0 1 0.0 11.57625000000000525802 21.86627058000000545235 50.16375000000000028422
347 0 1 0.0 11.57625000000000525802 21.86627058000000545235 55.30872941999999881091
348 0 1 0.0 11.57625000000000525802 21.86627058000000545235 60.45377058000000403126
349 0 1 0.0 11.57625000000000170530 27.01125000000000042633 3.85875000000000012434
350 0 1 0.0 11.57625000000000170530 27.01125000000000042633 9.00372941999999909513
351 0 1 0.0 11.57625000000000170530 27.01125000000000042633 14.14877058000000076277
352 0 1 0.0 11.57625000000000348166 27.01125000000000042633 19.29374999999999928946
353 0 1 0.0 11.57625000000000348166 27.01125000000000042633 24.43872942000000136886
354 0 1 0.0 11.57625000000000348166 27.01125000000000397904 29.58377058000000303650
355 0 1 0.0 11.57625000000000348166 27.01125000000000397904 34.72874999999999801048
356 0 1 0.0 11.57625000000000348166 27.01125000000000397904 39.87372942000000364260
357 0 1 0.0 11.57625000000000525802 27.01125000000000397904 45.01877058000000175753
358 0 1 0.0 11.57625000000000525802 27.01125000000000397904 50.16375000000000028422
359 0 1 0.0 11.57625000000000525802 27.01125000000000397904 55.30872941999999881091