LAMMPS data file via write_data, version 22 Dec 2022, timestep = 8

4 atoms
2 atom types

-0.005848285799936563 3.890848285799937 xlo xhi
-0.005848285799936563 3.890848285799937 ylo yhi
-0.005848285799936563 3.890848285799937 zlo zhi

Masses

1 186.21
2 195.08

Atoms # atomic

4 1 -0.005848285799936459 -0.005848285799936459 -0.005848285799936459 0 0 0
2 2 1.9425 1.9425 -0.005848285799936459 0 0 0
3 2 1.9425 -0.005848285799936459 1.9425 0 0 0
1 2 -0.005848285799936459 1.9425 1.9425 0 0 0

Velocities

4 0 0 0
2 0 0 0
3 0 0 0
1 0 0 0
