LAMMPS (22 Dec 2022)
  using 1 OpenMP thread(s) per MPI task
Loaded 1 plugins from C:\Program Files\LAMMPS 64-bit 23Jun2022\plugins
Loaded 0 plugins from C:\Program Files\LAMMPS 64-bit 23Jun2022-MPI\plugins
Loaded 1 plugins from C:\Program Files\LAMMPS 64-bit 22Dec2022-MSMPI\plugins
Loaded 1 plugins from C:\Program Files\LAMMPS 64-bit 28Mar2023-MPI\plugins
#------------------------------------------------------------------------------------------
# LAMMPS 64-bit 22Dec2022-MSMPI
#------------------------------------------------------------------------------------------
clear
  using 1 OpenMP thread(s) per MPI task
Loaded 1 plugins from C:\Program Files\LAMMPS 64-bit 23Jun2022\plugins
Loaded 0 plugins from C:\Program Files\LAMMPS 64-bit 23Jun2022-MPI\plugins
Loaded 1 plugins from C:\Program Files\LAMMPS 64-bit 22Dec2022-MSMPI\plugins
Loaded 1 plugins from C:\Program Files\LAMMPS 64-bit 28Mar2023-MPI\plugins
#echo both
# ---------- Initializing Simulation ---------------------------------
units metal
dimension 3
boundary p p p
atom_style atomic
atom_modify map array

read_data ./../../Fe3O4.data
Reading data file ...
  orthogonal box = (0 0 0) to (8.5333515 8.5333515 8.5333515)
  2 by 2 by 2 MPI processor grid
  reading atoms ...
  56 atoms
  read_data CPU = 0.001 seconds

replicate 1 1 1
Replication is creating a 1x1x1 = 1 times larger system...
  orthogonal box = (0 0 0) to (8.5333515 8.5333515 8.5333515)
  2 by 2 by 2 MPI processor grid
  56 atoms
  replicate CPU = 0.000 seconds

# ---------- Defining the Interatomic Potential ---------------------
pair_style meam
pair_coeff * * ./../../library.meam Fe Cr Ni O ./../../FeCrNiO.meam Fe O

# ---------- Running Minimization -------------------------------------
fix 1 all box/relax iso 0.0 vmax 0.001

thermo 10
thermo_style custom step pe etotal lx ly lz vol press pxx pyy pzz

min_style cg
minimize 1e-25 1e-25 5000 10000
Neighbor list info ...
  update: every = 1 steps, delay = 0 steps, check = yes
  max neighbors/atom: 2000, page size: 100000
  master list distance cutoff = 6
  ghost atom cutoff = 6
  binsize = 3, bins = 3 3 3
  2 neighbor lists, perpetual/occasional/extra = 2 0 0
  (1) pair meam, perpetual
      attributes: full, newton on
      pair build: full/bin/atomonly
      stencil: full/bin/3d
      bin: standard
  (2) pair meam, perpetual, half/full from (1)
      attributes: half, newton on
      pair build: halffull/newton
      stencil: none
      bin: none
Per MPI rank memory allocation (min/avg/max) = 9.679 | 9.679 | 9.68 Mbytes
   Step         PotEng         TotEng           Lx             Ly             Lz           Volume         Press           Pxx            Pyy            Pzz      
         0  -393.17319     -393.17319      8.5333515      8.5333515      8.5333515      621.38235     -119524.3      -119524.3      -119524.3      -119524.3     
        10  -394.42212     -394.42212      8.448018       8.448018       8.448018       602.92667     -84112.381     -84112.381     -84112.381     -84112.381    
        20  -395.2662      -395.2662       8.3626845      8.3626845      8.3626845      584.84009     -43997.924     -43997.924     -43997.924     -43997.924    
        30  -396.07681     -396.07681      8.277351       8.277351       8.277351       567.11889      1810.9363      1810.9363      1810.9363      1810.9363    
        40  -399.89691     -399.89691      8.2944177      8.2944177      8.2944177      570.63408     -1734.4457     -1734.4457     -1734.4457     -1734.4457    
        50  -403.88455     -403.88455      8.2944177      8.2944177      8.2944177      570.63408      7536.3999      7536.3999      7536.3999      7536.3999    
        60  -411.36331     -411.36331      8.3456178      8.3456178      8.3456178      581.26674      9689.15        9689.15        9689.15        9689.15      
        70  -412.66463     -412.66463      8.3797512      8.3797512      8.3797512      588.42806     -714.95814     -714.95814     -714.95814     -714.95814    
        80  -414.61573     -414.61573      8.3968179      8.3968179      8.3968179      592.03067      5522.1059      5522.1059      5522.1059      5522.1059    
        90  -415.7307      -415.7307       8.4309513      8.4309513      8.4309513      599.27995     -1345.8255     -1345.8255     -1345.8255     -1345.8255    
       100  -416.99487     -416.99487      8.4650847      8.4650847      8.4650847      606.58816     -2538.9459     -2538.9459     -2538.9459     -2538.9459    
       110  -417.35967     -417.35967      8.4650847      8.4650847      8.4650847      606.58816      3486.6615      3486.6615      3486.6615      3486.6615    
       120  -418.08381     -418.08381      8.4821514      8.4821514      8.4821514      610.26444      10360.038      10360.038      10360.038      10360.038    
       130  -418.58666     -418.58666      8.5333515      8.5333515      8.5333515      621.38235      780.43643      780.43643      780.43643      780.43643    
       140  -418.76044     -418.76044      8.5504182      8.5504182      8.5504182      625.1181       2354.6147      2354.6147      2354.6147      2354.6147    
       150  -418.85859     -418.85859      8.586713       8.586713       8.586713       633.11244      0.078124809    0.078124809    0.078124809    0.078124809  
       153  -418.85859     -418.85859      8.5867068      8.5867068      8.5867068      633.11107      3.6689132e-06  3.6689514e-06  3.6689075e-06  3.6688806e-06
Loop time of 0.0267728 on 8 procs for 153 steps with 56 atoms

43.8% CPU use with 8 MPI tasks x 1 OpenMP threads

Minimization stats:
  Stopping criterion = energy tolerance
  Energy initial, next-to-last, final = 
     -393.173185369507  -418.858591957351  -418.858591957351
  Force two-norm initial, final = 142.06961 1.4265064e-08
  Force max component initial, final = 139.06762 4.322363e-09
  Final line search alpha, max atom move = 1 4.322363e-09
  Iterations, force evaluations = 153 163

MPI task timing breakdown:
Section |  min time  |  avg time  |  max time  |%varavg| %total
---------------------------------------------------------------
Pair    | 0.017534   | 0.017689   | 0.017862   |   0.1 | 66.07
Neigh   | 0          | 0          | 0          |   0.0 |  0.00
Comm    | 0.002839   | 0.0030071  | 0.003138   |   0.2 | 11.23
Output  | 0.000171   | 0.00018325 | 0.00025    |   0.0 |  0.68
Modify  | 0          | 0          | 0          |   0.0 |  0.00
Other   |            | 0.005894   |            |       | 22.01

Nlocal:              7 ave           8 max           6 min
Histogram: 4 0 0 0 0 0 0 0 0 4
Nghost:          422.5 ave         423 max         422 min
Histogram: 4 0 0 0 0 0 0 0 0 4
Neighs:            252 ave         284 max         220 min
Histogram: 4 0 0 0 0 0 0 0 0 4
FullNghs:          504 ave         568 max         440 min
Histogram: 4 0 0 0 0 0 0 0 0 4

Total # of neighbors = 4032
Ave neighs/atom = 72
Neighbor list builds = 0
Dangerous builds = 0

variable  natoms equal "count(all)"
variable      x0 equal "lx"
variable      y0 equal "ly"
variable      z0 equal "lz"
variable      v0 equal "vol"
variable   etot0 equal "etotal"
variable   ecoh0 equal "pe/v_natoms"

unfix 1
write_data ./../step2_elastic/data.in
System init for write_data ...

# ---------- For Equation of States -------------------------------------
change_box all x scale 0.94 y scale 0.94 z scale 0.94 remap
Changing box ...
  orthogonal box = (0.23092356 -0.026677646 -0.026677646) to (8.302428 8.5600292 8.5600292)
  orthogonal box = (0.23092356 0.23092356 -0.026677646) to (8.302428 8.302428 8.5600292)
  orthogonal box = (0.23092356 0.23092356 0.23092356) to (8.302428 8.302428 8.302428)
run 1
WARNING: No fixes with time integration, atoms won't move (src/verlet.cpp:60)
Per MPI rank memory allocation (min/avg/max) = 8.554 | 8.556 | 8.558 Mbytes
   Step         PotEng         TotEng           Lx             Ly             Lz           Volume         Press           Pxx            Pyy            Pzz      
       153  -408.67474     -408.67474      8.0715044      8.0715044      8.0715044      525.85192      347680.39      347680.39      347680.39      347680.39    
       154  -408.67474     -408.67474      8.0715044      8.0715044      8.0715044      525.85192      347680.39      347680.39      347680.39      347680.39    
Loop time of 0.000143875 on 8 procs for 1 steps with 56 atoms

Performance: 600.521 ns/day, 0.040 hours/ns, 6950.478 timesteps/s, 389.227 katom-step/s
0.0% CPU use with 8 MPI tasks x 1 OpenMP threads

MPI task timing breakdown:
Section |  min time  |  avg time  |  max time  |%varavg| %total
---------------------------------------------------------------
Pair    | 0.000108   | 0.0001105  | 0.000114   |   0.0 | 76.80
Neigh   | 0          | 0          | 0          |   0.0 |  0.00
Comm    | 1.5e-05    | 1.825e-05  | 2e-05      |   0.0 | 12.68
Output  | 1.1e-05    | 1.1e-05    | 1.1e-05    |   0.0 |  7.65
Modify  | 0          | 3.75e-07   | 2e-06      |   0.0 |  0.26
Other   |            | 3.75e-06   |            |       |  2.61

Nlocal:              7 ave           9 max           5 min
Histogram: 4 0 0 0 0 0 0 0 0 4
Nghost:          422.5 ave         424 max         421 min
Histogram: 4 0 0 0 0 0 0 0 0 4
Neighs:            330 ave         431 max         225 min
Histogram: 4 0 0 0 0 0 0 0 0 4
FullNghs:          660 ave         860 max         460 min
Histogram: 4 0 0 0 0 0 0 0 0 4

Total # of neighbors = 5280
Ave neighs/atom = 94.285714
Neighbor list builds = 0
Dangerous builds = 0
print "# Lattice constant (Angstroms), Volume (Angstrom), Total energy (eV), Cohesive energy (eV/atom)" file lattice_cohesive_energy.txt screen no


# Loop over lattice constants
variable i loop 49 # Number of steps
label loop

change_box all x scale 1.0025 y scale 1.0025 z scale 1.0025 remap
Changing box ...
  orthogonal box = (0.22083418 0.23092356 0.23092356) to (8.3125174 8.302428 8.302428)
  orthogonal box = (0.22083418 0.22083418 0.23092356) to (8.3125174 8.3125174 8.302428)
  orthogonal box = (0.22083418 0.22083418 0.22083418) to (8.3125174 8.3125174 8.3125174)

run 1
WARNING: No fixes with time integration, atoms won't move (src/verlet.cpp:60)
Per MPI rank memory allocation (min/avg/max) = 8.554 | 8.556 | 8.558 Mbytes
   Step         PotEng         TotEng           Lx             Ly             Lz           Volume         Press           Pxx            Pyy            Pzz      
       154  -409.51032     -409.51032      8.0916832      8.0916832      8.0916832      529.80568      329608.51      329608.51      329608.51      329608.51    
       155  -409.51032     -409.51032      8.0916832      8.0916832      8.0916832      529.80568      329608.51      329608.51      329608.51      329608.51    
Loop time of 0.000301875 on 8 procs for 1 steps with 56 atoms

Performance: 286.211 ns/day, 0.084 hours/ns, 3312.629 timesteps/s, 185.507 katom-step/s
0.0% CPU use with 8 MPI tasks x 1 OpenMP threads

MPI task timing breakdown:
Section |  min time  |  avg time  |  max time  |%varavg| %total
---------------------------------------------------------------
Pair    | 0.000189   | 0.000214   | 0.000255   |   0.0 | 70.89
Neigh   | 0          | 0          | 0          |   0.0 |  0.00
Comm    | 1.8e-05    | 6.0125e-05 | 8.6e-05    |   0.0 | 19.92
Output  | 1.8e-05    | 1.8375e-05 | 2e-05      |   0.0 |  6.09
Modify  | 0          | 1.25e-07   | 1e-06      |   0.0 |  0.04
Other   |            | 9.25e-06   |            |       |  3.06

Nlocal:              7 ave           9 max           5 min
Histogram: 4 0 0 0 0 0 0 0 0 4
Nghost:          422.5 ave         424 max         421 min
Histogram: 4 0 0 0 0 0 0 0 0 4
Neighs:            306 ave         395 max         213 min
Histogram: 4 0 0 0 0 0 0 0 0 4
FullNghs:          612 ave         788 max         436 min
Histogram: 4 0 0 0 0 0 0 0 0 4

Total # of neighbors = 4896
Ave neighs/atom = 87.428571
Neighbor list builds = 0
Dangerous builds = 0
variable  natoms equal "count(all)"
variable xlength equal "lx"
variable  volume equal "vol"
variable  etotal equal "etotal"
variable    ecoh equal "pe/v_natoms"
print "${xlength}, ${volume}, ${etotal}, ${ecoh}" append lattice_cohesive_energy.txt screen no

next i
jump SELF loop

change_box all x scale 1.0025 y scale 1.0025 z scale 1.0025 remap
Changing box ...
  orthogonal box = (0.21071957 0.22083418 0.22083418) to (8.322632 8.3125174 8.3125174)
  orthogonal box = (0.21071957 0.21071957 0.22083418) to (8.322632 8.322632 8.3125174)
  orthogonal box = (0.21071957 0.21071957 0.21071957) to (8.322632 8.322632 8.322632)

run 1
WARNING: No fixes with time integration, atoms won't move (src/verlet.cpp:60)
Per MPI rank memory allocation (min/avg/max) = 8.554 | 8.556 | 8.558 Mbytes
   Step         PotEng         TotEng           Lx             Ly             Lz           Volume         Press           Pxx            Pyy            Pzz      
       155  -410.30772     -410.30772      8.1119124      8.1119124      8.1119124      533.78917      311918.13      311918.13      311918.13      311918.13    
       156  -410.30772     -410.30772      8.1119124      8.1119124      8.1119124      533.78917      311918.13      311918.13      311918.13      311918.13    
Loop time of 0.000245875 on 8 procs for 1 steps with 56 atoms

Performance: 351.398 ns/day, 0.068 hours/ns, 4067.107 timesteps/s, 227.758 katom-step/s
0.0% CPU use with 8 MPI tasks x 1 OpenMP threads

MPI task timing breakdown:
Section |  min time  |  avg time  |  max time  |%varavg| %total
---------------------------------------------------------------
Pair    | 0.00017    | 0.00017938 | 0.000201   |   0.0 | 72.95
Neigh   | 0          | 0          | 0          |   0.0 |  0.00
Comm    | 2e-05      | 4.175e-05  | 5.2e-05    |   0.0 | 16.98
Output  | 1.5e-05    | 1.6625e-05 | 1.8e-05    |   0.0 |  6.76
Modify  | 0          | 1.25e-07   | 1e-06      |   0.0 |  0.05
Other   |            | 8e-06      |            |       |  3.25

Nlocal:              7 ave           9 max           5 min
Histogram: 4 0 0 0 0 0 0 0 0 4
Nghost:          422.5 ave         424 max         421 min
Histogram: 4 0 0 0 0 0 0 0 0 4
Neighs:            306 ave         395 max         214 min
Histogram: 4 0 0 0 0 0 0 0 0 4
FullNghs:          612 ave         788 max         436 min
Histogram: 4 0 0 0 0 0 0 0 0 4

Total # of neighbors = 4896
Ave neighs/atom = 87.428571
Neighbor list builds = 0
Dangerous builds = 0
variable  natoms equal "count(all)"
variable xlength equal "lx"
variable  volume equal "vol"
variable  etotal equal "etotal"
variable    ecoh equal "pe/v_natoms"
print "${xlength}, ${volume}, ${etotal}, ${ecoh}" append lattice_cohesive_energy.txt screen no

next i
jump SELF loop

change_box all x scale 1.0025 y scale 1.0025 z scale 1.0025 remap
Changing box ...
  orthogonal box = (0.20057968 0.21071957 0.21071957) to (8.3327719 8.322632 8.322632)
  orthogonal box = (0.20057968 0.20057968 0.21071957) to (8.3327719 8.3327719 8.322632)
  orthogonal box = (0.20057968 0.20057968 0.20057968) to (8.3327719 8.3327719 8.3327719)

run 1
WARNING: No fixes with time integration, atoms won't move (src/verlet.cpp:60)
Per MPI rank memory allocation (min/avg/max) = 8.554 | 8.556 | 8.558 Mbytes
   Step         PotEng         TotEng           Lx             Ly             Lz           Volume         Press           Pxx            Pyy            Pzz      
       156  -411.06728     -411.06728      8.1321922      8.1321922      8.1321922      537.8026       294603.4       294603.4       294603.4       294603.4     
       157  -411.06728     -411.06728      8.1321922      8.1321922      8.1321922      537.8026       294603.4       294603.4       294603.4       294603.4     
Loop time of 0.000293375 on 8 procs for 1 steps with 56 atoms

Performance: 294.504 ns/day, 0.081 hours/ns, 3408.607 timesteps/s, 190.882 katom-step/s
0.0% CPU use with 8 MPI tasks x 1 OpenMP threads

MPI task timing breakdown:
Section |  min time  |  avg time  |  max time  |%varavg| %total
---------------------------------------------------------------
Pair    | 0.000198   | 0.000218   | 0.000241   |   0.0 | 74.31
Neigh   | 0          | 0          | 0          |   0.0 |  0.00
Comm    | 2.2e-05    | 4.4e-05    | 6.5e-05    |   0.0 | 15.00
Output  | 1.7e-05    | 1.9625e-05 | 2.2e-05    |   0.0 |  6.69
Modify  | 0          | 1.25e-07   | 1e-06      |   0.0 |  0.04
Other   |            | 1.163e-05  |            |       |  3.96

Nlocal:              7 ave           9 max           5 min
Histogram: 4 0 0 0 0 0 0 0 0 4
Nghost:          422.5 ave         424 max         421 min
Histogram: 4 0 0 0 0 0 0 0 0 4
Neighs:            306 ave         395 max         214 min
Histogram: 4 0 0 0 0 0 0 0 0 4
FullNghs:          612 ave         788 max         436 min
Histogram: 4 0 0 0 0 0 0 0 0 4

Total # of neighbors = 4896
Ave neighs/atom = 87.428571
Neighbor list builds = 0
Dangerous builds = 0
variable  natoms equal "count(all)"
variable xlength equal "lx"
variable  volume equal "vol"
variable  etotal equal "etotal"
variable    ecoh equal "pe/v_natoms"
print "${xlength}, ${volume}, ${etotal}, ${ecoh}" append lattice_cohesive_energy.txt screen no

next i
jump SELF loop

change_box all x scale 1.0025 y scale 1.0025 z scale 1.0025 remap
Changing box ...
  orthogonal box = (0.19041444 0.20057968 0.20057968) to (8.3429371 8.3327719 8.3327719)
  orthogonal box = (0.19041444 0.19041444 0.20057968) to (8.3429371 8.3429371 8.3327719)
  orthogonal box = (0.19041444 0.19041444 0.19041444) to (8.3429371 8.3429371 8.3429371)

run 1
WARNING: No fixes with time integration, atoms won't move (src/verlet.cpp:60)
Per MPI rank memory allocation (min/avg/max) = 8.554 | 8.556 | 8.558 Mbytes
   Step         PotEng         TotEng           Lx             Ly             Lz           Volume         Press           Pxx            Pyy            Pzz      
       157  -411.78933     -411.78933      8.1525227      8.1525227      8.1525227      541.84621      277658.54      277658.54      277658.54      277658.54    
       158  -411.78933     -411.78933      8.1525227      8.1525227      8.1525227      541.84621      277658.54      277658.54      277658.54      277658.54    
Loop time of 0.00026275 on 8 procs for 1 steps with 56 atoms

Performance: 328.830 ns/day, 0.073 hours/ns, 3805.899 timesteps/s, 213.130 katom-step/s
0.0% CPU use with 8 MPI tasks x 1 OpenMP threads

MPI task timing breakdown:
Section |  min time  |  avg time  |  max time  |%varavg| %total
---------------------------------------------------------------
Pair    | 0.000166   | 0.00018912 | 0.000215   |   0.0 | 71.98
Neigh   | 0          | 0          | 0          |   0.0 |  0.00
Comm    | 2.2e-05    | 4.7375e-05 | 7.1e-05    |   0.0 | 18.03
Output  | 1.5e-05    | 1.7375e-05 | 1.9e-05    |   0.0 |  6.61
Modify  | 0          | 1.25e-07   | 1e-06      |   0.0 |  0.05
Other   |            | 8.75e-06   |            |       |  3.33

Nlocal:              7 ave           9 max           5 min
Histogram: 4 0 0 0 0 0 0 0 0 4
Nghost:          422.5 ave         424 max         421 min
Histogram: 4 0 0 0 0 0 0 0 0 4
Neighs:            306 ave         395 max         214 min
Histogram: 4 0 0 0 0 0 0 0 0 4
FullNghs:          612 ave         788 max         436 min
Histogram: 4 0 0 0 0 0 0 0 0 4

Total # of neighbors = 4896
Ave neighs/atom = 87.428571
Neighbor list builds = 0
Dangerous builds = 0
variable  natoms equal "count(all)"
variable xlength equal "lx"
variable  volume equal "vol"
variable  etotal equal "etotal"
variable    ecoh equal "pe/v_natoms"
print "${xlength}, ${volume}, ${etotal}, ${ecoh}" append lattice_cohesive_energy.txt screen no

next i
jump SELF loop

change_box all x scale 1.0025 y scale 1.0025 z scale 1.0025 remap
Changing box ...
  orthogonal box = (0.18022379 0.19041444 0.19041444) to (8.3531277 8.3429371 8.3429371)
  orthogonal box = (0.18022379 0.18022379 0.19041444) to (8.3531277 8.3531277 8.3429371)
  orthogonal box = (0.18022379 0.18022379 0.18022379) to (8.3531277 8.3531277 8.3531277)

run 1
WARNING: No fixes with time integration, atoms won't move (src/verlet.cpp:60)
Per MPI rank memory allocation (min/avg/max) = 8.554 | 8.556 | 8.558 Mbytes
   Step         PotEng         TotEng           Lx             Ly             Lz           Volume         Press           Pxx            Pyy            Pzz      
       158  -412.47417     -412.47417      8.172904       8.172904       8.172904       545.92023      261077.85      261077.85      261077.85      261077.85    
       159  -412.47417     -412.47417      8.172904       8.172904       8.172904       545.92023      261077.85      261077.85      261077.85      261077.85    
Loop time of 0.000258125 on 8 procs for 1 steps with 56 atoms

Performance: 334.722 ns/day, 0.072 hours/ns, 3874.092 timesteps/s, 216.949 katom-step/s
0.0% CPU use with 8 MPI tasks x 1 OpenMP threads

MPI task timing breakdown:
Section |  min time  |  avg time  |  max time  |%varavg| %total
---------------------------------------------------------------
Pair    | 0.000164   | 0.00018662 | 0.000212   |   0.0 | 72.30
Neigh   | 0          | 0          | 0          |   0.0 |  0.00
Comm    | 2.1e-05    | 4.625e-05  | 7e-05      |   0.0 | 17.92
Output  | 1.5e-05    | 1.65e-05   | 1.8e-05    |   0.0 |  6.39
Modify  | 0          | 1.25e-07   | 1e-06      |   0.0 |  0.05
Other   |            | 8.625e-06  |            |       |  3.34

Nlocal:              7 ave           9 max           5 min
Histogram: 4 0 0 0 0 0 0 0 0 4
Nghost:          422.5 ave         424 max         421 min
Histogram: 4 0 0 0 0 0 0 0 0 4
Neighs:            306 ave         395 max         214 min
Histogram: 4 0 0 0 0 0 0 0 0 4
FullNghs:          612 ave         788 max         436 min
Histogram: 4 0 0 0 0 0 0 0 0 4

Total # of neighbors = 4896
Ave neighs/atom = 87.428571
Neighbor list builds = 0
Dangerous builds = 0
variable  natoms equal "count(all)"
variable xlength equal "lx"
variable  volume equal "vol"
variable  etotal equal "etotal"
variable    ecoh equal "pe/v_natoms"
print "${xlength}, ${volume}, ${etotal}, ${ecoh}" append lattice_cohesive_energy.txt screen no

next i
jump SELF loop

change_box all x scale 1.0025 y scale 1.0025 z scale 1.0025 remap
Changing box ...
  orthogonal box = (0.17000766 0.18022379 0.18022379) to (8.3633439 8.3531277 8.3531277)
  orthogonal box = (0.17000766 0.17000766 0.18022379) to (8.3633439 8.3633439 8.3531277)
  orthogonal box = (0.17000766 0.17000766 0.17000766) to (8.3633439 8.3633439 8.3633439)

run 1
WARNING: No fixes with time integration, atoms won't move (src/verlet.cpp:60)
Per MPI rank memory allocation (min/avg/max) = 8.554 | 8.556 | 8.558 Mbytes
   Step         PotEng         TotEng           Lx             Ly             Lz           Volume         Press           Pxx            Pyy            Pzz      
       159  -413.12215     -413.12215      8.1933362      8.1933362      8.1933362      550.02487      244855.69      244855.69      244855.69      244855.69    
       160  -413.12215     -413.12215      8.1933362      8.1933362      8.1933362      550.02487      244855.69      244855.69      244855.69      244855.69    
Loop time of 0.000343375 on 8 procs for 1 steps with 56 atoms

Performance: 251.620 ns/day, 0.095 hours/ns, 2912.268 timesteps/s, 163.087 katom-step/s
0.0% CPU use with 8 MPI tasks x 1 OpenMP threads

MPI task timing breakdown:
Section |  min time  |  avg time  |  max time  |%varavg| %total
---------------------------------------------------------------
Pair    | 0.000247   | 0.0002565  | 0.000283   |   0.0 | 74.70
Neigh   | 0          | 0          | 0          |   0.0 |  0.00
Comm    | 2.4e-05    | 4.925e-05  | 5.9e-05    |   0.0 | 14.34
Output  | 1.8e-05    | 2.15e-05   | 2.9e-05    |   0.0 |  6.26
Modify  | 0          | 2.5e-07    | 1e-06      |   0.0 |  0.07
Other   |            | 1.587e-05  |            |       |  4.62

Nlocal:              7 ave           9 max           5 min
Histogram: 4 0 0 0 0 0 0 0 0 4
Nghost:          422.5 ave         424 max         421 min
Histogram: 4 0 0 0 0 0 0 0 0 4
Neighs:            306 ave         395 max         214 min
Histogram: 4 0 0 0 0 0 0 0 0 4
FullNghs:          612 ave         788 max         436 min
Histogram: 4 0 0 0 0 0 0 0 0 4

Total # of neighbors = 4896
Ave neighs/atom = 87.428571
Neighbor list builds = 0
Dangerous builds = 0
variable  natoms equal "count(all)"
variable xlength equal "lx"
variable  volume equal "vol"
variable  etotal equal "etotal"
variable    ecoh equal "pe/v_natoms"
print "${xlength}, ${volume}, ${etotal}, ${ecoh}" append lattice_cohesive_energy.txt screen no

next i
jump SELF loop

change_box all x scale 1.0025 y scale 1.0025 z scale 1.0025 remap
Changing box ...
  orthogonal box = (0.15976599 0.17000766 0.17000766) to (8.3735856 8.3633439 8.3633439)
  orthogonal box = (0.15976599 0.15976599 0.17000766) to (8.3735856 8.3735856 8.3633439)
  orthogonal box = (0.15976599 0.15976599 0.15976599) to (8.3735856 8.3735856 8.3735856)

run 1
WARNING: No fixes with time integration, atoms won't move (src/verlet.cpp:60)
Per MPI rank memory allocation (min/avg/max) = 8.554 | 8.556 | 8.558 Mbytes
   Step         PotEng         TotEng           Lx             Ly             Lz           Volume         Press           Pxx            Pyy            Pzz      
       160  -413.73359     -413.73359      8.2138196      8.2138196      8.2138196      554.16038      228986.49      228986.49      228986.49      228986.49    
       161  -413.73359     -413.73359      8.2138196      8.2138196      8.2138196      554.16038      228986.49      228986.49      228986.49      228986.49    
Loop time of 0.000250625 on 8 procs for 1 steps with 56 atoms

Performance: 344.738 ns/day, 0.070 hours/ns, 3990.025 timesteps/s, 223.441 katom-step/s
0.0% CPU use with 8 MPI tasks x 1 OpenMP threads

MPI task timing breakdown:
Section |  min time  |  avg time  |  max time  |%varavg| %total
---------------------------------------------------------------
Pair    | 0.000166   | 0.000177   | 0.000202   |   0.0 | 70.62
Neigh   | 0          | 0          | 0          |   0.0 |  0.00
Comm    | 1.9e-05    | 4.5375e-05 | 5.7e-05    |   0.0 | 18.10
Output  | 1.5e-05    | 1.7875e-05 | 2e-05      |   0.0 |  7.13
Modify  | 0          | 6.25e-07   | 2e-06      |   0.0 |  0.25
Other   |            | 9.75e-06   |            |       |  3.89

Nlocal:              7 ave           9 max           5 min
Histogram: 4 0 0 0 0 0 0 0 0 4
Nghost:          422.5 ave         424 max         421 min
Histogram: 4 0 0 0 0 0 0 0 0 4
Neighs:            306 ave         395 max         214 min
Histogram: 4 0 0 0 0 0 0 0 0 4
FullNghs:          612 ave         788 max         436 min
Histogram: 4 0 0 0 0 0 0 0 0 4

Total # of neighbors = 4896
Ave neighs/atom = 87.428571
Neighbor list builds = 0
Dangerous builds = 0
variable  natoms equal "count(all)"
variable xlength equal "lx"
variable  volume equal "vol"
variable  etotal equal "etotal"
variable    ecoh equal "pe/v_natoms"
print "${xlength}, ${volume}, ${etotal}, ${ecoh}" append lattice_cohesive_energy.txt screen no

next i
jump SELF loop

change_box all x scale 1.0025 y scale 1.0025 z scale 1.0025 remap
Changing box ...
  orthogonal box = (0.14949872 0.15976599 0.15976599) to (8.3838528 8.3735856 8.3735856)
  orthogonal box = (0.14949872 0.14949872 0.15976599) to (8.3838528 8.3838528 8.3735856)
  orthogonal box = (0.14949872 0.14949872 0.14949872) to (8.3838528 8.3838528 8.3838528)

run 1
WARNING: No fixes with time integration, atoms won't move (src/verlet.cpp:60)
Per MPI rank memory allocation (min/avg/max) = 8.554 | 8.556 | 8.558 Mbytes
   Step         PotEng         TotEng           Lx             Ly             Lz           Volume         Press           Pxx            Pyy            Pzz      
       161  -414.3088      -414.3088       8.2343541      8.2343541      8.2343541      558.32698      213464.75      213464.75      213464.75      213464.75    
       162  -414.3088      -414.3088       8.2343541      8.2343541      8.2343541      558.32698      213464.75      213464.75      213464.75      213464.75    
Loop time of 0.000243125 on 8 procs for 1 steps with 56 atoms

Performance: 355.373 ns/day, 0.068 hours/ns, 4113.111 timesteps/s, 230.334 katom-step/s
0.0% CPU use with 8 MPI tasks x 1 OpenMP threads

MPI task timing breakdown:
Section |  min time  |  avg time  |  max time  |%varavg| %total
---------------------------------------------------------------
Pair    | 0.00016    | 0.00017312 | 0.0002     |   0.0 | 71.21
Neigh   | 0          | 0          | 0          |   0.0 |  0.00
Comm    | 1.9e-05    | 4.525e-05  | 5.8e-05    |   0.0 | 18.61
Output  | 1.5e-05    | 1.65e-05   | 1.9e-05    |   0.0 |  6.79
Modify  | 0          | 0          | 0          |   0.0 |  0.00
Other   |            | 8.25e-06   |            |       |  3.39

Nlocal:              7 ave           9 max           5 min
Histogram: 4 0 0 0 0 0 0 0 0 4
Nghost:          422.5 ave         424 max         421 min
Histogram: 4 0 0 0 0 0 0 0 0 4
Neighs:            306 ave         395 max         214 min
Histogram: 4 0 0 0 0 0 0 0 0 4
FullNghs:          612 ave         788 max         436 min
Histogram: 4 0 0 0 0 0 0 0 0 4

Total # of neighbors = 4896
Ave neighs/atom = 87.428571
Neighbor list builds = 0
Dangerous builds = 0
variable  natoms equal "count(all)"
variable xlength equal "lx"
variable  volume equal "vol"
variable  etotal equal "etotal"
variable    ecoh equal "pe/v_natoms"
print "${xlength}, ${volume}, ${etotal}, ${ecoh}" append lattice_cohesive_energy.txt screen no

next i
jump SELF loop

change_box all x scale 1.0025 y scale 1.0025 z scale 1.0025 remap
Changing box ...
  orthogonal box = (0.13920577 0.14949872 0.14949872) to (8.3941458 8.3838528 8.3838528)
  orthogonal box = (0.13920577 0.13920577 0.14949872) to (8.3941458 8.3941458 8.3838528)
  orthogonal box = (0.13920577 0.13920577 0.13920577) to (8.3941458 8.3941458 8.3941458)

run 1
WARNING: No fixes with time integration, atoms won't move (src/verlet.cpp:60)
Per MPI rank memory allocation (min/avg/max) = 8.554 | 8.556 | 8.558 Mbytes
   Step         PotEng         TotEng           Lx             Ly             Lz           Volume         Press           Pxx            Pyy            Pzz      
       162  -414.84812     -414.84812      8.25494        8.25494        8.25494        562.52491      198285.04      198285.04      198285.04      198285.04    
       163  -414.84812     -414.84812      8.25494        8.25494        8.25494        562.52491      198285.04      198285.04      198285.04      198285.04    
Loop time of 0.000241875 on 8 procs for 1 steps with 56 atoms

Performance: 357.209 ns/day, 0.067 hours/ns, 4134.367 timesteps/s, 231.525 katom-step/s
0.0% CPU use with 8 MPI tasks x 1 OpenMP threads

MPI task timing breakdown:
Section |  min time  |  avg time  |  max time  |%varavg| %total
---------------------------------------------------------------
Pair    | 0.00016    | 0.00017163 | 0.000197   |   0.0 | 70.96
Neigh   | 0          | 0          | 0          |   0.0 |  0.00
Comm    | 1.9e-05    | 4.5375e-05 | 5.7e-05    |   0.0 | 18.76
Output  | 1.5e-05    | 1.65e-05   | 1.8e-05    |   0.0 |  6.82
Modify  | 0          | 5e-07      | 2e-06      |   0.0 |  0.21
Other   |            | 7.875e-06  |            |       |  3.26

Nlocal:              7 ave           9 max           5 min
Histogram: 4 0 0 0 0 0 0 0 0 4
Nghost:          422.5 ave         424 max         421 min
Histogram: 4 0 0 0 0 0 0 0 0 4
Neighs:            306 ave         395 max         214 min
Histogram: 4 0 0 0 0 0 0 0 0 4
FullNghs:          612 ave         788 max         436 min
Histogram: 4 0 0 0 0 0 0 0 0 4

Total # of neighbors = 4896
Ave neighs/atom = 87.428571
Neighbor list builds = 0
Dangerous builds = 0
variable  natoms equal "count(all)"
variable xlength equal "lx"
variable  volume equal "vol"
variable  etotal equal "etotal"
variable    ecoh equal "pe/v_natoms"
print "${xlength}, ${volume}, ${etotal}, ${ecoh}" append lattice_cohesive_energy.txt screen no

next i
jump SELF loop

change_box all x scale 1.0025 y scale 1.0025 z scale 1.0025 remap
Changing box ...
  orthogonal box = (0.1288871 0.13920577 0.13920577) to (8.4044644 8.3941458 8.3941458)
  orthogonal box = (0.1288871 0.1288871 0.13920577) to (8.4044644 8.4044644 8.3941458)
  orthogonal box = (0.1288871 0.1288871 0.1288871) to (8.4044644 8.4044644 8.4044644)

run 1
WARNING: No fixes with time integration, atoms won't move (src/verlet.cpp:60)
Per MPI rank memory allocation (min/avg/max) = 8.554 | 8.556 | 8.558 Mbytes
   Step         PotEng         TotEng           Lx             Ly             Lz           Volume         Press           Pxx            Pyy            Pzz      
       163  -415.35188     -415.35188      8.2755773      8.2755773      8.2755773      566.75441      183441.99      183441.99      183441.99      183441.99    
       164  -415.35188     -415.35188      8.2755773      8.2755773      8.2755773      566.75441      183441.99      183441.99      183441.99      183441.99    
Loop time of 0.000255125 on 8 procs for 1 steps with 56 atoms

Performance: 338.658 ns/day, 0.071 hours/ns, 3919.647 timesteps/s, 219.500 katom-step/s
0.0% CPU use with 8 MPI tasks x 1 OpenMP threads

MPI task timing breakdown:
Section |  min time  |  avg time  |  max time  |%varavg| %total
---------------------------------------------------------------
Pair    | 0.00017    | 0.00018175 | 0.000207   |   0.0 | 71.24
Neigh   | 0          | 0          | 0          |   0.0 |  0.00
Comm    | 1.8e-05    | 4.3875e-05 | 5.6e-05    |   0.0 | 17.20
Output  | 1.6e-05    | 1.7125e-05 | 1.9e-05    |   0.0 |  6.71
Modify  | 0          | 0          | 0          |   0.0 |  0.00
Other   |            | 1.238e-05  |            |       |  4.85

Nlocal:              7 ave           9 max           5 min
Histogram: 4 0 0 0 0 0 0 0 0 4
Nghost:          422.5 ave         424 max         421 min
Histogram: 4 0 0 0 0 0 0 0 0 4
Neighs:            306 ave         395 max         214 min
Histogram: 4 0 0 0 0 0 0 0 0 4
FullNghs:          612 ave         788 max         436 min
Histogram: 4 0 0 0 0 0 0 0 0 4

Total # of neighbors = 4896
Ave neighs/atom = 87.428571
Neighbor list builds = 0
Dangerous builds = 0
variable  natoms equal "count(all)"
variable xlength equal "lx"
variable  volume equal "vol"
variable  etotal equal "etotal"
variable    ecoh equal "pe/v_natoms"
print "${xlength}, ${volume}, ${etotal}, ${ecoh}" append lattice_cohesive_energy.txt screen no

next i
jump SELF loop

change_box all x scale 1.0025 y scale 1.0025 z scale 1.0025 remap
Changing box ...
  orthogonal box = (0.11854263 0.1288871 0.1288871) to (8.4148089 8.4044644 8.4044644)
  orthogonal box = (0.11854263 0.11854263 0.1288871) to (8.4148089 8.4148089 8.4044644)
  orthogonal box = (0.11854263 0.11854263 0.11854263) to (8.4148089 8.4148089 8.4148089)

run 1
WARNING: No fixes with time integration, atoms won't move (src/verlet.cpp:60)
Per MPI rank memory allocation (min/avg/max) = 8.554 | 8.556 | 8.558 Mbytes
   Step         PotEng         TotEng           Lx             Ly             Lz           Volume         Press           Pxx            Pyy            Pzz      
       164  -415.82038     -415.82038      8.2962663      8.2962663      8.2962663      571.0157       168930.31      168930.31      168930.31      168930.31    
       165  -415.82038     -415.82038      8.2962663      8.2962663      8.2962663      571.0157       168930.31      168930.31      168930.31      168930.31    
Loop time of 0.00028275 on 8 procs for 1 steps with 56 atoms

Performance: 305.570 ns/day, 0.079 hours/ns, 3536.693 timesteps/s, 198.055 katom-step/s
0.0% CPU use with 8 MPI tasks x 1 OpenMP threads

MPI task timing breakdown:
Section |  min time  |  avg time  |  max time  |%varavg| %total
---------------------------------------------------------------
Pair    | 0.000199   | 0.00021275 | 0.000232   |   0.0 | 75.24
Neigh   | 0          | 0          | 0          |   0.0 |  0.00
Comm    | 2.2e-05    | 4.05e-05   | 5.5e-05    |   0.0 | 14.32
Output  | 1.7e-05    | 1.875e-05  | 2e-05      |   0.0 |  6.63
Modify  | 0          | 2.5e-07    | 1e-06      |   0.0 |  0.09
Other   |            | 1.05e-05   |            |       |  3.71

Nlocal:              7 ave           9 max           5 min
Histogram: 4 0 0 0 0 0 0 0 0 4
Nghost:          422.5 ave         424 max         421 min
Histogram: 4 0 0 0 0 0 0 0 0 4
Neighs:            306 ave         395 max         214 min
Histogram: 4 0 0 0 0 0 0 0 0 4
FullNghs:          612 ave         788 max         436 min
Histogram: 4 0 0 0 0 0 0 0 0 4

Total # of neighbors = 4896
Ave neighs/atom = 87.428571
Neighbor list builds = 0
Dangerous builds = 0
variable  natoms equal "count(all)"
variable xlength equal "lx"
variable  volume equal "vol"
variable  etotal equal "etotal"
variable    ecoh equal "pe/v_natoms"
print "${xlength}, ${volume}, ${etotal}, ${ecoh}" append lattice_cohesive_energy.txt screen no

next i
jump SELF loop

change_box all x scale 1.0025 y scale 1.0025 z scale 1.0025 remap
Changing box ...
  orthogonal box = (0.10817229 0.11854263 0.11854263) to (8.4251792 8.4148089 8.4148089)
  orthogonal box = (0.10817229 0.10817229 0.11854263) to (8.4251792 8.4251792 8.4148089)
  orthogonal box = (0.10817229 0.10817229 0.10817229) to (8.4251792 8.4251792 8.4251792)

run 1
WARNING: No fixes with time integration, atoms won't move (src/verlet.cpp:60)
Per MPI rank memory allocation (min/avg/max) = 8.554 | 8.556 | 8.558 Mbytes
   Step         PotEng         TotEng           Lx             Ly             Lz           Volume         Press           Pxx            Pyy            Pzz      
       165  -416.25396     -416.25396      8.317007       8.317007       8.317007       575.30903      154744.76      154744.76      154744.76      154744.76    
       166  -416.25396     -416.25396      8.317007       8.317007       8.317007       575.30903      154744.76      154744.76      154744.76      154744.76    
Loop time of 0.000226 on 8 procs for 1 steps with 56 atoms

Performance: 382.301 ns/day, 0.063 hours/ns, 4424.779 timesteps/s, 247.788 katom-step/s
0.0% CPU use with 8 MPI tasks x 1 OpenMP threads

MPI task timing breakdown:
Section |  min time  |  avg time  |  max time  |%varavg| %total
---------------------------------------------------------------
Pair    | 0.00015    | 0.00016225 | 0.000179   |   0.0 | 71.79
Neigh   | 0          | 0          | 0          |   0.0 |  0.00
Comm    | 2.1e-05    | 3.75e-05   | 5e-05      |   0.0 | 16.59
Output  | 1.6e-05    | 1.775e-05  | 2e-05      |   0.0 |  7.85
Modify  | 0          | 2.5e-07    | 1e-06      |   0.0 |  0.11
Other   |            | 8.25e-06   |            |       |  3.65

Nlocal:              7 ave           9 max           5 min
Histogram: 4 0 0 0 0 0 0 0 0 4
Nghost:          422.5 ave         424 max         421 min
Histogram: 4 0 0 0 0 0 0 0 0 4
Neighs:            306 ave         395 max         214 min
Histogram: 4 0 0 0 0 0 0 0 0 4
FullNghs:          612 ave         788 max         436 min
Histogram: 4 0 0 0 0 0 0 0 0 4

Total # of neighbors = 4896
Ave neighs/atom = 87.428571
Neighbor list builds = 0
Dangerous builds = 0
variable  natoms equal "count(all)"
variable xlength equal "lx"
variable  volume equal "vol"
variable  etotal equal "etotal"
variable    ecoh equal "pe/v_natoms"
print "${xlength}, ${volume}, ${etotal}, ${ecoh}" append lattice_cohesive_energy.txt screen no

next i
jump SELF loop

change_box all x scale 1.0025 y scale 1.0025 z scale 1.0025 remap
Changing box ...
  orthogonal box = (0.097776035 0.10817229 0.10817229) to (8.4355755 8.4251792 8.4251792)
  orthogonal box = (0.097776035 0.097776035 0.10817229) to (8.4355755 8.4355755 8.4251792)
  orthogonal box = (0.097776035 0.097776035 0.097776035) to (8.4355755 8.4355755 8.4355755)

run 1
WARNING: No fixes with time integration, atoms won't move (src/verlet.cpp:60)
Per MPI rank memory allocation (min/avg/max) = 8.554 | 8.556 | 8.558 Mbytes
   Step         PotEng         TotEng           Lx             Ly             Lz           Volume         Press           Pxx            Pyy            Pzz      
       166  -416.65293     -416.65293      8.3377995      8.3377995      8.3377995      579.63465      140880.18      140880.18      140880.18      140880.18    
       167  -416.65293     -416.65293      8.3377995      8.3377995      8.3377995      579.63465      140880.18      140880.18      140880.18      140880.18    
Loop time of 0.000230875 on 8 procs for 1 steps with 56 atoms

Performance: 374.228 ns/day, 0.064 hours/ns, 4331.348 timesteps/s, 242.555 katom-step/s
0.0% CPU use with 8 MPI tasks x 1 OpenMP threads

MPI task timing breakdown:
Section |  min time  |  avg time  |  max time  |%varavg| %total
---------------------------------------------------------------
Pair    | 0.000155   | 0.0001665  | 0.000185   |   0.0 | 72.12
Neigh   | 0          | 0          | 0          |   0.0 |  0.00
Comm    | 2.1e-05    | 3.95e-05   | 5.1e-05    |   0.0 | 17.11
Output  | 1.6e-05    | 1.75e-05   | 2e-05      |   0.0 |  7.58
Modify  | 0          | 3.75e-07   | 1e-06      |   0.0 |  0.16
Other   |            | 7e-06      |            |       |  3.03

Nlocal:              7 ave           9 max           5 min
Histogram: 4 0 0 0 0 0 0 0 0 4
Nghost:          422.5 ave         424 max         421 min
Histogram: 4 0 0 0 0 0 0 0 0 4
Neighs:            306 ave         395 max         214 min
Histogram: 4 0 0 0 0 0 0 0 0 4
FullNghs:          612 ave         788 max         436 min
Histogram: 4 0 0 0 0 0 0 0 0 4

Total # of neighbors = 4896
Ave neighs/atom = 87.428571
Neighbor list builds = 0
Dangerous builds = 0
variable  natoms equal "count(all)"
variable xlength equal "lx"
variable  volume equal "vol"
variable  etotal equal "etotal"
variable    ecoh equal "pe/v_natoms"
print "${xlength}, ${volume}, ${etotal}, ${ecoh}" append lattice_cohesive_energy.txt screen no

next i
jump SELF loop

change_box all x scale 1.0025 y scale 1.0025 z scale 1.0025 remap
Changing box ...
  orthogonal box = (0.087353785 0.097776035 0.097776035) to (8.4459978 8.4355755 8.4355755)
  orthogonal box = (0.087353785 0.087353785 0.097776035) to (8.4459978 8.4459978 8.4355755)
  orthogonal box = (0.087353785 0.087353785 0.087353785) to (8.4459978 8.4459978 8.4459978)

run 1
WARNING: No fixes with time integration, atoms won't move (src/verlet.cpp:60)
Per MPI rank memory allocation (min/avg/max) = 8.554 | 8.556 | 8.558 Mbytes
   Step         PotEng         TotEng           Lx             Ly             Lz           Volume         Press           Pxx            Pyy            Pzz      
       167  -417.01762     -417.01762      8.358644       8.358644       8.358644       583.99278      127331.47      127331.47      127331.47      127331.47    
       168  -417.01762     -417.01762      8.358644       8.358644       8.358644       583.99278      127331.47      127331.47      127331.47      127331.47    
Loop time of 0.000226625 on 8 procs for 1 steps with 56 atoms

Performance: 381.247 ns/day, 0.063 hours/ns, 4412.576 timesteps/s, 247.104 katom-step/s
0.0% CPU use with 8 MPI tasks x 1 OpenMP threads

MPI task timing breakdown:
Section |  min time  |  avg time  |  max time  |%varavg| %total
---------------------------------------------------------------
Pair    | 0.000149   | 0.00016262 | 0.00018    |   0.0 | 71.76
Neigh   | 0          | 0          | 0          |   0.0 |  0.00
Comm    | 2.1e-05    | 3.85e-05   | 5.2e-05    |   0.0 | 16.99
Output  | 1.7e-05    | 1.7875e-05 | 2.1e-05    |   0.0 |  7.89
Modify  | 0          | 0          | 0          |   0.0 |  0.00
Other   |            | 7.625e-06  |            |       |  3.36

Nlocal:              7 ave           9 max           5 min
Histogram: 4 0 0 0 0 0 0 0 0 4
Nghost:          422.5 ave         424 max         421 min
Histogram: 4 0 0 0 0 0 0 0 0 4
Neighs:            306 ave         395 max         214 min
Histogram: 4 0 0 0 0 0 0 0 0 4
FullNghs:          612 ave         788 max         436 min
Histogram: 4 0 0 0 0 0 0 0 0 4

Total # of neighbors = 4896
Ave neighs/atom = 87.428571
Neighbor list builds = 0
Dangerous builds = 0
variable  natoms equal "count(all)"
variable xlength equal "lx"
variable  volume equal "vol"
variable  etotal equal "etotal"
variable    ecoh equal "pe/v_natoms"
print "${xlength}, ${volume}, ${etotal}, ${ecoh}" append lattice_cohesive_energy.txt screen no

next i
jump SELF loop

change_box all x scale 1.0025 y scale 1.0025 z scale 1.0025 remap
Changing box ...
  orthogonal box = (0.07690548 0.087353785 0.087353785) to (8.4564461 8.4459978 8.4459978)
  orthogonal box = (0.07690548 0.07690548 0.087353785) to (8.4564461 8.4564461 8.4459978)
  orthogonal box = (0.07690548 0.07690548 0.07690548) to (8.4564461 8.4564461 8.4564461)

run 1
WARNING: No fixes with time integration, atoms won't move (src/verlet.cpp:60)
Per MPI rank memory allocation (min/avg/max) = 8.554 | 8.556 | 8.558 Mbytes
   Step         PotEng         TotEng           Lx             Ly             Lz           Volume         Press           Pxx            Pyy            Pzz      
       168  -417.34835     -417.34835      8.3795406      8.3795406      8.3795406      588.38369      114093.59      114093.59      114093.59      114093.59    
       169  -417.34835     -417.34835      8.3795406      8.3795406      8.3795406      588.38369      114093.59      114093.59      114093.59      114093.59    
Loop time of 0.000183125 on 8 procs for 1 steps with 56 atoms

Performance: 471.809 ns/day, 0.051 hours/ns, 5460.751 timesteps/s, 305.802 katom-step/s
0.0% CPU use with 8 MPI tasks x 1 OpenMP threads

MPI task timing breakdown:
Section |  min time  |  avg time  |  max time  |%varavg| %total
---------------------------------------------------------------
Pair    | 0.000133   | 0.000138   | 0.000146   |   0.0 | 75.36
Neigh   | 0          | 0          | 0          |   0.0 |  0.00
Comm    | 1.6e-05    | 2.325e-05  | 2.8e-05    |   0.0 | 12.70
Output  | 1.4e-05    | 1.525e-05  | 1.7e-05    |   0.0 |  8.33
Modify  | 0          | 0          | 0          |   0.0 |  0.00
Other   |            | 6.625e-06  |            |       |  3.62

Nlocal:              7 ave           9 max           5 min
Histogram: 4 0 0 0 0 0 0 0 0 4
Nghost:          422.5 ave         424 max         421 min
Histogram: 4 0 0 0 0 0 0 0 0 4
Neighs:            306 ave         395 max         214 min
Histogram: 4 0 0 0 0 0 0 0 0 4
FullNghs:          612 ave         788 max         436 min
Histogram: 4 0 0 0 0 0 0 0 0 4

Total # of neighbors = 4896
Ave neighs/atom = 87.428571
Neighbor list builds = 0
Dangerous builds = 0
variable  natoms equal "count(all)"
variable xlength equal "lx"
variable  volume equal "vol"
variable  etotal equal "etotal"
variable    ecoh equal "pe/v_natoms"
print "${xlength}, ${volume}, ${etotal}, ${ecoh}" append lattice_cohesive_energy.txt screen no

next i
jump SELF loop

change_box all x scale 1.0025 y scale 1.0025 z scale 1.0025 remap
Changing box ...
  orthogonal box = (0.066431055 0.07690548 0.07690548) to (8.4669205 8.4564461 8.4564461)
  orthogonal box = (0.066431055 0.066431055 0.07690548) to (8.4669205 8.4669205 8.4564461)
  orthogonal box = (0.066431055 0.066431055 0.066431055) to (8.4669205 8.4669205 8.4669205)

run 1
WARNING: No fixes with time integration, atoms won't move (src/verlet.cpp:60)
Per MPI rank memory allocation (min/avg/max) = 8.554 | 8.556 | 8.558 Mbytes
   Step         PotEng         TotEng           Lx             Ly             Lz           Volume         Press           Pxx            Pyy            Pzz      
       169  -417.64544     -417.64544      8.4004894      8.4004894      8.4004894      592.80761      101161.57      101161.57      101161.57      101161.57    
       170  -417.64544     -417.64544      8.4004894      8.4004894      8.4004894      592.80761      101161.57      101161.57      101161.57      101161.57    
Loop time of 0.00018475 on 8 procs for 1 steps with 56 atoms

Performance: 467.659 ns/day, 0.051 hours/ns, 5412.720 timesteps/s, 303.112 katom-step/s
0.0% CPU use with 8 MPI tasks x 1 OpenMP threads

MPI task timing breakdown:
Section |  min time  |  avg time  |  max time  |%varavg| %total
---------------------------------------------------------------
Pair    | 0.000133   | 0.00013788 | 0.000147   |   0.0 | 74.63
Neigh   | 0          | 0          | 0          |   0.0 |  0.00
Comm    | 1.6e-05    | 2.4625e-05 | 2.9e-05    |   0.0 | 13.33
Output  | 1.4e-05    | 1.5e-05    | 1.7e-05    |   0.0 |  8.12
Modify  | 0          | 1.25e-07   | 1e-06      |   0.0 |  0.07
Other   |            | 7.125e-06  |            |       |  3.86

Nlocal:              7 ave           9 max           5 min
Histogram: 4 0 0 0 0 0 0 0 0 4
Nghost:          422.5 ave         424 max         421 min
Histogram: 4 0 0 0 0 0 0 0 0 4
Neighs:            306 ave         395 max         215 min
Histogram: 4 0 0 0 0 0 0 0 0 4
FullNghs:          612 ave         788 max         436 min
Histogram: 4 0 0 0 0 0 0 0 0 4

Total # of neighbors = 4896
Ave neighs/atom = 87.428571
Neighbor list builds = 0
Dangerous builds = 0
variable  natoms equal "count(all)"
variable xlength equal "lx"
variable  volume equal "vol"
variable  etotal equal "etotal"
variable    ecoh equal "pe/v_natoms"
print "${xlength}, ${volume}, ${etotal}, ${ecoh}" append lattice_cohesive_energy.txt screen no

next i
jump SELF loop

change_box all x scale 1.0025 y scale 1.0025 z scale 1.0025 remap
Changing box ...
  orthogonal box = (0.055930443 0.066431055 0.066431055) to (8.4774211 8.4669205 8.4669205)
  orthogonal box = (0.055930443 0.055930443 0.066431055) to (8.4774211 8.4774211 8.4669205)
  orthogonal box = (0.055930443 0.055930443 0.055930443) to (8.4774211 8.4774211 8.4774211)

run 1
WARNING: No fixes with time integration, atoms won't move (src/verlet.cpp:60)
Per MPI rank memory allocation (min/avg/max) = 8.554 | 8.556 | 8.558 Mbytes
   Step         PotEng         TotEng           Lx             Ly             Lz           Volume         Press           Pxx            Pyy            Pzz      
       170  -417.90921     -417.90921      8.4214907      8.4214907      8.4214907      597.26479      88530.495      88530.495      88530.495      88530.495    
       171  -417.90921     -417.90921      8.4214907      8.4214907      8.4214907      597.26479      88530.495      88530.495      88530.495      88530.495    
Loop time of 0.000185875 on 8 procs for 1 steps with 56 atoms

Performance: 464.829 ns/day, 0.052 hours/ns, 5379.960 timesteps/s, 301.278 katom-step/s
0.0% CPU use with 8 MPI tasks x 1 OpenMP threads

MPI task timing breakdown:
Section |  min time  |  avg time  |  max time  |%varavg| %total
---------------------------------------------------------------
Pair    | 0.000135   | 0.00013963 | 0.000148   |   0.0 | 75.12
Neigh   | 0          | 0          | 0          |   0.0 |  0.00
Comm    | 1.7e-05    | 2.4625e-05 | 2.8e-05    |   0.0 | 13.25
Output  | 1.4e-05    | 1.5e-05    | 1.7e-05    |   0.0 |  8.07
Modify  | 0          | 2.5e-07    | 1e-06      |   0.0 |  0.13
Other   |            | 6.375e-06  |            |       |  3.43

Nlocal:              7 ave           9 max           5 min
Histogram: 4 0 0 0 0 0 0 0 0 4
Nghost:          422.5 ave         424 max         421 min
Histogram: 4 0 0 0 0 0 0 0 0 4
Neighs:            306 ave         397 max         215 min
Histogram: 4 0 0 0 0 0 0 0 0 4
FullNghs:          612 ave         788 max         436 min
Histogram: 4 0 0 0 0 0 0 0 0 4

Total # of neighbors = 4896
Ave neighs/atom = 87.428571
Neighbor list builds = 0
Dangerous builds = 0
variable  natoms equal "count(all)"
variable xlength equal "lx"
variable  volume equal "vol"
variable  etotal equal "etotal"
variable    ecoh equal "pe/v_natoms"
print "${xlength}, ${volume}, ${etotal}, ${ecoh}" append lattice_cohesive_energy.txt screen no

next i
jump SELF loop

change_box all x scale 1.0025 y scale 1.0025 z scale 1.0025 remap
Changing box ...
  orthogonal box = (0.04540358 0.055930443 0.055930443) to (8.487948 8.4774211 8.4774211)
  orthogonal box = (0.04540358 0.04540358 0.055930443) to (8.487948 8.487948 8.4774211)
  orthogonal box = (0.04540358 0.04540358 0.04540358) to (8.487948 8.487948 8.487948)

run 1
WARNING: No fixes with time integration, atoms won't move (src/verlet.cpp:60)
Per MPI rank memory allocation (min/avg/max) = 8.554 | 8.556 | 8.558 Mbytes
   Step         PotEng         TotEng           Lx             Ly             Lz           Volume         Press           Pxx            Pyy            Pzz      
       171  -418.13997     -418.13997      8.4425444      8.4425444      8.4425444      601.75548      76195.53       76195.53       76195.53       76195.53     
       172  -418.13997     -418.13997      8.4425444      8.4425444      8.4425444      601.75548      76195.53       76195.53       76195.53       76195.53     
Loop time of 0.000184625 on 8 procs for 1 steps with 56 atoms

Performance: 467.976 ns/day, 0.051 hours/ns, 5416.385 timesteps/s, 303.318 katom-step/s
0.0% CPU use with 8 MPI tasks x 1 OpenMP threads

MPI task timing breakdown:
Section |  min time  |  avg time  |  max time  |%varavg| %total
---------------------------------------------------------------
Pair    | 0.000134   | 0.000138   | 0.000147   |   0.0 | 74.75
Neigh   | 0          | 0          | 0          |   0.0 |  0.00
Comm    | 1.6e-05    | 2.45e-05   | 2.8e-05    |   0.0 | 13.27
Output  | 1.4e-05    | 1.5125e-05 | 1.7e-05    |   0.0 |  8.19
Modify  | 0          | 2.5e-07    | 1e-06      |   0.0 |  0.14
Other   |            | 6.75e-06   |            |       |  3.66

Nlocal:              7 ave           9 max           5 min
Histogram: 4 0 0 0 0 0 0 0 0 4
Nghost:          422.5 ave         424 max         421 min
Histogram: 4 0 0 0 0 0 0 0 0 4
Neighs:            306 ave         397 max         215 min
Histogram: 4 0 0 0 0 0 0 0 0 4
FullNghs:          612 ave         788 max         436 min
Histogram: 4 0 0 0 0 0 0 0 0 4

Total # of neighbors = 4896
Ave neighs/atom = 87.428571
Neighbor list builds = 0
Dangerous builds = 0
variable  natoms equal "count(all)"
variable xlength equal "lx"
variable  volume equal "vol"
variable  etotal equal "etotal"
variable    ecoh equal "pe/v_natoms"
print "${xlength}, ${volume}, ${etotal}, ${ecoh}" append lattice_cohesive_energy.txt screen no

next i
jump SELF loop

change_box all x scale 1.0025 y scale 1.0025 z scale 1.0025 remap
Changing box ...
  orthogonal box = (0.034850399 0.04540358 0.04540358) to (8.4985011 8.487948 8.487948)
  orthogonal box = (0.034850399 0.034850399 0.04540358) to (8.4985011 8.4985011 8.487948)
  orthogonal box = (0.034850399 0.034850399 0.034850399) to (8.4985011 8.4985011 8.4985011)

run 1
WARNING: No fixes with time integration, atoms won't move (src/verlet.cpp:60)
Per MPI rank memory allocation (min/avg/max) = 8.554 | 8.556 | 8.558 Mbytes
   Step         PotEng         TotEng           Lx             Ly             Lz           Volume         Press           Pxx            Pyy            Pzz      
       172  -418.33805     -418.33805      8.4636507      8.4636507      8.4636507      606.27994      64151.881      64151.881      64151.881      64151.881    
       173  -418.33805     -418.33805      8.4636507      8.4636507      8.4636507      606.27994      64151.881      64151.881      64151.881      64151.881    
Loop time of 0.000183625 on 8 procs for 1 steps with 56 atoms

Performance: 470.524 ns/day, 0.051 hours/ns, 5445.882 timesteps/s, 304.969 katom-step/s
0.0% CPU use with 8 MPI tasks x 1 OpenMP threads

MPI task timing breakdown:
Section |  min time  |  avg time  |  max time  |%varavg| %total
---------------------------------------------------------------
Pair    | 0.000133   | 0.0001365  | 0.000144   |   0.0 | 74.34
Neigh   | 0          | 0          | 0          |   0.0 |  0.00
Comm    | 1.8e-05    | 2.45e-05   | 2.8e-05    |   0.0 | 13.34
Output  | 1.4e-05    | 1.4875e-05 | 1.8e-05    |   0.0 |  8.10
Modify  | 0          | 2.5e-07    | 1e-06      |   0.0 |  0.14
Other   |            | 7.5e-06    |            |       |  4.08

Nlocal:              7 ave           9 max           5 min
Histogram: 4 0 0 0 0 0 0 0 0 4
Nghost:          422.5 ave         424 max         421 min
Histogram: 4 0 0 0 0 0 0 0 0 4
Neighs:            306 ave         397 max         215 min
Histogram: 4 0 0 0 0 0 0 0 0 4
FullNghs:          612 ave         788 max         436 min
Histogram: 4 0 0 0 0 0 0 0 0 4

Total # of neighbors = 4896
Ave neighs/atom = 87.428571
Neighbor list builds = 0
Dangerous builds = 0
variable  natoms equal "count(all)"
variable xlength equal "lx"
variable  volume equal "vol"
variable  etotal equal "etotal"
variable    ecoh equal "pe/v_natoms"
print "${xlength}, ${volume}, ${etotal}, ${ecoh}" append lattice_cohesive_energy.txt screen no

next i
jump SELF loop

change_box all x scale 1.0025 y scale 1.0025 z scale 1.0025 remap
Changing box ...
  orthogonal box = (0.024270836 0.034850399 0.034850399) to (8.5090807 8.4985011 8.4985011)
  orthogonal box = (0.024270836 0.024270836 0.034850399) to (8.5090807 8.5090807 8.4985011)
  orthogonal box = (0.024270836 0.024270836 0.024270836) to (8.5090807 8.5090807 8.5090807)

run 1
WARNING: No fixes with time integration, atoms won't move (src/verlet.cpp:60)
Per MPI rank memory allocation (min/avg/max) = 8.554 | 8.556 | 8.558 Mbytes
   Step         PotEng         TotEng           Lx             Ly             Lz           Volume         Press           Pxx            Pyy            Pzz      
       173  -418.50376     -418.50376      8.4848099      8.4848099      8.4848099      610.83842      52394.823      52394.823      52394.823      52394.823    
       174  -418.50376     -418.50376      8.4848099      8.4848099      8.4848099      610.83842      52394.823      52394.823      52394.823      52394.823    
Loop time of 0.000179 on 8 procs for 1 steps with 56 atoms

Performance: 482.682 ns/day, 0.050 hours/ns, 5586.592 timesteps/s, 312.849 katom-step/s
0.0% CPU use with 8 MPI tasks x 1 OpenMP threads

MPI task timing breakdown:
Section |  min time  |  avg time  |  max time  |%varavg| %total
---------------------------------------------------------------
Pair    | 0.000129   | 0.00013312 | 0.000142   |   0.0 | 74.37
Neigh   | 0          | 0          | 0          |   0.0 |  0.00
Comm    | 1.6e-05    | 2.4625e-05 | 2.9e-05    |   0.0 | 13.76
Output  | 1.4e-05    | 1.5e-05    | 1.7e-05    |   0.0 |  8.38
Modify  | 0          | 0          | 0          |   0.0 |  0.00
Other   |            | 6.25e-06   |            |       |  3.49

Nlocal:              7 ave           9 max           5 min
Histogram: 4 0 0 0 0 0 0 0 0 4
Nghost:          422.5 ave         424 max         421 min
Histogram: 4 0 0 0 0 0 0 0 0 4
Neighs:            294 ave         382 max         209 min
Histogram: 4 0 0 0 0 0 0 0 0 4
FullNghs:          588 ave         752 max         424 min
Histogram: 4 0 0 0 0 0 0 0 0 4

Total # of neighbors = 4704
Ave neighs/atom = 84
Neighbor list builds = 0
Dangerous builds = 0
variable  natoms equal "count(all)"
variable xlength equal "lx"
variable  volume equal "vol"
variable  etotal equal "etotal"
variable    ecoh equal "pe/v_natoms"
print "${xlength}, ${volume}, ${etotal}, ${ecoh}" append lattice_cohesive_energy.txt screen no

next i
jump SELF loop

change_box all x scale 1.0025 y scale 1.0025 z scale 1.0025 remap
Changing box ...
  orthogonal box = (0.013664823 0.024270836 0.024270836) to (8.5196867 8.5090807 8.5090807)
  orthogonal box = (0.013664823 0.013664823 0.024270836) to (8.5196867 8.5196867 8.5090807)
  orthogonal box = (0.013664823 0.013664823 0.013664823) to (8.5196867 8.5196867 8.5196867)

run 1
WARNING: No fixes with time integration, atoms won't move (src/verlet.cpp:60)
Per MPI rank memory allocation (min/avg/max) = 8.554 | 8.556 | 8.558 Mbytes
   Step         PotEng         TotEng           Lx             Ly             Lz           Volume         Press           Pxx            Pyy            Pzz      
       174  -418.63742     -418.63742      8.5060219      8.5060219      8.5060219      615.43117      40919.693      40919.693      40919.693      40919.693    
       175  -418.63742     -418.63742      8.5060219      8.5060219      8.5060219      615.43117      40919.693      40919.693      40919.693      40919.693    
Loop time of 0.000181375 on 8 procs for 1 steps with 56 atoms

Performance: 476.361 ns/day, 0.050 hours/ns, 5513.439 timesteps/s, 308.753 katom-step/s
0.0% CPU use with 8 MPI tasks x 1 OpenMP threads

MPI task timing breakdown:
Section |  min time  |  avg time  |  max time  |%varavg| %total
---------------------------------------------------------------
Pair    | 0.000131   | 0.0001365  | 0.000143   |   0.0 | 75.26
Neigh   | 0          | 0          | 0          |   0.0 |  0.00
Comm    | 1.7e-05    | 2.325e-05  | 2.8e-05    |   0.0 | 12.82
Output  | 1.4e-05    | 1.4625e-05 | 1.7e-05    |   0.0 |  8.06
Modify  | 0          | 5e-07      | 1e-06      |   0.0 |  0.28
Other   |            | 6.5e-06    |            |       |  3.58

Nlocal:              7 ave           9 max           5 min
Histogram: 4 0 0 0 0 0 0 0 0 4
Nghost:          422.5 ave         424 max         421 min
Histogram: 4 0 0 0 0 0 0 0 0 4
Neighs:            252 ave         324 max         181 min
Histogram: 4 0 0 0 0 0 0 0 0 4
FullNghs:          504 ave         644 max         364 min
Histogram: 4 0 0 0 0 0 0 0 0 4

Total # of neighbors = 4032
Ave neighs/atom = 72
Neighbor list builds = 0
Dangerous builds = 0
variable  natoms equal "count(all)"
variable xlength equal "lx"
variable  volume equal "vol"
variable  etotal equal "etotal"
variable    ecoh equal "pe/v_natoms"
print "${xlength}, ${volume}, ${etotal}, ${ecoh}" append lattice_cohesive_energy.txt screen no

next i
jump SELF loop

change_box all x scale 1.0025 y scale 1.0025 z scale 1.0025 remap
Changing box ...
  orthogonal box = (0.0030322959 0.013664823 0.013664823) to (8.5303192 8.5196867 8.5196867)
  orthogonal box = (0.0030322959 0.0030322959 0.013664823) to (8.5303192 8.5303192 8.5196867)
  orthogonal box = (0.0030322959 0.0030322959 0.0030322959) to (8.5303192 8.5303192 8.5303192)

run 1
WARNING: No fixes with time integration, atoms won't move (src/verlet.cpp:60)
Per MPI rank memory allocation (min/avg/max) = 8.554 | 8.556 | 8.558 Mbytes
   Step         PotEng         TotEng           Lx             Ly             Lz           Volume         Press           Pxx            Pyy            Pzz      
       175  -418.73934     -418.73934      8.5272869      8.5272869      8.5272869      620.05845      29721.883      29721.883      29721.883      29721.883    
       176  -418.73934     -418.73934      8.5272869      8.5272869      8.5272869      620.05845      29721.883      29721.883      29721.883      29721.883    
Loop time of 0.000352875 on 8 procs for 1 steps with 56 atoms

Performance: 244.846 ns/day, 0.098 hours/ns, 2833.865 timesteps/s, 158.696 katom-step/s
0.0% CPU use with 8 MPI tasks x 1 OpenMP threads

MPI task timing breakdown:
Section |  min time  |  avg time  |  max time  |%varavg| %total
---------------------------------------------------------------
Pair    | 0.000174   | 0.00020612 | 0.000276   |   0.0 | 58.41
Neigh   | 0          | 0          | 0          |   0.0 |  0.00
Comm    | 4.8e-05    | 0.000117   | 0.000148   |   0.0 | 33.16
Output  | 1.8e-05    | 2.0125e-05 | 2.3e-05    |   0.0 |  5.70
Modify  | 0          | 2.5e-07    | 1e-06      |   0.0 |  0.07
Other   |            | 9.375e-06  |            |       |  2.66

Nlocal:              7 ave           9 max           5 min
Histogram: 4 0 0 0 0 0 0 0 0 4
Nghost:          422.5 ave         424 max         421 min
Histogram: 4 0 0 0 0 0 0 0 0 4
Neighs:            252 ave         324 max         181 min
Histogram: 4 0 0 0 0 0 0 0 0 4
FullNghs:          504 ave         644 max         364 min
Histogram: 4 0 0 0 0 0 0 0 0 4

Total # of neighbors = 4032
Ave neighs/atom = 72
Neighbor list builds = 0
Dangerous builds = 0
variable  natoms equal "count(all)"
variable xlength equal "lx"
variable  volume equal "vol"
variable  etotal equal "etotal"
variable    ecoh equal "pe/v_natoms"
print "${xlength}, ${volume}, ${etotal}, ${ecoh}" append lattice_cohesive_energy.txt screen no

next i
jump SELF loop

change_box all x scale 1.0025 y scale 1.0025 z scale 1.0025 remap
Changing box ...
  orthogonal box = (-0.0076268127 0.0030322959 0.0030322959) to (8.5409784 8.5303192 8.5303192)
  orthogonal box = (-0.0076268127 -0.0076268127 0.0030322959) to (8.5409784 8.5409784 8.5303192)
  orthogonal box = (-0.0076268127 -0.0076268127 -0.0076268127) to (8.5409784 8.5409784 8.5409784)

run 1
WARNING: No fixes with time integration, atoms won't move (src/verlet.cpp:60)
Per MPI rank memory allocation (min/avg/max) = 8.554 | 8.556 | 8.558 Mbytes
   Step         PotEng         TotEng           Lx             Ly             Lz           Volume         Press           Pxx            Pyy            Pzz      
       176  -418.80985     -418.80985      8.5486052      8.5486052      8.5486052      624.72053      18796.842      18796.842      18796.842      18796.842    
       177  -418.80985     -418.80985      8.5486052      8.5486052      8.5486052      624.72053      18796.842      18796.842      18796.842      18796.842    
Loop time of 0.000181125 on 8 procs for 1 steps with 56 atoms

Performance: 477.019 ns/day, 0.050 hours/ns, 5521.049 timesteps/s, 309.179 katom-step/s
0.0% CPU use with 8 MPI tasks x 1 OpenMP threads

MPI task timing breakdown:
Section |  min time  |  avg time  |  max time  |%varavg| %total
---------------------------------------------------------------
Pair    | 0.000131   | 0.00013513 | 0.000143   |   0.0 | 74.60
Neigh   | 0          | 0          | 0          |   0.0 |  0.00
Comm    | 1.6e-05    | 2.375e-05  | 2.8e-05    |   0.0 | 13.11
Output  | 1.4e-05    | 1.5375e-05 | 1.7e-05    |   0.0 |  8.49
Modify  | 0          | 0          | 0          |   0.0 |  0.00
Other   |            | 6.875e-06  |            |       |  3.80

Nlocal:              7 ave           9 max           5 min
Histogram: 4 0 0 0 0 0 0 0 0 4
Nghost:          422.5 ave         424 max         421 min
Histogram: 4 0 0 0 0 0 0 0 0 4
Neighs:            252 ave         324 max         181 min
Histogram: 4 0 0 0 0 0 0 0 0 4
FullNghs:          504 ave         644 max         364 min
Histogram: 4 0 0 0 0 0 0 0 0 4

Total # of neighbors = 4032
Ave neighs/atom = 72
Neighbor list builds = 0
Dangerous builds = 0
variable  natoms equal "count(all)"
variable xlength equal "lx"
variable  volume equal "vol"
variable  etotal equal "etotal"
variable    ecoh equal "pe/v_natoms"
print "${xlength}, ${volume}, ${etotal}, ${ecoh}" append lattice_cohesive_energy.txt screen no

next i
jump SELF loop

change_box all x scale 1.0025 y scale 1.0025 z scale 1.0025 remap
Changing box ...
  orthogonal box = (-0.018312569 -0.0076268127 -0.0076268127) to (8.5516641 8.5409784 8.5409784)
  orthogonal box = (-0.018312569 -0.018312569 -0.0076268127) to (8.5516641 8.5516641 8.5409784)
  orthogonal box = (-0.018312569 -0.018312569 -0.018312569) to (8.5516641 8.5516641 8.5516641)

run 1
WARNING: No fixes with time integration, atoms won't move (src/verlet.cpp:60)
Per MPI rank memory allocation (min/avg/max) = 8.554 | 8.556 | 8.558 Mbytes
   Step         PotEng         TotEng           Lx             Ly             Lz           Volume         Press           Pxx            Pyy            Pzz      
       177  -418.84925     -418.84925      8.5699767      8.5699767      8.5699767      629.41765      8140.0826      8140.0826      8140.0826      8140.0826    
       178  -418.84925     -418.84925      8.5699767      8.5699767      8.5699767      629.41765      8140.0826      8140.0826      8140.0826      8140.0826    
Loop time of 0.0001805 on 8 procs for 1 steps with 56 atoms

Performance: 478.670 ns/day, 0.050 hours/ns, 5540.166 timesteps/s, 310.249 katom-step/s
0.0% CPU use with 8 MPI tasks x 1 OpenMP threads

MPI task timing breakdown:
Section |  min time  |  avg time  |  max time  |%varavg| %total
---------------------------------------------------------------
Pair    | 0.000129   | 0.0001335  | 0.000142   |   0.0 | 73.96
Neigh   | 0          | 0          | 0          |   0.0 |  0.00
Comm    | 1.6e-05    | 2.475e-05  | 2.9e-05    |   0.0 | 13.71
Output  | 1.4e-05    | 1.525e-05  | 1.7e-05    |   0.0 |  8.45
Modify  | 0          | 1.25e-07   | 1e-06      |   0.0 |  0.07
Other   |            | 6.875e-06  |            |       |  3.81

Nlocal:              7 ave           9 max           5 min
Histogram: 4 0 0 0 0 0 0 0 0 4
Nghost:          422.5 ave         424 max         421 min
Histogram: 4 0 0 0 0 0 0 0 0 4
Neighs:            252 ave         324 max         181 min
Histogram: 4 0 0 0 0 0 0 0 0 4
FullNghs:          504 ave         644 max         364 min
Histogram: 4 0 0 0 0 0 0 0 0 4

Total # of neighbors = 4032
Ave neighs/atom = 72
Neighbor list builds = 0
Dangerous builds = 0
variable  natoms equal "count(all)"
variable xlength equal "lx"
variable  volume equal "vol"
variable  etotal equal "etotal"
variable    ecoh equal "pe/v_natoms"
print "${xlength}, ${volume}, ${etotal}, ${ecoh}" append lattice_cohesive_energy.txt screen no

next i
jump SELF loop

change_box all x scale 1.0025 y scale 1.0025 z scale 1.0025 remap
Changing box ...
  orthogonal box = (-0.02902504 -0.018312569 -0.018312569) to (8.5623766 8.5516641 8.5516641)
  orthogonal box = (-0.02902504 -0.02902504 -0.018312569) to (8.5623766 8.5623766 8.5516641)
  orthogonal box = (-0.02902504 -0.02902504 -0.02902504) to (8.5623766 8.5623766 8.5623766)

run 1
WARNING: No fixes with time integration, atoms won't move (src/verlet.cpp:60)
Per MPI rank memory allocation (min/avg/max) = 8.554 | 8.556 | 8.558 Mbytes
   Step         PotEng         TotEng           Lx             Ly             Lz           Volume         Press           Pxx            Pyy            Pzz      
       178  -418.85786     -418.85786      8.5914016      8.5914016      8.5914016      634.1501      -2252.8196     -2252.8196     -2252.8196     -2252.8196    
       179  -418.85786     -418.85786      8.5914016      8.5914016      8.5914016      634.1501      -2252.8196     -2252.8196     -2252.8196     -2252.8196    
Loop time of 0.000178375 on 8 procs for 1 steps with 56 atoms

Performance: 484.373 ns/day, 0.050 hours/ns, 5606.167 timesteps/s, 313.945 katom-step/s
0.0% CPU use with 8 MPI tasks x 1 OpenMP threads

MPI task timing breakdown:
Section |  min time  |  avg time  |  max time  |%varavg| %total
---------------------------------------------------------------
Pair    | 0.000127   | 0.0001315  | 0.00014    |   0.0 | 73.72
Neigh   | 0          | 0          | 0          |   0.0 |  0.00
Comm    | 1.6e-05    | 2.5125e-05 | 3e-05      |   0.0 | 14.09
Output  | 1.4e-05    | 1.4875e-05 | 1.7e-05    |   0.0 |  8.34
Modify  | 0          | 3.75e-07   | 1e-06      |   0.0 |  0.21
Other   |            | 6.5e-06    |            |       |  3.64

Nlocal:              7 ave           9 max           5 min
Histogram: 4 0 0 0 0 0 0 0 0 4
Nghost:          422.5 ave         424 max         421 min
Histogram: 4 0 0 0 0 0 0 0 0 4
Neighs:            252 ave         324 max         181 min
Histogram: 4 0 0 0 0 0 0 0 0 4
FullNghs:          504 ave         644 max         364 min
Histogram: 4 0 0 0 0 0 0 0 0 4

Total # of neighbors = 4032
Ave neighs/atom = 72
Neighbor list builds = 0
Dangerous builds = 0
variable  natoms equal "count(all)"
variable xlength equal "lx"
variable  volume equal "vol"
variable  etotal equal "etotal"
variable    ecoh equal "pe/v_natoms"
print "${xlength}, ${volume}, ${etotal}, ${ecoh}" append lattice_cohesive_energy.txt screen no

next i
jump SELF loop

change_box all x scale 1.0025 y scale 1.0025 z scale 1.0025 remap
Changing box ...
  orthogonal box = (-0.039764292 -0.02902504 -0.02902504) to (8.5731158 8.5623766 8.5623766)
  orthogonal box = (-0.039764292 -0.039764292 -0.02902504) to (8.5731158 8.5731158 8.5623766)
  orthogonal box = (-0.039764292 -0.039764292 -0.039764292) to (8.5731158 8.5731158 8.5731158)

run 1
WARNING: No fixes with time integration, atoms won't move (src/verlet.cpp:60)
Per MPI rank memory allocation (min/avg/max) = 8.554 | 8.556 | 8.558 Mbytes
   Step         PotEng         TotEng           Lx             Ly             Lz           Volume         Press           Pxx            Pyy            Pzz      
       179  -418.836       -418.836        8.6128801      8.6128801      8.6128801      638.91812     -12386.233     -12386.233     -12386.233     -12386.233    
       180  -418.836       -418.836        8.6128801      8.6128801      8.6128801      638.91812     -12386.233     -12386.233     -12386.233     -12386.233    
Loop time of 0.000177625 on 8 procs for 1 steps with 56 atoms

Performance: 486.418 ns/day, 0.049 hours/ns, 5629.838 timesteps/s, 315.271 katom-step/s
0.0% CPU use with 8 MPI tasks x 1 OpenMP threads

MPI task timing breakdown:
Section |  min time  |  avg time  |  max time  |%varavg| %total
---------------------------------------------------------------
Pair    | 0.000129   | 0.00013225 | 0.00014    |   0.0 | 74.45
Neigh   | 0          | 0          | 0          |   0.0 |  0.00
Comm    | 1.6e-05    | 2.3125e-05 | 2.7e-05    |   0.0 | 13.02
Output  | 1.3e-05    | 1.4875e-05 | 1.7e-05    |   0.0 |  8.37
Modify  | 0          | 0          | 0          |   0.0 |  0.00
Other   |            | 7.375e-06  |            |       |  4.15

Nlocal:              7 ave           9 max           5 min
Histogram: 4 0 0 0 0 0 0 0 0 4
Nghost:          422.5 ave         424 max         421 min
Histogram: 4 0 0 0 0 0 0 0 0 4
Neighs:            252 ave         324 max         181 min
Histogram: 4 0 0 0 0 0 0 0 0 4
FullNghs:          504 ave         644 max         364 min
Histogram: 4 0 0 0 0 0 0 0 0 4

Total # of neighbors = 4032
Ave neighs/atom = 72
Neighbor list builds = 0
Dangerous builds = 0
variable  natoms equal "count(all)"
variable xlength equal "lx"
variable  volume equal "vol"
variable  etotal equal "etotal"
variable    ecoh equal "pe/v_natoms"
print "${xlength}, ${volume}, ${etotal}, ${ecoh}" append lattice_cohesive_energy.txt screen no

next i
jump SELF loop

change_box all x scale 1.0025 y scale 1.0025 z scale 1.0025 remap
Changing box ...
  orthogonal box = (-0.050530392 -0.039764292 -0.039764292) to (8.5838819 8.5731158 8.5731158)
  orthogonal box = (-0.050530392 -0.050530392 -0.039764292) to (8.5838819 8.5838819 8.5731158)
  orthogonal box = (-0.050530392 -0.050530392 -0.050530392) to (8.5838819 8.5838819 8.5838819)

run 1
WARNING: No fixes with time integration, atoms won't move (src/verlet.cpp:60)
Per MPI rank memory allocation (min/avg/max) = 8.554 | 8.556 | 8.558 Mbytes
   Step         PotEng         TotEng           Lx             Ly             Lz           Volume         Press           Pxx            Pyy            Pzz      
       180  -418.78397     -418.78397      8.6344123      8.6344123      8.6344123      643.722       -22264.477     -22264.477     -22264.477     -22264.477    
       181  -418.78397     -418.78397      8.6344123      8.6344123      8.6344123      643.722       -22264.477     -22264.477     -22264.477     -22264.477    
Loop time of 0.000251125 on 8 procs for 1 steps with 56 atoms

Performance: 344.052 ns/day, 0.070 hours/ns, 3982.081 timesteps/s, 222.997 katom-step/s
0.0% CPU use with 8 MPI tasks x 1 OpenMP threads

MPI task timing breakdown:
Section |  min time  |  avg time  |  max time  |%varavg| %total
---------------------------------------------------------------
Pair    | 0.000168   | 0.000182   | 0.000202   |   0.0 | 72.47
Neigh   | 0          | 0          | 0          |   0.0 |  0.00
Comm    | 2.2e-05    | 4.2e-05    | 5.7e-05    |   0.0 | 16.72
Output  | 1.6e-05    | 1.825e-05  | 2e-05      |   0.0 |  7.27
Modify  | 0          | 1.25e-07   | 1e-06      |   0.0 |  0.05
Other   |            | 8.75e-06   |            |       |  3.48

Nlocal:              7 ave           9 max           5 min
Histogram: 4 0 0 0 0 0 0 0 0 4
Nghost:          422.5 ave         424 max         421 min
Histogram: 4 0 0 0 0 0 0 0 0 4
Neighs:            252 ave         324 max         181 min
Histogram: 4 0 0 0 0 0 0 0 0 4
FullNghs:          504 ave         644 max         364 min
Histogram: 4 0 0 0 0 0 0 0 0 4

Total # of neighbors = 4032
Ave neighs/atom = 72
Neighbor list builds = 0
Dangerous builds = 0
variable  natoms equal "count(all)"
variable xlength equal "lx"
variable  volume equal "vol"
variable  etotal equal "etotal"
variable    ecoh equal "pe/v_natoms"
print "${xlength}, ${volume}, ${etotal}, ${ecoh}" append lattice_cohesive_energy.txt screen no

next i
jump SELF loop

change_box all x scale 1.0025 y scale 1.0025 z scale 1.0025 remap
Changing box ...
  orthogonal box = (-0.061323408 -0.050530392 -0.050530392) to (8.5946749 8.5838819 8.5838819)
  orthogonal box = (-0.061323408 -0.061323408 -0.050530392) to (8.5946749 8.5946749 8.5838819)
  orthogonal box = (-0.061323408 -0.061323408 -0.061323408) to (8.5946749 8.5946749 8.5946749)

run 1
WARNING: No fixes with time integration, atoms won't move (src/verlet.cpp:60)
Per MPI rank memory allocation (min/avg/max) = 8.554 | 8.556 | 8.558 Mbytes
   Step         PotEng         TotEng           Lx             Ly             Lz           Volume         Press           Pxx            Pyy            Pzz      
       181  -418.70209     -418.70209      8.6559984      8.6559984      8.6559984      648.56199     -31891.808     -31891.808     -31891.808     -31891.808    
       182  -418.70209     -418.70209      8.6559984      8.6559984      8.6559984      648.56199     -31891.808     -31891.808     -31891.808     -31891.808    
Loop time of 0.000244 on 8 procs for 1 steps with 56 atoms

Performance: 354.098 ns/day, 0.068 hours/ns, 4098.361 timesteps/s, 229.508 katom-step/s
0.0% CPU use with 8 MPI tasks x 1 OpenMP threads

MPI task timing breakdown:
Section |  min time  |  avg time  |  max time  |%varavg| %total
---------------------------------------------------------------
Pair    | 0.00016    | 0.00017512 | 0.000197   |   0.0 | 71.77
Neigh   | 0          | 0          | 0          |   0.0 |  0.00
Comm    | 2.1e-05    | 4.225e-05  | 5.8e-05    |   0.0 | 17.32
Output  | 1.6e-05    | 1.7375e-05 | 1.9e-05    |   0.0 |  7.12
Modify  | 0          | 1.25e-07   | 1e-06      |   0.0 |  0.05
Other   |            | 9.125e-06  |            |       |  3.74

[...]
Neigh   | 0          | 0          | 0          |   0.0 |  0.00
Comm    | 2.1e-05    | 4.4625e-05 | 5.7e-05    |   0.0 | 17.99
Output  | 1.6e-05    | 1.75e-05   | 1.9e-05    |   0.0 |  7.06
Modify  | 0          | 2.5e-07    | 1e-06      |   0.0 |  0.10
Other   |            | 8.5e-06    |            |       |  3.43

Nlocal:              7 ave           9 max           5 min
Histogram: 4 0 0 0 0 0 0 0 0 4
Nghost:          422.5 ave         424 max         421 min
Histogram: 4 0 0 0 0 0 0 0 0 4
Neighs:            248 ave         320 max         177 min
Histogram: 4 0 0 0 0 0 0 0 0 4
FullNghs:          496 ave         636 max         356 min
Histogram: 4 0 0 0 0 0 0 0 0 4

Total # of neighbors = 3968
Ave neighs/atom = 70.857143
Neighbor list builds = 0
Dangerous builds = 0
variable  natoms equal "count(all)"
variable xlength equal "lx"
variable  volume equal "vol"
variable  etotal equal "etotal"
variable    ecoh equal "pe/v_natoms"
print "${xlength}, ${volume}, ${etotal}, ${ecoh}" append lattice_cohesive_energy.txt screen no

next i
jump SELF loop

change_box all x scale 1.0025 y scale 1.0025 z scale 1.0025 remap
Changing box ...
  orthogonal box = (-0.22649463 -0.21528971 -0.21528971) to (8.7598462 8.7486413 8.7486413)
  orthogonal box = (-0.22649463 -0.22649463 -0.21528971) to (8.7598462 8.7598462 8.7486413)
  orthogonal box = (-0.22649463 -0.22649463 -0.22649463) to (8.7598462 8.7598462 8.7598462)

run 1
WARNING: No fixes with time integration, atoms won't move (src/verlet.cpp:60)
Per MPI rank memory allocation (min/avg/max) = 8.554 | 8.556 | 8.558 Mbytes
   Step         PotEng         TotEng           Lx             Ly             Lz           Volume         Press           Pxx            Pyy            Pzz      
       196  -414.10152     -414.10152      8.9863408      8.9863408      8.9863408      725.68585     -148923.52     -148923.52     -148923.52     -148923.52    
       197  -414.10152     -414.10152      8.9863408      8.9863408      8.9863408      725.68585     -148923.52     -148923.52     -148923.52     -148923.52    
Loop time of 0.00023975 on 8 procs for 1 steps with 56 atoms

Performance: 360.375 ns/day, 0.067 hours/ns, 4171.011 timesteps/s, 233.577 katom-step/s
0.0% CPU use with 8 MPI tasks x 1 OpenMP threads

MPI task timing breakdown:
Section |  min time  |  avg time  |  max time  |%varavg| %total
---------------------------------------------------------------
Pair    | 0.000164   | 0.00017337 | 0.000195   |   0.0 | 72.31
Neigh   | 0          | 0          | 0          |   0.0 |  0.00
Comm    | 2e-05      | 4.1125e-05 | 5.2e-05    |   0.0 | 17.15
Output  | 1.6e-05    | 1.7e-05    | 1.8e-05    |   0.0 |  7.09
Modify  | 0          | 3.75e-07   | 1e-06      |   0.0 |  0.16
Other   |            | 7.875e-06  |            |       |  3.28

Nlocal:              7 ave           9 max           5 min
Histogram: 4 0 0 0 0 0 0 0 0 4
Nghost:          422.5 ave         424 max         421 min
Histogram: 4 0 0 0 0 0 0 0 0 4
Neighs:            248 ave         320 max         177 min
Histogram: 4 0 0 0 0 0 0 0 0 4
FullNghs:          496 ave         636 max         356 min
Histogram: 4 0 0 0 0 0 0 0 0 4

Total # of neighbors = 3968
Ave neighs/atom = 70.857143
Neighbor list builds = 0
Dangerous builds = 0
variable  natoms equal "count(all)"
variable xlength equal "lx"
variable  volume equal "vol"
variable  etotal equal "etotal"
variable    ecoh equal "pe/v_natoms"
print "${xlength}, ${volume}, ${etotal}, ${ecoh}" append lattice_cohesive_energy.txt screen no

next i
jump SELF loop

change_box all x scale 1.0025 y scale 1.0025 z scale 1.0025 remap
Changing box ...
  orthogonal box = (-0.23772755 -0.22649463 -0.22649463) to (8.7710791 8.7598462 8.7598462)
  orthogonal box = (-0.23772755 -0.23772755 -0.22649463) to (8.7710791 8.7710791 8.7598462)
  orthogonal box = (-0.23772755 -0.23772755 -0.23772755) to (8.7710791 8.7710791 8.7710791)

run 1
WARNING: No fixes with time integration, atoms won't move (src/verlet.cpp:60)
Per MPI rank memory allocation (min/avg/max) = 8.554 | 8.557 | 8.559 Mbytes
   Step         PotEng         TotEng           Lx             Ly             Lz           Volume         Press           Pxx            Pyy            Pzz      
       197  -413.58382     -413.58382      9.0088066      9.0088066      9.0088066      731.14211     -155071.95     -155071.95     -155071.95     -155071.95    
       198  -413.58382     -413.58382      9.0088066      9.0088066      9.0088066      731.14211     -155071.95     -155071.95     -155071.95     -155071.95    
Loop time of 0.000241125 on 8 procs for 1 steps with 56 atoms

Performance: 358.320 ns/day, 0.067 hours/ns, 4147.227 timesteps/s, 232.245 katom-step/s
0.0% CPU use with 8 MPI tasks x 1 OpenMP threads

MPI task timing breakdown:
Section |  min time  |  avg time  |  max time  |%varavg| %total
---------------------------------------------------------------
Pair    | 0.000165   | 0.00017513 | 0.000197   |   0.0 | 72.63
Neigh   | 0          | 0          | 0          |   0.0 |  0.00
Comm    | 1.9e-05    | 4.125e-05  | 5.2e-05    |   0.0 | 17.11
Output  | 1.5e-05    | 1.6375e-05 | 1.8e-05    |   0.0 |  6.79
Modify  | 0          | 3.75e-07   | 1e-06      |   0.0 |  0.16
Other   |            | 8e-06      |            |       |  3.32

Nlocal:              7 ave           9 max           5 min
Histogram: 4 0 0 0 0 0 0 0 0 4
Nghost:          422.5 ave         424 max         421 min
Histogram: 4 0 0 0 0 0 0 0 0 4
Neighs:            248 ave         320 max         177 min
Histogram: 4 0 0 0 0 0 0 0 0 4
FullNghs:          496 ave         636 max         356 min
Histogram: 4 0 0 0 0 0 0 0 0 4

Total # of neighbors = 3968
Ave neighs/atom = 70.857143
Neighbor list builds = 0
Dangerous builds = 0
variable  natoms equal "count(all)"
variable xlength equal "lx"
variable  volume equal "vol"
variable  etotal equal "etotal"
variable    ecoh equal "pe/v_natoms"
print "${xlength}, ${volume}, ${etotal}, ${ecoh}" append lattice_cohesive_energy.txt screen no

next i
jump SELF loop

change_box all x scale 1.0025 y scale 1.0025 z scale 1.0025 remap
Changing box ...
  orthogonal box = (-0.24898856 -0.23772755 -0.23772755) to (8.7823401 8.7710791 8.7710791)
  orthogonal box = (-0.24898856 -0.24898856 -0.23772755) to (8.7823401 8.7823401 8.7710791)
  orthogonal box = (-0.24898856 -0.24898856 -0.24898856) to (8.7823401 8.7823401 8.7823401)

run 1
WARNING: No fixes with time integration, atoms won't move (src/verlet.cpp:60)
Per MPI rank memory allocation (min/avg/max) = 8.554 | 8.557 | 8.559 Mbytes
   Step         PotEng         TotEng           Lx             Ly             Lz           Volume         Press           Pxx            Pyy            Pzz      
       198  -413.04146     -413.04146      9.0313287      9.0313287      9.0313287      736.6394      -161033.86     -161033.86     -161033.86     -161033.86    
       199  -413.04146     -413.04146      9.0313287      9.0313287      9.0313287      736.6394      -161033.86     -161033.86     -161033.86     -161033.86    
Loop time of 0.000245625 on 8 procs for 1 steps with 56 atoms

Performance: 351.756 ns/day, 0.068 hours/ns, 4071.247 timesteps/s, 227.990 katom-step/s
0.0% CPU use with 8 MPI tasks x 1 OpenMP threads

MPI task timing breakdown:
Section |  min time  |  avg time  |  max time  |%varavg| %total
---------------------------------------------------------------
Pair    | 0.000165   | 0.00017525 | 0.000197   |   0.0 | 71.35
Neigh   | 0          | 0          | 0          |   0.0 |  0.00
Comm    | 2.1e-05    | 4.15e-05   | 5.2e-05    |   0.0 | 16.90
Output  | 1.5e-05    | 1.6375e-05 | 1.8e-05    |   0.0 |  6.67
Modify  | 0          | 5e-07      | 1e-06      |   0.0 |  0.20
Other   |            | 1.2e-05    |            |       |  4.89

Nlocal:              7 ave           9 max           5 min
Histogram: 4 0 0 0 0 0 0 0 0 4
Nghost:          422.5 ave         424 max         421 min
Histogram: 4 0 0 0 0 0 0 0 0 4
Neighs:            248 ave         320 max         177 min
Histogram: 4 0 0 0 0 0 0 0 0 4
FullNghs:          496 ave         636 max         356 min
Histogram: 4 0 0 0 0 0 0 0 0 4

Total # of neighbors = 3968
Ave neighs/atom = 70.857143
Neighbor list builds = 0
Dangerous builds = 0
variable  natoms equal "count(all)"
variable xlength equal "lx"
variable  volume equal "vol"
variable  etotal equal "etotal"
variable    ecoh equal "pe/v_natoms"
print "${xlength}, ${volume}, ${etotal}, ${ecoh}" append lattice_cohesive_energy.txt screen no

next i
jump SELF loop

change_box all x scale 1.0025 y scale 1.0025 z scale 1.0025 remap
Changing box ...
  orthogonal box = (-0.26027772 -0.24898856 -0.24898856) to (8.7936293 8.7823401 8.7823401)
  orthogonal box = (-0.26027772 -0.26027772 -0.24898856) to (8.7936293 8.7936293 8.7823401)
  orthogonal box = (-0.26027772 -0.26027772 -0.26027772) to (8.7936293 8.7936293 8.7936293)

run 1
WARNING: No fixes with time integration, atoms won't move (src/verlet.cpp:60)
Per MPI rank memory allocation (min/avg/max) = 8.554 | 8.557 | 8.559 Mbytes
   Step         PotEng         TotEng           Lx             Ly             Lz           Volume         Press           Pxx            Pyy            Pzz      
       199  -412.47472     -412.47472      9.053907       9.053907       9.053907       742.17802     -166812.58     -166812.58     -166812.58     -166812.58    
       200  -412.47472     -412.47472      9.053907       9.053907       9.053907       742.17802     -166812.58     -166812.58     -166812.58     -166812.58    
Loop time of 0.00023875 on 8 procs for 1 steps with 56 atoms

Performance: 361.885 ns/day, 0.066 hours/ns, 4188.482 timesteps/s, 234.555 katom-step/s
0.0% CPU use with 8 MPI tasks x 1 OpenMP threads

MPI task timing breakdown:
Section |  min time  |  avg time  |  max time  |%varavg| %total
---------------------------------------------------------------
Pair    | 0.000162   | 0.00017137 | 0.000193   |   0.0 | 71.78
Neigh   | 0          | 0          | 0          |   0.0 |  0.00
Comm    | 2.1e-05    | 4.2125e-05 | 5.3e-05    |   0.0 | 17.64
Output  | 1.5e-05    | 1.7e-05    | 1.8e-05    |   0.0 |  7.12
Modify  | 0          | 1.25e-07   | 1e-06      |   0.0 |  0.05
Other   |            | 8.125e-06  |            |       |  3.40

Nlocal:              7 ave           9 max           5 min
Histogram: 4 0 0 0 0 0 0 0 0 4
Nghost:          422.5 ave         424 max         421 min
Histogram: 4 0 0 0 0 0 0 0 0 4
Neighs:            248 ave         320 max         177 min
Histogram: 4 0 0 0 0 0 0 0 0 4
FullNghs:          496 ave         636 max         356 min
Histogram: 4 0 0 0 0 0 0 0 0 4

Total # of neighbors = 3968
Ave neighs/atom = 70.857143
Neighbor list builds = 0
Dangerous builds = 0
variable  natoms equal "count(all)"
variable xlength equal "lx"
variable  volume equal "vol"
variable  etotal equal "etotal"
variable    ecoh equal "pe/v_natoms"
print "${xlength}, ${volume}, ${etotal}, ${ecoh}" append lattice_cohesive_energy.txt screen no

next i
jump SELF loop

change_box all x scale 1.0025 y scale 1.0025 z scale 1.0025 remap
Changing box ...
  orthogonal box = (-0.27159511 -0.26027772 -0.26027772) to (8.8049466 8.7936293 8.7936293)
  orthogonal box = (-0.27159511 -0.27159511 -0.26027772) to (8.8049466 8.8049466 8.7936293)
  orthogonal box = (-0.27159511 -0.27159511 -0.27159511) to (8.8049466 8.8049466 8.8049466)

run 1
WARNING: No fixes with time integration, atoms won't move (src/verlet.cpp:60)
Per MPI rank memory allocation (min/avg/max) = 8.554 | 8.557 | 8.559 Mbytes
   Step         PotEng         TotEng           Lx             Ly             Lz           Volume         Press           Pxx            Pyy            Pzz      
       200  -411.88391     -411.88391      9.0765418      9.0765418      9.0765418      747.75828     -172411.43     -172411.43     -172411.43     -172411.43    
       201  -411.88391     -411.88391      9.0765418      9.0765418      9.0765418      747.75828     -172411.43     -172411.43     -172411.43     -172411.43    
Loop time of 0.0002395 on 8 procs for 1 steps with 56 atoms

Performance: 360.752 ns/day, 0.067 hours/ns, 4175.365 timesteps/s, 233.820 katom-step/s
0.0% CPU use with 8 MPI tasks x 1 OpenMP threads

MPI task timing breakdown:
Section |  min time  |  avg time  |  max time  |%varavg| %total
---------------------------------------------------------------
Pair    | 0.000162   | 0.000172   | 0.000195   |   0.0 | 71.82
Neigh   | 0          | 0          | 0          |   0.0 |  0.00
Comm    | 2e-05      | 4.25e-05   | 5.4e-05    |   0.0 | 17.75
Output  | 1.6e-05    | 1.6875e-05 | 1.8e-05    |   0.0 |  7.05
Modify  | 0          | 1.25e-07   | 1e-06      |   0.0 |  0.05
Other   |            | 8e-06      |            |       |  3.34

Nlocal:              7 ave           9 max           5 min
Histogram: 4 0 0 0 0 0 0 0 0 4
Nghost:          422.5 ave         424 max         421 min
Histogram: 4 0 0 0 0 0 0 0 0 4
Neighs:            248 ave         320 max         177 min
Histogram: 4 0 0 0 0 0 0 0 0 4
FullNghs:          496 ave         636 max         356 min
Histogram: 4 0 0 0 0 0 0 0 0 4

Total # of neighbors = 3968
Ave neighs/atom = 70.857143
Neighbor list builds = 0
Dangerous builds = 0
variable  natoms equal "count(all)"
variable xlength equal "lx"
variable  volume equal "vol"
variable  etotal equal "etotal"
variable    ecoh equal "pe/v_natoms"
print "${xlength}, ${volume}, ${etotal}, ${ecoh}" append lattice_cohesive_energy.txt screen no

next i
jump SELF loop

change_box all x scale 1.0025 y scale 1.0025 z scale 1.0025 remap
Changing box ...
  orthogonal box = (-0.28294078 -0.27159511 -0.27159511) to (8.8162923 8.8049466 8.8049466)
  orthogonal box = (-0.28294078 -0.28294078 -0.27159511) to (8.8162923 8.8162923 8.8049466)
  orthogonal box = (-0.28294078 -0.28294078 -0.28294078) to (8.8162923 8.8162923 8.8162923)

run 1
WARNING: No fixes with time integration, atoms won't move (src/verlet.cpp:60)
Per MPI rank memory allocation (min/avg/max) = 8.554 | 8.557 | 8.559 Mbytes
   Step         PotEng         TotEng           Lx             Ly             Lz           Volume         Press           Pxx            Pyy            Pzz      
       201  -411.26932     -411.26932      9.0992331      9.0992331      9.0992331      753.3805      -177833.66     -177833.66     -177833.66     -177833.66    
       202  -411.26932     -411.26932      9.0992331      9.0992331      9.0992331      753.3805      -177833.66     -177833.66     -177833.66     -177833.66    
Loop time of 0.000237375 on 8 procs for 1 steps with 56 atoms

Performance: 363.981 ns/day, 0.066 hours/ns, 4212.744 timesteps/s, 235.914 katom-step/s
0.0% CPU use with 8 MPI tasks x 1 OpenMP threads

MPI task timing breakdown:
Section |  min time  |  avg time  |  max time  |%varavg| %total
---------------------------------------------------------------
Pair    | 0.000161   | 0.00017013 | 0.000192   |   0.0 | 71.67
Neigh   | 0          | 0          | 0          |   0.0 |  0.00
Comm    | 2e-05      | 4.2125e-05 | 5.2e-05    |   0.0 | 17.75
Output  | 1.5e-05    | 1.7125e-05 | 1.8e-05    |   0.0 |  7.21
Modify  | 0          | 1.25e-07   | 1e-06      |   0.0 |  0.05
Other   |            | 7.875e-06  |            |       |  3.32

Nlocal:              7 ave           9 max           5 min
Histogram: 4 0 0 0 0 0 0 0 0 4
Nghost:          422.5 ave         424 max         421 min
Histogram: 4 0 0 0 0 0 0 0 0 4
Neighs:            248 ave         320 max         177 min
Histogram: 4 0 0 0 0 0 0 0 0 4
FullNghs:          496 ave         636 max         356 min
Histogram: 4 0 0 0 0 0 0 0 0 4

Total # of neighbors = 3968
Ave neighs/atom = 70.857143
Neighbor list builds = 0
Dangerous builds = 0
variable  natoms equal "count(all)"
variable xlength equal "lx"
variable  volume equal "vol"
variable  etotal equal "etotal"
variable    ecoh equal "pe/v_natoms"
print "${xlength}, ${volume}, ${etotal}, ${ecoh}" append lattice_cohesive_energy.txt screen no

next i
jump SELF loop

change_box all x scale 1.0025 y scale 1.0025 z scale 1.0025 remap
Changing box ...
  orthogonal box = (-0.29431483 -0.28294078 -0.28294078) to (8.8276664 8.8162923 8.8162923)
  orthogonal box = (-0.29431483 -0.29431483 -0.28294078) to (8.8276664 8.8276664 8.8162923)
  orthogonal box = (-0.29431483 -0.29431483 -0.29431483) to (8.8276664 8.8276664 8.8276664)

run 1
WARNING: No fixes with time integration, atoms won't move (src/verlet.cpp:60)
Per MPI rank memory allocation (min/avg/max) = 8.554 | 8.557 | 8.559 Mbytes
   Step         PotEng         TotEng           Lx             Ly             Lz           Volume         Press           Pxx            Pyy            Pzz      
       202  -410.63125     -410.63125      9.1219812      9.1219812      9.1219812      759.04499     -183082.47     -183082.47     -183082.47     -183082.47    
       203  -410.63125     -410.63125      9.1219812      9.1219812      9.1219812      759.04499     -183082.47     -183082.47     -183082.47     -183082.47    
Loop time of 0.000238875 on 8 procs for 1 steps with 56 atoms

Performance: 361.695 ns/day, 0.066 hours/ns, 4186.290 timesteps/s, 234.432 katom-step/s
0.0% CPU use with 8 MPI tasks x 1 OpenMP threads

MPI task timing breakdown:
Section |  min time  |  avg time  |  max time  |%varavg| %total
---------------------------------------------------------------
Pair    | 0.000162   | 0.00017175 | 0.000194   |   0.0 | 71.90
Neigh   | 0          | 0          | 0          |   0.0 |  0.00
Comm    | 2e-05      | 4.2125e-05 | 5.2e-05    |   0.0 | 17.63
Output  | 1.5e-05    | 1.65e-05   | 1.8e-05    |   0.0 |  6.91
Modify  | 0          | 6.25e-07   | 2e-06      |   0.0 |  0.26
Other   |            | 7.875e-06  |            |       |  3.30

Nlocal:              7 ave           9 max           5 min
Histogram: 4 0 0 0 0 0 0 0 0 4
Nghost:          422.5 ave         424 max         421 min
Histogram: 4 0 0 0 0 0 0 0 0 4
Neighs:            248 ave         320 max         177 min
Histogram: 4 0 0 0 0 0 0 0 0 4
FullNghs:          496 ave         636 max         356 min
Histogram: 4 0 0 0 0 0 0 0 0 4

Total # of neighbors = 3968
Ave neighs/atom = 70.857143
Neighbor list builds = 0
Dangerous builds = 0
variable  natoms equal "count(all)"
variable xlength equal "lx"
variable  volume equal "vol"
variable  etotal equal "etotal"
variable    ecoh equal "pe/v_natoms"
print "${xlength}, ${volume}, ${etotal}, ${ecoh}" append lattice_cohesive_energy.txt screen no

next i
jump SELF loop

print "-------------------------------------------------------------"
-------------------------------------------------------------
print "Show results of 1st step (Running Minimization)"
Show results of 1st step (Running Minimization)
print "The number of atoms = ${natoms};"
The number of atoms = 56;
print "The lattice constant, x (Angstoms) = ${x0};"
The lattice constant, x (Angstoms) = 9.12198119023532;
print "The lattice constant, y (Angstoms) = ${y0};"
The lattice constant, y (Angstoms) = 9.12198119023532;
print "The lattice constant, z (Angstoms) = ${z0};"
The lattice constant, z (Angstoms) = 9.12198119023532;
print "The volume (Angstoms^3) = ${v0};"
The volume (Angstoms^3) = 759.044988326242;
print "The total energy (eV) = ${etot0};"
The total energy (eV) = -410.631252304872;
print "The cohesive energy (eV/atom) = ${ecoh0};"
The cohesive energy (eV/atom) = -7.33270093401557;
print "-------------------------------------------------------------"
-------------------------------------------------------------
print "Simulations completed !"
Simulations completed !
Total wall time: 0:00:00
