LAMMPS (22 Dec 2022)
  using 1 OpenMP thread(s) per MPI task
Loaded 1 plugins from C:\Program Files\LAMMPS 64-bit 23Jun2022\plugins
Loaded 0 plugins from C:\Program Files\LAMMPS 64-bit 23Jun2022-MPI\plugins
Loaded 1 plugins from C:\Program Files\LAMMPS 64-bit 22Dec2022-MSMPI\plugins
Loaded 1 plugins from C:\Program Files\LAMMPS 64-bit 28Mar2023-MPI\plugins
#------------------------------------------------------------------------------------------
# LAMMPS 64-bit 22Dec2022-MSMPI
#------------------------------------------------------------------------------------------
clear
  using 1 OpenMP thread(s) per MPI task
Loaded 1 plugins from C:\Program Files\LAMMPS 64-bit 23Jun2022\plugins
Loaded 0 plugins from C:\Program Files\LAMMPS 64-bit 23Jun2022-MPI\plugins
Loaded 1 plugins from C:\Program Files\LAMMPS 64-bit 22Dec2022-MSMPI\plugins
Loaded 1 plugins from C:\Program Files\LAMMPS 64-bit 28Mar2023-MPI\plugins
#echo both
# ---------- Initializing Simulation ---------------------------------
units metal
dimension 3
boundary p p p
atom_style atomic
atom_modify map array

#read_data ./../../Fe3O4.data
#read_data ./../../Cr2O3.data
#read_data ./../../Fe2NiO4.data
read_data ./../../FeCr2O4.data
Reading data file ...
  orthogonal box = (0 0 0) to (3.032315 9.261047 10.803909)
  1 by 2 by 4 MPI processor grid
  reading atoms ...
  28 atoms
  read_data CPU = 0.001 seconds

replicate 1 1 1
Replication is creating a 1x1x1 = 1 times larger system...
  orthogonal box = (0 0 0) to (3.032315 9.261047 10.803909)
  1 by 2 by 4 MPI processor grid
  28 atoms
  replicate CPU = 0.000 seconds

# ---------- Defining the Interatomic Potential ---------------------
pair_style meam
#pair_coeff * * ./../../library.meam Fe Cr Ni O ./../../FeCrNiO.meam Fe O
#pair_coeff * * ./../../library.meam Fe Cr Ni O ./../../FeCrNiO.meam Cr O
#pair_coeff * * ./../../library.meam Fe Cr Ni O ./../../FeCrNiO.meam Fe Ni O
pair_coeff * * ./../../library.meam Fe Cr Ni O ./../../FeCrNiO.meam Fe Cr O

# ---------- Running Minimization -------------------------------------
fix 1 all box/relax iso 0.0 vmax 0.001

thermo 10
thermo_style custom step pe etotal lx ly lz vol press pxx pyy pzz

min_style cg
minimize 1e-25 1e-25 5000 10000
Neighbor list info ...
  update: every = 1 steps, delay = 0 steps, check = yes
  max neighbors/atom: 2000, page size: 100000
  master list distance cutoff = 6
  ghost atom cutoff = 6
  binsize = 3, bins = 2 4 4
  2 neighbor lists, perpetual/occasional/extra = 2 0 0
  (1) pair meam, perpetual
      attributes: full, newton on
      pair build: full/bin/atomonly
      stencil: full/bin/3d
      bin: standard
  (2) pair meam, perpetual, half/full from (1)
      attributes: half, newton on
      pair build: halffull/newton
      stencil: none
      bin: none
Per MPI rank memory allocation (min/avg/max) = 9.646 | 9.646 | 9.647 Mbytes
   Step         PotEng         TotEng           Lx             Ly             Lz           Volume         Press           Pxx            Pyy            Pzz      
         0  -163.01109     -163.01109      3.032315       9.261047       10.803909      303.39982      125384.26     -29485.167      253993.44      151644.5     
        10  -163.65887     -163.65887      3.0626381      9.3536575      10.911948      312.59314      62679.735     -87652.32       192022.1       83669.428    
        20  -164.1778      -164.1778       3.0929613      9.4462679      11.019987      321.97032      5706.3361     -143775.07      141153.61      19740.463    
        30  -172.50135     -172.50135      3.0787382      9.4028291      10.969312      317.54895     -6030.3891     -73784.603      64045.234     -8351.7988    
        40  -174.5219      -174.5219       3.066609       9.3657849      10.926096      313.81059     -3323.8683     -73573.382      121485.77     -57883.995    
        50  -177.02303     -177.02303      3.0484151      9.3102186      10.861272      308.25824      114.90523     -71546.602      214680.26     -142788.95    
        60  -177.59489     -177.59489      3.0499872      9.3150201      10.866874      308.73541     -3903.361      -52839.828      203623.39     -162493.64    
        70  -177.83634     -177.83634      3.0499872      9.3150201      10.866874      308.73541     -4787.9791     -52506.238      204252.53     -166110.23    
        80  -178.15472     -178.15472      3.0463348      9.3038651      10.85386       307.62758      1038.7511     -43350.678      205138.64     -158671.71    
        90  -178.40563     -178.40563      3.0441394      9.2971602      10.846039      306.96297      4213.9174     -33439.112      225930.57     -179849.71    
       100  -178.84517     -178.84517      3.0469533      9.3057539      10.856064      307.81498      376.7424      -17623.776      232227.28     -213473.28    
       110  -178.95944     -178.95944      3.0478312      9.3084353      10.859192      308.08114     -2182.0512     -28404.385      186482.27     -164624.04    
       120  -179.00925     -179.00925      3.0473284      9.3068998      10.857401      307.92871     -1204.0365     -30057.079      184727.3      -158282.33    
       130  -179.08289     -179.08289      3.0458504      9.3023856      10.852134      307.48084      3013.9346     -26804.638      183885.71     -148039.27    
       140  -179.10887     -179.10887      3.0478147      9.3083848      10.859133      308.07612     -427.74506     -30028.592      186865.35     -158119.99    
       150  -179.11557     -179.11557      3.0473258      9.3068917      10.857391      307.9279       660.98144     -29812.904      188232.55     -156436.7     
       160  -179.12456     -179.12456      3.0471511      9.3063581      10.856769      307.87493      215.32418     -33201.556      190455.31     -156607.79    
       170  -179.12906     -179.12906      3.0475484      9.3075717      10.858185      307.9954      -1201.1443     -41233.276      191115.4      -153485.56    
       180  -179.13358     -179.13358      3.0469579      9.3057682      10.856081      307.8164      -427.34896     -38164.382      194193.52     -157311.19    
       190  -179.13576     -179.13576      3.0459567      9.3027102      10.852513      307.51304      1182.1795     -35862.22       194244.4      -154835.64    
       200  -179.14717     -179.14717      3.0437905      9.2960945      10.844795      306.85743      4801.2026     -36412.997      200546.28     -149729.67    
       210  -179.16717     -179.16717      3.0451926      9.3003768      10.849791      307.28169      1194.0093     -41643.509      191840.24     -146614.71    
       220  -179.17461     -179.17461      3.0469354      9.3056994      10.856         307.80957     -1832.982      -45602.839      187813.16     -147709.27    
       230  -179.17847     -179.17847      3.0455641      9.3015114      10.851115      307.39417      828.15823     -40864.58       190451.39     -147102.33    
       240  -179.18123     -179.18123      3.045519       9.3013735      10.850954      307.3805       700.27112     -43222.956      187144.45     -141820.69    
       250  -179.18518     -179.18518      3.0459305      9.3026304      10.85242       307.50512      276.60187     -44569.857      187148.27     -141748.6     
       260  -179.18933     -179.18933      3.046479       9.3043055      10.854374      307.67126     -661.51877     -44458.831      184177.11     -141702.83    
       270  -179.19109     -179.19109      3.0462866      9.3037178      10.853689      307.61297     -256.46544     -41819.32       184545.81     -143495.88    
       280  -179.1965      -179.1965       3.0460734      9.3030668      10.852929      307.5484       499.46729     -40358.373      181898.81     -140042.03    
       290  -179.20437     -179.20437      3.0454846      9.3012686      10.850831      307.37009      1075.1674     -37616.222      185986.15     -145144.42    
       300  -179.2105      -179.2105       3.0454732      9.3012337      10.850791      307.36664      1885.9232     -33982.061      181524.24     -141884.41    
       310  -179.21432     -179.21432      3.0462588      9.303633       10.85359       307.60456      418.55829     -39397.902      180832.16     -140178.58    
       320  -179.21538     -179.21538      3.0463651      9.3039577      10.853969      307.63677     -21.779825     -40282.548      179928.66     -139711.45    
       330  -179.21596     -179.21596      3.0464351      9.3041715      10.854218      307.65797     -242.41997     -39663.14       180067.14     -141131.26    
       340  -179.21644     -179.21644      3.0463491      9.3039087      10.853911      307.63191     -148.43923     -39883.449      180212.32     -140774.19    
       350  -179.21689     -179.21689      3.0461096      9.3031775      10.853058      307.55938      294.98515     -39170.996      179479.68     -139423.73    
       360  -179.21731     -179.21731      3.0461275      9.3032319      10.853122      307.56478      170.0987      -38963.954      180744.79     -141270.54    
       370  -179.21799     -179.21799      3.0460347      9.3029485      10.852791      307.53667      265.84955     -38634.105      180584.75     -141153.09    
       380  -179.21821     -179.21821      3.0461494      9.303299       10.8532        307.57143      45.314416     -39289.315      178979.8      -139554.55    
       390  -179.21832     -179.21832      3.0461299      9.3032394      10.853131      307.56552      73.757025     -39178.416      179319.33     -139919.65    
       400  -179.22256     -179.22256      3.0456866      9.3018854      10.851551      307.43125     -27.763743     -37177.992      175471.53     -138376.83    
       410  -179.22281     -179.22281      3.0458035      9.3022425      10.851968      307.46665     -191.21322     -37410.739      175628.66     -138791.56    
       420  -179.22287     -179.22287      3.0456598      9.3018035      10.851455      307.42313      120.73528     -37026.86       176323.95     -138934.89    
       430  -179.22304     -179.22304      3.0456671      9.301826       10.851482      307.42535      62.391113     -36923.512      176023.33     -138912.64    
       440  -179.2232      -179.2232       3.0457101      9.3019573      10.851635      307.43837     -112.33078     -36956.82       175920.79     -139300.96    
       450  -179.23499     -179.23499      3.0438741      9.2963497      10.845093      306.88271      93.702236     -33443.749      163860.58     -130135.72    
       460  -179.246       -179.246        3.0431077      9.2940092      10.842363      306.65097      202.15883     -29018.559      175906.19     -146281.16    
       470  -179.25113     -179.25113      3.0433386      9.2947145      10.843185      306.72079     -205.73901     -28714.774      169549.26     -141451.7     
       480  -179.25919     -179.25919      3.0416922      9.2896861      10.837319      306.22326      136.62746     -32190.366      161552.8      -128952.55    
       490  -179.31161     -179.31161      3.0380183      9.2784656      10.82423       305.11499     -2168.7687     -16875.506      146392.64     -136023.44    
       500  -179.33079     -179.33079      3.0359034      9.2720064      10.816694      304.47822      166.48282     -16922.034      154109.1      -136687.62    
       510  -179.33998     -179.33998      3.0359104      9.2720277      10.816719      304.48031     -691.32192     -19649.432      150553.44     -132977.97    
       520  -179.34561     -179.34561      3.0355038      9.2707859      10.81527       304.35799     -567.39877     -18361.264      150969.16     -134310.09    
       530  -179.36693     -179.36693      3.0334488      9.2645099      10.807949      303.74029     -422.82002     -18651.361      145662.67     -128279.76    
       540  -179.37911     -179.37911      3.0330894      9.263412       10.806668      303.63232     -1257.9112     -17055.848      141709.49     -128427.38    
       550  -179.38572     -179.38572      3.0322922      9.2609772      10.803828      303.39296     -1044.4188     -18008.221      140576.09     -125701.12    
       560  -179.40742     -179.40742      3.0280838      9.2481245      10.788834      302.13154      1811.5557     -17505.345      140851.15     -117911.14    
       570  -179.42058     -179.42058      3.0288614      9.2504994      10.791604      302.36436     -847.105       -16978.576      135232.26     -120795       
       580  -179.43126     -179.43126      3.0279888      9.2478344      10.788495      302.1031      -1177.248      -19590.547      130370.54     -114311.74    
       590  -179.43889     -179.43889      3.0266912      9.2438713      10.783872      301.71487     -17.247033     -17178.751      126901.02     -109774.01    
       600  -179.4422      -179.4422       3.0267074      9.2439209      10.78393       301.71973     -743.91653     -17487.126      123569.33     -108313.95    
       610  -179.45529     -179.45529      3.0235238      9.2341975      10.772586      300.76863      540.83118     -24825.065      129146.07     -102698.52    
       620  -179.46004     -179.46004      3.0236442      9.2345653      10.773016      300.80457      36.282431     -22009.171      123432.03     -101314.01    
       630  -179.46285     -179.46285      3.0232985      9.2335096      10.771784      300.70142     -631.05335     -22951.566      119962.31     -98903.905    
       640  -179.46556     -179.46556      3.0225631      9.2312635      10.769164      300.48202      340.56653     -24791.576      125673.14     -99859.869    
       650  -179.46718     -179.46718      3.0221633      9.2300424      10.767739      300.3628       540.40175     -22352.576      123125.05     -99151.272    
       660  -179.46989     -179.46989      3.0221934      9.2301343      10.767846      300.37177     -719.72783     -25889.671      120857.28     -97126.789    
       670  -179.47057     -179.47057      3.0219344      9.2293435      10.766924      300.29458     -316.0667      -25098.874      121077.76     -96927.09     
       680  -179.47084     -179.47084      3.0219244      9.2293128      10.766888      300.29158     -391.37473     -25456.241      121543.31     -97261.194    
       690  -179.47745     -179.47745      3.019774       9.2227452      10.759226      299.65097     -729.15546     -29911.743      121300.41     -93576.129    
       700  -179.4789      -179.4789       3.01919        9.2209617      10.757146      299.47716      377.26093     -29856.609      122395.81     -91407.414    
       710  -179.47915     -179.47915      3.0193523      9.2214573      10.757724      299.52546     -117.87353     -30840.893      122306.44     -91819.17     
       720  -179.47967     -179.47967      3.0190537      9.2205454      10.75666       299.4366       58.62674      -31474.191      122851.66     -91201.587    
       730  -179.48        -179.48         3.018681       9.2194072      10.755332      299.32573      298.15164     -32068.599      122481.85     -89518.791    
       740  -179.4805      -179.4805       3.0186763      9.2193929      10.755315      299.32433      129.20349     -32359.866      122649.11     -89901.632    
       750  -179.48057     -179.48057      3.0187258      9.219544       10.755492      299.33905     -43.602758     -32522.435      122244.82     -89853.198    
       760  -179.48091     -179.48091      3.0181936      9.2179186      10.753596      299.18076      186.95096     -33677.658      122879.15     -88640.642    
       770  -179.48109     -179.48109      3.0182592      9.2181188      10.753829      299.20025     -187.32437     -34500.817      123008.41     -89069.566    
       780  -179.48112     -179.48112      3.0181593      9.217814       10.753473      299.17057     -13.516651     -34402.753      123114.76     -88752.556    
       790  -179.48113     -179.48113      3.0181365      9.2177441      10.753392      299.16377      29.337559     -34349.742      123111.71     -88673.957    
       800  -179.48115     -179.48115      3.0181089      9.2176599      10.753294      299.15557     -68.702343     -34594.932      122994.57     -88605.749    
       810  -179.48116     -179.48116      3.0180324      9.2174262      10.753021      299.13282      13.088237     -34567.254      123059.14     -88452.625    
       820  -179.48117     -179.48117      3.0180252      9.2174043      10.752996      299.13068     -5.9985011     -34684.176      123089.95     -88423.767    
       830  -179.48117     -179.48117      3.018007       9.2173488      10.752931      299.12529      12.858653     -34691.311      123094.77     -88364.886    
       840  -179.48117     -179.48117      3.0180125      9.2173655      10.75295       299.12691     -10.05239      -34729.945      123100.73     -88400.937    
       850  -179.48117     -179.48117      3.0180025      9.2173351      10.752915      299.12395     -5.5950261     -34739.932      123105.17     -88382.025    
       860  -179.48117     -179.48117      3.0179889      9.2172933      10.752866      299.11988     -3.7667874     -34777.477      123107.86     -88341.684    
       870  -179.48117     -179.48117      3.017947       9.2171654      10.752717      299.10743     -12.06904      -34889.589      123124        -88270.621    
       880  -179.48118     -179.48118      3.0179244      9.2170963      10.752636      299.1007       0.18939677    -34924.45       123144.93     -88219.908    
       890  -179.48118     -179.48118      3.0179225      9.2170905      10.752629      299.10014      3.0347297     -34915.26       123142.98     -88218.614    
       900  -179.48118     -179.48118      3.0179139      9.2170643      10.752599      299.09758     -6.9958716     -34938.318      123125.02     -88207.693    
       910  -179.48118     -179.48118      3.0179007      9.2170239      10.752552      299.09365      0.13803931    -34959.874      123141.91     -88181.618    
       920  -179.48118     -179.48118      3.0179005      9.2170233      10.752551      299.0936       0.54433873    -34965.307      123147.23     -88180.289    
       930  -179.48118     -179.48118      3.0179002      9.2170226      10.75255       299.09353      0.19644019    -34968.43       123146.93     -88177.914    
       940  -179.48118     -179.48118      3.0179001      9.2170222      10.75255       299.09349     -0.011323075   -34970.031      123146.97     -88176.974    
       950  -179.48118     -179.48118      3.0179001      9.2170221      10.75255       299.09348      0.0027517193  -34969.753      123146.34     -88176.583    
       960  -179.48118     -179.48118      3.0179         9.217022       10.75255       299.09347      0.022668336   -34970.108      123146.35     -88176.179    
       970  -179.48118     -179.48118      3.0179001      9.2170222      10.75255       299.09349      0.0010292444  -34970.149      123146.42     -88176.266    
       980  -179.48118     -179.48118      3.0179003      9.2170227      10.75255       299.09353     -0.01227109    -34969.794      123146.44     -88176.679    
       990  -179.48118     -179.48118      3.0179003      9.2170229      10.752551      299.09356     -0.060962747   -34969.746      123146.39     -88176.829    
      1000  -179.48118     -179.48118      3.0179003      9.2170228      10.752551      299.09355      4.5959693e-05 -34969.678      123146.41     -88176.732    
      1010  -179.48118     -179.48118      3.0179003      9.2170227      10.75255       299.09354      0.011596855   -34969.746      123146.42     -88176.636    
      1020  -179.48118     -179.48118      3.0179002      9.2170226      10.75255       299.09353      0.0066309881  -34969.737      123146.44     -88176.68     
      1029  -179.48118     -179.48118      3.0179002      9.2170226      10.75255       299.09353     -0.0088010046  -34969.761      123146.39     -88176.659    
Loop time of 0.398501 on 8 procs for 1029 steps with 28 atoms

47.1% CPU use with 8 MPI tasks x 1 OpenMP threads

Minimization stats:
  Stopping criterion = energy tolerance
  Energy initial, next-to-last, final = 
     -163.011089499286  -179.481176454044  -179.481176454044
  Force two-norm initial, final = 75.576578 7.6675348e-06
  Force max component initial, final = 71.231031 4.9524442e-06
  Final line search alpha, max atom move = 1 4.9524442e-06
  Iterations, force evaluations = 1029 2250

MPI task timing breakdown:
Section |  min time  |  avg time  |  max time  |%varavg| %total
---------------------------------------------------------------
Pair    | 0.25226    | 0.25328    | 0.25477    |   0.2 | 63.56
Neigh   | 0          | 0          | 0          |   0.0 |  0.00
Comm    | 0.041567   | 0.043335   | 0.044571   |   0.4 | 10.87
Output  | 0.001547   | 0.0016349  | 0.001978   |   0.3 |  0.41
Modify  | 0          | 0          | 0          |   0.0 |  0.00
Other   |            | 0.1002     |            |       | 25.16

Nlocal:            3.5 ave           4 max           3 min
Histogram: 4 0 0 0 0 0 0 0 0 4
Nghost:          341.5 ave         342 max         341 min
Histogram: 4 0 0 0 0 0 0 0 0 4
Neighs:          138.5 ave         161 max         113 min
Histogram: 2 2 0 0 0 0 0 0 0 4
FullNghs:          277 ave         320 max         234 min
Histogram: 4 0 0 0 0 0 0 0 0 4

Total # of neighbors = 2216
Ave neighs/atom = 79.142857
Neighbor list builds = 0
Dangerous builds = 0

variable  natoms equal "count(all)"
variable      x0 equal "lx"
variable      y0 equal "ly"
variable      z0 equal "lz"
variable      v0 equal "vol"
variable   etot0 equal "etotal"
variable   ecoh0 equal "-pe/v_natoms"

unfix 1
write_data ./../step2_elastic/data.in
System init for write_data ...

# ---------- For Equation of States -------------------------------------
change_box all x scale 0.94 y scale 0.94 z scale 0.94 remap
Changing box ...
  orthogonal box = (0.097744387 0.022012186 0.025679348) to (2.9345706 9.2390348 10.77823)
  orthogonal box = (0.097744387 0.29852286 0.025679348) to (2.9345706 8.9625241 10.77823)
  orthogonal box = (0.097744387 0.29852286 0.34825586) to (2.9345706 8.9625241 10.455653)
run 1
WARNING: No fixes with time integration, atoms won't move (src/verlet.cpp:60)
Per MPI rank memory allocation (min/avg/max) = 8.531 | 8.532 | 8.532 Mbytes
   Step         PotEng         TotEng           Lx             Ly             Lz           Volume         Press           Pxx            Pyy            Pzz      
      1029  -172.35519     -172.35519      2.8368262      8.6640013      10.107397      248.4223       521319.62      451850.83      720008.07      392099.96    
      1030  -172.35519     -172.35519      2.8368262      8.6640013      10.107397      248.4223       521319.62      451850.83      720008.07      392099.96    
Loop time of 0.000134125 on 8 procs for 1 steps with 28 atoms

Performance: 644.175 ns/day, 0.037 hours/ns, 7455.732 timesteps/s, 208.760 katom-step/s
0.0% CPU use with 8 MPI tasks x 1 OpenMP threads

MPI task timing breakdown:
Section |  min time  |  avg time  |  max time  |%varavg| %total
---------------------------------------------------------------
Pair    | 0.000102   | 0.00010362 | 0.000105   |   0.0 | 77.26
Neigh   | 0          | 0          | 0          |   0.0 |  0.00
Comm    | 1.2e-05    | 1.3375e-05 | 1.5e-05    |   0.0 |  9.97
Output  | 1.2e-05    | 1.25e-05   | 1.3e-05    |   0.0 |  9.32
Modify  | 0          | 5e-07      | 1e-06      |   0.0 |  0.37
Other   |            | 4.125e-06  |            |       |  3.08

Nlocal:            3.5 ave           4 max           3 min
Histogram: 4 0 0 0 0 0 0 0 0 4
Nghost:          381.5 ave         387 max         376 min
Histogram: 4 0 0 0 0 0 0 0 0 4
Neighs:         179.25 ave         210 max         147 min
Histogram: 2 2 0 0 0 0 0 0 0 4
FullNghs:        358.5 ave         414 max         302 min
Histogram: 4 0 0 0 0 0 0 0 0 4

Total # of neighbors = 2868
Ave neighs/atom = 102.42857
Neighbor list builds = 0
Dangerous builds = 0
print "# Lattice constant (Angstroms), Volume (Angstrom), Total energy (eV), Cohesive energy (eV/atom)" file lattice_cohesive_energy.txt screen no


# Loop over lattice constants
variable i loop 49 # Number of steps
label loop

change_box all x scale 1.0025 y scale 1.0025 z scale 1.0025 remap
Changing box ...
  orthogonal box = (0.094198354 0.29852286 0.34825586) to (2.9381166 8.9625241 10.455653)
  orthogonal box = (0.094198354 0.28769286 0.34825586) to (2.9381166 8.9733541 10.455653)
  orthogonal box = (0.094198354 0.28769286 0.33562161) to (2.9381166 8.9733541 10.468287)

run 1
WARNING: No fixes with time integration, atoms won't move (src/verlet.cpp:60)
Per MPI rank memory allocation (min/avg/max) = 8.531 | 8.532 | 8.532 Mbytes
   Step         PotEng         TotEng           Lx             Ly             Lz           Volume         Press           Pxx            Pyy            Pzz      
      1030  -172.94665     -172.94665      2.8439183      8.6856613      10.132666      250.29013      493492.81      425653.94      688818.82      366005.67    
      1031  -172.94665     -172.94665      2.8439183      8.6856613      10.132666      250.29013      493492.81      425653.94      688818.82      366005.67    
Loop time of 0.000298625 on 8 procs for 1 steps with 28 atoms

Performance: 289.326 ns/day, 0.083 hours/ns, 3348.681 timesteps/s, 93.763 katom-step/s
0.0% CPU use with 8 MPI tasks x 1 OpenMP threads

MPI task timing breakdown:
Section |  min time  |  avg time  |  max time  |%varavg| %total
---------------------------------------------------------------
Pair    | 0.000145   | 0.000216   | 0.00026    |   0.0 | 72.33
Neigh   | 0          | 0          | 0          |   0.0 |  0.00
Comm    | 1.6e-05    | 6.0375e-05 | 0.000132   |   0.0 | 20.22
Output  | 1.3e-05    | 1.425e-05  | 1.6e-05    |   0.0 |  4.77
Modify  | 0          | 6.25e-07   | 2e-06      |   0.0 |  0.21
Other   |            | 7.375e-06  |            |       |  2.47

Nlocal:            3.5 ave           4 max           3 min
Histogram: 4 0 0 0 0 0 0 0 0 4
Nghost:          376.5 ave         377 max         376 min
Histogram: 4 0 0 0 0 0 0 0 0 4
Neighs:         178.75 ave         208 max         147 min
Histogram: 2 2 0 0 0 0 0 0 0 4
FullNghs:        357.5 ave         412 max         302 min
Histogram: 4 0 0 0 0 0 0 0 0 4

Total # of neighbors = 2860
Ave neighs/atom = 102.14286
Neighbor list builds = 0
Dangerous builds = 0
variable  natoms equal "count(all)"
variable xlength equal "lx"
variable  volume equal "vol"
variable  etotal equal "etotal"
variable    ecoh equal "-pe/v_natoms"
print "${xlength}, ${volume}, ${etotal}, ${ecoh}" append lattice_cohesive_energy.txt screen no

next i
jump SELF loop

change_box all x scale 1.0025 y scale 1.0025 z scale 1.0025 remap
Changing box ...
  orthogonal box = (0.090643456 0.28769286 0.33562161) to (2.9416715 8.9733541 10.468287)
  orthogonal box = (0.090643456 0.27683579 0.33562161) to (2.9416715 8.9842112 10.468287)
  orthogonal box = (0.090643456 0.27683579 0.32295578) to (2.9416715 8.9842112 10.480953)

run 1
WARNING: No fixes with time integration, atoms won't move (src/verlet.cpp:60)
Per MPI rank memory allocation (min/avg/max) = 8.531 | 8.532 | 8.532 Mbytes
   Step         PotEng         TotEng           Lx             Ly             Lz           Volume         Press           Pxx            Pyy            Pzz      
      1031  -173.51024     -173.51024      2.8510281      8.7073754      10.157997      252.172        466314.08      400087.53      658300.09      340554.63    
      1032  -173.51024     -173.51024      2.8510281      8.7073754      10.157997      252.172        466314.08      400087.53      658300.09      340554.63    
Loop time of 0.000248625 on 8 procs for 1 steps with 28 atoms

Performance: 347.511 ns/day, 0.069 hours/ns, 4022.122 timesteps/s, 112.619 katom-step/s
0.0% CPU use with 8 MPI tasks x 1 OpenMP threads

MPI task timing breakdown:
Section |  min time  |  avg time  |  max time  |%varavg| %total
---------------------------------------------------------------
Pair    | 0.000191   | 0.00019488 | 0.000203   |   0.0 | 78.38
Neigh   | 0          | 0          | 0          |   0.0 |  0.00
Comm    | 1.9e-05    | 2.725e-05  | 3.1e-05    |   0.0 | 10.96
Output  | 1.6e-05    | 1.7e-05    | 1.8e-05    |   0.0 |  6.84
Modify  | 0          | 5e-07      | 1e-06      |   0.0 |  0.20
Other   |            | 9e-06      |            |       |  3.62

Nlocal:            3.5 ave           4 max           3 min
Histogram: 4 0 0 0 0 0 0 0 0 4
Nghost:          376.5 ave         377 max         376 min
Histogram: 4 0 0 0 0 0 0 0 0 4
Neighs:          175.5 ave         206 max         142 min
Histogram: 2 2 0 0 0 0 0 0 1 3
FullNghs:          351 ave         408 max         296 min
Histogram: 4 0 0 0 0 0 0 0 0 4

Total # of neighbors = 2808
Ave neighs/atom = 100.28571
Neighbor list builds = 0
Dangerous builds = 0
variable  natoms equal "count(all)"
variable xlength equal "lx"
variable  volume equal "vol"
variable  etotal equal "etotal"
variable    ecoh equal "-pe/v_natoms"
print "${xlength}, ${volume}, ${etotal}, ${ecoh}" append lattice_cohesive_energy.txt screen no

next i
jump SELF loop

change_box all x scale 1.0025 y scale 1.0025 z scale 1.0025 remap
Changing box ...
  orthogonal box = (0.087079671 0.27683579 0.32295578) to (2.9452353 8.9842112 10.480953)
  orthogonal box = (0.087079671 0.26595157 0.32295578) to (2.9452353 8.9950954 10.480953)
  orthogonal box = (0.087079671 0.26595157 0.31025828) to (2.9452353 8.9950954 10.493651)

run 1
WARNING: No fixes with time integration, atoms won't move (src/verlet.cpp:60)
Per MPI rank memory allocation (min/avg/max) = 8.531 | 8.532 | 8.532 Mbytes
   Step         PotEng         TotEng           Lx             Ly             Lz           Volume         Press           Pxx            Pyy            Pzz      
      1032  -174.0463      -174.0463       2.8581557      8.7291439      10.183392      254.06802      439772.54      375140.26      628441.65      315735.72    
      1033  -174.0463      -174.0463       2.8581557      8.7291439      10.183392      254.06802      439772.54      375140.26      628441.65      315735.72    
Loop time of 0.000232 on 8 procs for 1 steps with 28 atoms

Performance: 372.414 ns/day, 0.064 hours/ns, 4310.345 timesteps/s, 120.690 katom-step/s
0.0% CPU use with 8 MPI tasks x 1 OpenMP threads

MPI task timing breakdown:
Section |  min time  |  avg time  |  max time  |%varavg| %total
---------------------------------------------------------------
Pair    | 0.000181   | 0.0001845  | 0.000191   |   0.0 | 79.53
Neigh   | 0          | 0          | 0          |   0.0 |  0.00
Comm    | 1.6e-05    | 2.3e-05    | 2.7e-05    |   0.0 |  9.91
Output  | 1.5e-05    | 1.6375e-05 | 1.8e-05    |   0.0 |  7.06
Modify  | 0          | 2.5e-07    | 1e-06      |   0.0 |  0.11
Other   |            | 7.875e-06  |            |       |  3.39

Nlocal:            3.5 ave           4 max           3 min
Histogram: 4 0 0 0 0 0 0 0 0 4
Nghost:          376.5 ave         377 max         376 min
Histogram: 4 0 0 0 0 0 0 0 0 4
Neighs:         174.25 ave         205 max         142 min
Histogram: 2 2 0 0 0 0 0 0 1 3
FullNghs:        348.5 ave         405 max         296 min
Histogram: 4 0 0 0 0 0 0 0 0 4

Total # of neighbors = 2788
Ave neighs/atom = 99.571429
Neighbor list builds = 0
Dangerous builds = 0
variable  natoms equal "count(all)"
variable xlength equal "lx"
variable  volume equal "vol"
variable  etotal equal "etotal"
variable    ecoh equal "-pe/v_natoms"
print "${xlength}, ${volume}, ${etotal}, ${ecoh}" append lattice_cohesive_energy.txt screen no

next i
jump SELF loop

change_box all x scale 1.0025 y scale 1.0025 z scale 1.0025 remap
Changing box ...
  orthogonal box = (0.083506977 0.26595157 0.31025828) to (2.948808 8.9950954 10.493651)
  orthogonal box = (0.083506977 0.25504014 0.31025828) to (2.948808 9.0060069 10.493651)
  orthogonal box = (0.083506977 0.25504014 0.29752904) to (2.948808 9.0060069 10.50638)

run 1
WARNING: No fixes with time integration, atoms won't move (src/verlet.cpp:60)
Per MPI rank memory allocation (min/avg/max) = 8.531 | 8.532 | 8.532 Mbytes
   Step         PotEng         TotEng           Lx             Ly             Lz           Volume         Press           Pxx            Pyy            Pzz      
      1033  -174.55511     -174.55511      2.865301       8.7509667      10.208851      255.9783       413857.43      350801         599233.35      291537.94    
      1034  -174.55511     -174.55511      2.865301       8.7509667      10.208851      255.9783       413857.43      350801         599233.35      291537.94    
Loop time of 0.000230375 on 8 procs for 1 steps with 28 atoms

Performance: 375.041 ns/day, 0.064 hours/ns, 4340.749 timesteps/s, 121.541 katom-step/s
0.0% CPU use with 8 MPI tasks x 1 OpenMP threads

MPI task timing breakdown:
Section |  min time  |  avg time  |  max time  |%varavg| %total
---------------------------------------------------------------
Pair    | 0.000179   | 0.000183   | 0.00019    |   0.0 | 79.44
Neigh   | 0          | 0          | 0          |   0.0 |  0.00
Comm    | 1.7e-05    | 2.3375e-05 | 2.7e-05    |   0.0 | 10.15
Output  | 1.5e-05    | 1.6375e-05 | 1.8e-05    |   0.0 |  7.11
Modify  | 0          | 0          | 0          |   0.0 |  0.00
Other   |            | 7.625e-06  |            |       |  3.31

Nlocal:            3.5 ave           4 max           3 min
Histogram: 4 0 0 0 0 0 0 0 0 4
Nghost:         372.75 ave         377 max         367 min
Histogram: 2 0 0 0 2 0 0 0 0 4
Neighs:          171.5 ave         201 max         141 min
Histogram: 1 2 1 0 0 0 0 0 2 2
FullNghs:          343 ave         395 max         294 min
Histogram: 4 0 0 0 0 0 0 0 0 4

Total # of neighbors = 2744
Ave neighs/atom = 98
Neighbor list builds = 0
Dangerous builds = 0
variable  natoms equal "count(all)"
variable xlength equal "lx"
variable  volume equal "vol"
variable  etotal equal "etotal"
variable    ecoh equal "-pe/v_natoms"
print "${xlength}, ${volume}, ${etotal}, ${ecoh}" append lattice_cohesive_energy.txt screen no

next i
jump SELF loop

change_box all x scale 1.0025 y scale 1.0025 z scale 1.0025 remap
Changing box ...
  orthogonal box = (0.07992535 0.25504014 0.29752904) to (2.9523896 9.0060069 10.50638)
  orthogonal box = (0.07992535 0.24410143 0.29752904) to (2.9523896 9.0169456 10.50638)
  orthogonal box = (0.07992535 0.24410143 0.28476798) to (2.9523896 9.0169456 10.519141)

run 1
WARNING: No fixes with time integration, atoms won't move (src/verlet.cpp:60)
Per MPI rank memory allocation (min/avg/max) = 8.531 | 8.532 | 8.532 Mbytes
   Step         PotEng         TotEng           Lx             Ly             Lz           Volume         Press           Pxx            Pyy            Pzz      
      1034  -175.03698     -175.03698      2.8724643      8.7728441      10.234373      257.90294      388558.14      327058.76      570665.2       267950.45    
      1035  -175.03698     -175.03698      2.8724643      8.7728441      10.234373      257.90294      388558.14      327058.76      570665.2       267950.45    
Loop time of 0.0002315 on 8 procs for 1 steps with 28 atoms

Performance: 373.218 ns/day, 0.064 hours/ns, 4319.654 timesteps/s, 120.950 katom-step/s
0.0% CPU use with 8 MPI tasks x 1 OpenMP threads

MPI task timing breakdown:
Section |  min time  |  avg time  |  max time  |%varavg| %total
---------------------------------------------------------------
Pair    | 0.000181   | 0.00018475 | 0.000191   |   0.0 | 79.81
Neigh   | 0          | 0          | 0          |   0.0 |  0.00
Comm    | 1.8e-05    | 2.3e-05    | 2.6e-05    |   0.0 |  9.94
Output  | 1.5e-05    | 1.65e-05   | 1.8e-05    |   0.0 |  7.13
Modify  | 0          | 1.25e-07   | 1e-06      |   0.0 |  0.05
Other   |            | 7.125e-06  |            |       |  3.08

Nlocal:            3.5 ave           4 max           3 min
Histogram: 4 0 0 0 0 0 0 0 0 4
Nghost:         372.75 ave         377 max         367 min
Histogram: 2 0 0 0 2 0 0 0 0 4
Neighs:            169 ave         201 max         137 min
Histogram: 1 2 1 0 0 0 0 1 1 2
FullNghs:          338 ave         388 max         287 min
Histogram: 4 0 0 0 0 0 0 0 0 4

Total # of neighbors = 2704
Ave neighs/atom = 96.571429
Neighbor list builds = 0
Dangerous builds = 0
variable  natoms equal "count(all)"
variable xlength equal "lx"
variable  volume equal "vol"
variable  etotal equal "etotal"
variable    ecoh equal "-pe/v_natoms"
print "${xlength}, ${volume}, ${etotal}, ${ecoh}" append lattice_cohesive_energy.txt screen no

next i
jump SELF loop

change_box all x scale 1.0025 y scale 1.0025 z scale 1.0025 remap
Changing box ...
  orthogonal box = (0.07633477 0.24410143 0.28476798) to (2.9559802 9.0169456 10.519141)
  orthogonal box = (0.07633477 0.23313537 0.28476798) to (2.9559802 9.0279116 10.519141)
  orthogonal box = (0.07633477 0.23313537 0.27197501) to (2.9559802 9.0279116 10.531934)

run 1
WARNING: No fixes with time integration, atoms won't move (src/verlet.cpp:60)
Per MPI rank memory allocation (min/avg/max) = 8.531 | 8.532 | 8.532 Mbytes
   Step         PotEng         TotEng           Lx             Ly             Lz           Volume         Press           Pxx            Pyy            Pzz      
      1035  -175.49223     -175.49223      2.8796455      8.7947763      10.259959      259.84205      363864.19      303902.71      542727.28      244962.56    
      1036  -175.49223     -175.49223      2.8796455      8.7947763      10.259959      259.84205      363864.19      303902.71      542727.28      244962.56    
Loop time of 0.0002265 on 8 procs for 1 steps with 28 atoms

Performance: 381.457 ns/day, 0.063 hours/ns, 4415.011 timesteps/s, 123.620 katom-step/s
0.0% CPU use with 8 MPI tasks x 1 OpenMP threads

MPI task timing breakdown:
Section |  min time  |  avg time  |  max time  |%varavg| %total
---------------------------------------------------------------
Pair    | 0.000177   | 0.00018025 | 0.000186   |   0.0 | 79.58
Neigh   | 0          | 0          | 0          |   0.0 |  0.00
Comm    | 1.6e-05    | 2.2125e-05 | 2.6e-05    |   0.0 |  9.77
Output  | 1.5e-05    | 1.625e-05  | 1.7e-05    |   0.0 |  7.17
Modify  | 0          | 1.25e-07   | 1e-06      |   0.0 |  0.06
Other   |            | 7.75e-06   |            |       |  3.42

Nlocal:            3.5 ave           4 max           3 min
Histogram: 4 0 0 0 0 0 0 0 0 4
Nghost:            369 ave         371 max         367 min
Histogram: 4 0 0 0 0 0 0 0 0 4
Neighs:            167 ave         201 max         133 min
Histogram: 1 2 1 0 0 0 0 2 0 2
FullNghs:          334 ave         388 max         281 min
Histogram: 4 0 0 0 0 0 0 0 0 4

Total # of neighbors = 2672
Ave neighs/atom = 95.428571
Neighbor list builds = 0
Dangerous builds = 0
variable  natoms equal "count(all)"
variable xlength equal "lx"
variable  volume equal "vol"
variable  etotal equal "etotal"
variable    ecoh equal "-pe/v_natoms"
print "${xlength}, ${volume}, ${etotal}, ${ecoh}" append lattice_cohesive_energy.txt screen no

next i
jump SELF loop

change_box all x scale 1.0025 y scale 1.0025 z scale 1.0025 remap
Changing box ...
  orthogonal box = (0.072735213 0.23313537 0.27197501) to (2.9595798 9.0279116 10.531934)
  orthogonal box = (0.072735213 0.2221419 0.27197501) to (2.9595798 9.0389051 10.531934)
  orthogonal box = (0.072735213 0.2221419 0.25915006) to (2.9595798 9.0389051 10.544759)

run 1
WARNING: No fixes with time integration, atoms won't move (src/verlet.cpp:60)
Per MPI rank memory allocation (min/avg/max) = 8.531 | 8.532 | 8.532 Mbytes
   Step         PotEng         TotEng           Lx             Ly             Lz           Volume         Press           Pxx            Pyy            Pzz      
      1036  -175.92116     -175.92116      2.8868446      8.8167632      10.285609      261.79575      339765.26      281322.19      515409.85      222563.73    
      1037  -175.92116     -175.92116      2.8868446      8.8167632      10.285609      261.79575      339765.26      281322.19      515409.85      222563.73    
Loop time of 0.00023 on 8 procs for 1 steps with 28 atoms

Performance: 375.652 ns/day, 0.064 hours/ns, 4347.826 timesteps/s, 121.739 katom-step/s
0.0% CPU use with 8 MPI tasks x 1 OpenMP threads

MPI task timing breakdown:
Section |  min time  |  avg time  |  max time  |%varavg| %total
---------------------------------------------------------------
Pair    | 0.000175   | 0.000178   | 0.000184   |   0.0 | 77.39
Neigh   | 0          | 0          | 0          |   0.0 |  0.00
Comm    | 1.7e-05    | 2.2125e-05 | 2.5e-05    |   0.0 |  9.62
Output  | 1.5e-05    | 1.7e-05    | 2.5e-05    |   0.0 |  7.39
Modify  | 0          | 0          | 0          |   0.0 |  0.00
Other   |            | 1.288e-05  |            |       |  5.60

Nlocal:            3.5 ave           4 max           3 min
Histogram: 4 0 0 0 0 0 0 0 0 4
Nghost:            369 ave         371 max         367 min
Histogram: 4 0 0 0 0 0 0 0 0 4
Neighs:         166.25 ave         201 max         133 min
Histogram: 2 2 0 0 0 0 0 2 0 2
FullNghs:        332.5 ave         388 max         279 min
Histogram: 4 0 0 0 0 0 0 0 0 4

Total # of neighbors = 2660
Ave neighs/atom = 95
Neighbor list builds = 0
Dangerous builds = 0
variable  natoms equal "count(all)"
variable xlength equal "lx"
variable  volume equal "vol"
variable  etotal equal "etotal"
variable    ecoh equal "-pe/v_natoms"
print "${xlength}, ${volume}, ${etotal}, ${ecoh}" append lattice_cohesive_energy.txt screen no

next i
jump SELF loop

change_box all x scale 1.0025 y scale 1.0025 z scale 1.0025 remap
Changing box ...
  orthogonal box = (0.069126657 0.2221419 0.25915006) to (2.9631883 9.0389051 10.544759)
  orthogonal box = (0.069126657 0.21112095 0.25915006) to (2.9631883 9.0499261 10.544759)
  orthogonal box = (0.069126657 0.21112095 0.24629305) to (2.9631883 9.0499261 10.557616)

run 1
WARNING: No fixes with time integration, atoms won't move (src/verlet.cpp:60)
Per MPI rank memory allocation (min/avg/max) = 8.531 | 8.532 | 8.532 Mbytes
   Step         PotEng         TotEng           Lx             Ly             Lz           Volume         Press           Pxx            Pyy            Pzz      
      1037  -176.32406     -176.32406      2.8940617      8.8388051      10.311323      263.76413      316251.14      259306.68      488703.21      200743.54    
      1038  -176.32406     -176.32406      2.8940617      8.8388051      10.311323      263.76413      316251.14      259306.68      488703.21      200743.54    
Loop time of 0.000226625 on 8 procs for 1 steps with 28 atoms

Performance: 381.247 ns/day, 0.063 hours/ns, 4412.576 timesteps/s, 123.552 katom-step/s
0.0% CPU use with 8 MPI tasks x 1 OpenMP threads

MPI task timing breakdown:
Section |  min time  |  avg time  |  max time  |%varavg| %total
---------------------------------------------------------------
Pair    | 0.000177   | 0.00017975 | 0.000186   |   0.0 | 79.32
Neigh   | 0          | 0          | 0          |   0.0 |  0.00
Comm    | 1.8e-05    | 2.3125e-05 | 2.7e-05    |   0.0 | 10.20
Output  | 1.5e-05    | 1.6125e-05 | 1.7e-05    |   0.0 |  7.12
Modify  | 0          | 0          | 0          |   0.0 |  0.00
Other   |            | 7.625e-06  |            |       |  3.36

Nlocal:            3.5 ave           4 max           3 min
Histogram: 4 0 0 0 0 0 0 0 0 4
Nghost:            369 ave         371 max         367 min
Histogram: 4 0 0 0 0 0 0 0 0 4
Neighs:         164.25 ave         197 max         133 min
Histogram: 3 1 0 0 0 0 0 0 2 2
FullNghs:        328.5 ave         382 max         275 min
Histogram: 4 0 0 0 0 0 0 0 0 4

Total # of neighbors = 2628
Ave neighs/atom = 93.857143
Neighbor list builds = 0
Dangerous builds = 0
variable  natoms equal "count(all)"
variable xlength equal "lx"
variable  volume equal "vol"
variable  etotal equal "etotal"
variable    ecoh equal "-pe/v_natoms"
print "${xlength}, ${volume}, ${etotal}, ${ecoh}" append lattice_cohesive_energy.txt screen no

next i
jump SELF loop

change_box all x scale 1.0025 y scale 1.0025 z scale 1.0025 remap
Changing box ...
  orthogonal box = (0.06550908 0.21112095 0.24629305) to (2.9668059 9.0499261 10.557616)
  orthogonal box = (0.06550908 0.20007244 0.24629305) to (2.9668059 9.0609746 10.557616)
  orthogonal box = (0.06550908 0.20007244 0.2334039) to (2.9668059 9.0609746 10.570505)

run 1
WARNING: No fixes with time integration, atoms won't move (src/verlet.cpp:60)
Per MPI rank memory allocation (min/avg/max) = 8.531 | 8.532 | 8.532 Mbytes
   Step         PotEng         TotEng           Lx             Ly             Lz           Volume         Press           Pxx            Pyy            Pzz      
      1038  -176.70124     -176.70124      2.9012968      8.8609021      10.337101      265.74731      293311.79      237845.83      462597.82      179491.73    
      1039  -176.70124     -176.70124      2.9012968      8.8609021      10.337101      265.74731      293311.79      237845.83      462597.82      179491.73    
Loop time of 0.00022625 on 8 procs for 1 steps with 28 atoms

Performance: 381.878 ns/day, 0.063 hours/ns, 4419.890 timesteps/s, 123.757 katom-step/s
0.0% CPU use with 8 MPI tasks x 1 OpenMP threads

MPI task timing breakdown:
Section |  min time  |  avg time  |  max time  |%varavg| %total
---------------------------------------------------------------
Pair    | 0.000176   | 0.0001795  | 0.000186   |   0.0 | 79.34
Neigh   | 0          | 0          | 0          |   0.0 |  0.00
Comm    | 1.7e-05    | 2.3e-05    | 2.7e-05    |   0.0 | 10.17
Output  | 1.5e-05    | 1.6375e-05 | 1.7e-05    |   0.0 |  7.24
Modify  | 0          | 3.75e-07   | 2e-06      |   0.0 |  0.17
Other   |            | 7e-06      |            |       |  3.09

Nlocal:            3.5 ave           4 max           3 min
Histogram: 4 0 0 0 0 0 0 0 0 4
Nghost:            369 ave         371 max         367 min
Histogram: 4 0 0 0 0 0 0 0 0 4
Neighs:         162.75 ave         197 max         129 min
Histogram: 3 1 0 0 0 0 0 0 2 2
FullNghs:        325.5 ave         382 max         269 min
Histogram: 4 0 0 0 0 0 0 0 0 4

Total # of neighbors = 2604
Ave neighs/atom = 93
Neighbor list builds = 0
Dangerous builds = 0
variable  natoms equal "count(all)"
variable xlength equal "lx"
variable  volume equal "vol"
variable  etotal equal "etotal"
variable    ecoh equal "-pe/v_natoms"
print "${xlength}, ${volume}, ${etotal}, ${ecoh}" append lattice_cohesive_energy.txt screen no

next i
jump SELF loop

change_box all x scale 1.0025 y scale 1.0025 z scale 1.0025 remap
Changing box ...
  orthogonal box = (0.061882459 0.20007244 0.2334039) to (2.9704325 9.0609746 10.570505)
  orthogonal box = (0.061882459 0.18899632 0.2334039) to (2.9704325 9.0720507 10.570505)
  orthogonal box = (0.061882459 0.18899632 0.22048252) to (2.9704325 9.0720507 10.583426)

run 1
WARNING: No fixes with time integration, atoms won't move (src/verlet.cpp:60)
Per MPI rank memory allocation (min/avg/max) = 8.531 | 8.532 | 8.532 Mbytes
   Step         PotEng         TotEng           Lx             Ly             Lz           Volume         Press           Pxx            Pyy            Pzz      
      1039  -177.05301     -177.05301      2.9085501      8.8830544      10.362944      267.7454       270937.28      216929.43      437084.24      158798.18    
      1040  -177.05301     -177.05301      2.9085501      8.8830544      10.362944      267.7454       270937.28      216929.43      437084.24      158798.18    
Loop time of 0.0003945 on 8 procs for 1 steps with 28 atoms

Performance: 219.011 ns/day, 0.110 hours/ns, 2534.854 timesteps/s, 70.976 katom-step/s
0.0% CPU use with 8 MPI tasks x 1 OpenMP threads

MPI task timing breakdown:
Section |  min time  |  avg time  |  max time  |%varavg| %total
---------------------------------------------------------------
Pair    | 0.000177   | 0.00019037 | 0.000205   |   0.0 | 48.26
Neigh   | 0          | 0          | 0          |   0.0 |  0.00
Comm    | 1.6e-05    | 7.7125e-05 | 0.000133   |   0.0 | 19.55
Output  | 6.7e-05    | 0.00011638 | 0.000166   |   0.0 | 29.50
Modify  | 0          | 0          | 0          |   0.0 |  0.00
Other   |            | 1.063e-05  |            |       |  2.69

Nlocal:            3.5 ave           4 max           3 min
Histogram: 4 0 0 0 0 0 0 0 0 4
Nghost:         365.25 ave         371 max         361 min
Histogram: 2 2 0 0 0 0 2 0 0 2
Neighs:          161.5 ave         194 max         129 min
Histogram: 3 0 1 0 0 0 0 0 2 2
FullNghs:          323 ave         377 max         268 min
Histogram: 4 0 0 0 0 0 0 0 0 4

Total # of neighbors = 2584
Ave neighs/atom = 92.285714
Neighbor list builds = 0
Dangerous builds = 0
variable  natoms equal "count(all)"
variable xlength equal "lx"
variable  volume equal "vol"
variable  etotal equal "etotal"
variable    ecoh equal "-pe/v_natoms"
print "${xlength}, ${volume}, ${etotal}, ${ecoh}" append lattice_cohesive_energy.txt screen no

next i
jump SELF loop

change_box all x scale 1.0025 y scale 1.0025 z scale 1.0025 remap
Changing box ...
  orthogonal box = (0.058246772 0.18899632 0.22048252) to (2.9740682 9.0720507 10.583426)
  orthogonal box = (0.058246772 0.1778925 0.22048252) to (2.9740682 9.0831545 10.583426)
  orthogonal box = (0.058246772 0.1778925 0.20752884) to (2.9740682 9.0831545 10.59638)

run 1
WARNING: No fixes with time integration, atoms won't move (src/verlet.cpp:60)
Per MPI rank memory allocation (min/avg/max) = 8.531 | 8.532 | 8.532 Mbytes
   Step         PotEng         TotEng           Lx             Ly             Lz           Volume         Press           Pxx            Pyy            Pzz      
      1040  -177.37965     -177.37965      2.9158215      8.905262       10.388851      269.75851      249117.82      196547.42      412153.13      138652.91    
      1041  -177.37965     -177.37965      2.9158215      8.905262       10.388851      269.75851      249117.82      196547.42      412153.13      138652.91    
Loop time of 0.00022325 on 8 procs for 1 steps with 28 atoms

Performance: 387.010 ns/day, 0.062 hours/ns, 4479.283 timesteps/s, 125.420 katom-step/s
0.0% CPU use with 8 MPI tasks x 1 OpenMP threads

MPI task timing breakdown:
Section |  min time  |  avg time  |  max time  |%varavg| %total
---------------------------------------------------------------
Pair    | 0.000149   | 0.00016338 | 0.000179   |   0.0 | 73.18
Neigh   | 0          | 0          | 0          |   0.0 |  0.00
Comm    | 1.8e-05    | 3.3625e-05 | 4.9e-05    |   0.0 | 15.06
Output  | 1.6e-05    | 1.75e-05   | 1.9e-05    |   0.0 |  7.84
Modify  | 0          | 1.25e-07   | 1e-06      |   0.0 |  0.06
Other   |            | 8.625e-06  |            |       |  3.86

Nlocal:            3.5 ave           4 max           3 min
Histogram: 4 0 0 0 0 0 0 0 0 4
Nghost:         365.25 ave         371 max         361 min
Histogram: 2 2 0 0 0 0 2 0 0 2
Neighs:          161.5 ave         194 max         129 min
Histogram: 3 0 1 0 0 0 0 0 2 2
FullNghs:          323 ave         377 max         268 min
Histogram: 4 0 0 0 0 0 0 0 0 4

Total # of neighbors = 2584
Ave neighs/atom = 92.285714
Neighbor list builds = 0
Dangerous builds = 0
variable  natoms equal "count(all)"
variable xlength equal "lx"
variable  volume equal "vol"
variable  etotal equal "etotal"
variable    ecoh equal "-pe/v_natoms"
print "${xlength}, ${volume}, ${etotal}, ${ecoh}" append lattice_cohesive_energy.txt screen no

next i
jump SELF loop

change_box all x scale 1.0025 y scale 1.0025 z scale 1.0025 remap
Changing box ...
  orthogonal box = (0.054601995 0.1778925 0.20752884) to (2.977713 9.0831545 10.59638)
  orthogonal box = (0.054601995 0.16676092 0.20752884) to (2.977713 9.0942861 10.59638)
  orthogonal box = (0.054601995 0.16676092 0.19454278) to (2.977713 9.0942861 10.609366)

run 1
WARNING: No fixes with time integration, atoms won't move (src/verlet.cpp:60)
Per MPI rank memory allocation (min/avg/max) = 8.531 | 8.532 | 8.532 Mbytes
   Step         PotEng         TotEng           Lx             Ly             Lz           Volume         Press           Pxx            Pyy            Pzz      
      1041  -177.68148     -177.68148      2.923111       8.9275252      10.414823      271.78676      227843.76      176689.92      387795.29      119046.06    
      1042  -177.68148     -177.68148      2.923111       8.9275252      10.414823      271.78676      227843.76      176689.92      387795.29      119046.06    
Loop time of 0.000221875 on 8 procs for 1 steps with 28 atoms

Performance: 389.408 ns/day, 0.062 hours/ns, 4507.042 timesteps/s, 126.197 katom-step/s
0.0% CPU use with 8 MPI tasks x 1 OpenMP threads

MPI task timing breakdown:
Section |  min time  |  avg time  |  max time  |%varavg| %total
---------------------------------------------------------------
Pair    | 0.000152   | 0.0001665  | 0.00018    |   0.0 | 75.04
Neigh   | 0          | 0          | 0          |   0.0 |  0.00
Comm    | 1.7e-05    | 3e-05      | 4.4e-05    |   0.0 | 13.52
Output  | 1.6e-05    | 1.7375e-05 | 1.9e-05    |   0.0 |  7.83
Modify  | 0          | 2.5e-07    | 2e-06      |   0.0 |  0.11
Other   |            | 7.75e-06   |            |       |  3.49

Nlocal:            3.5 ave           4 max           3 min
Histogram: 4 0 0 0 0 0 0 0 0 4
Nghost:         365.25 ave         371 max         361 min
Histogram: 2 2 0 0 0 0 2 0 0 2
Neighs:         160.75 ave         192 max         129 min
Histogram: 3 1 0 0 0 0 0 0 1 3
FullNghs:        321.5 ave         376 max         267 min
Histogram: 4 0 0 0 0 0 0 0 0 4

Total # of neighbors = 2572
Ave neighs/atom = 91.857143
Neighbor list builds = 0
Dangerous builds = 0
variable  natoms equal "count(all)"
variable xlength equal "lx"
variable  volume equal "vol"
variable  etotal equal "etotal"
variable    ecoh equal "-pe/v_natoms"
print "${xlength}, ${volume}, ${etotal}, ${ecoh}" append lattice_cohesive_energy.txt screen no

next i
jump SELF loop

change_box all x scale 1.0025 y scale 1.0025 z scale 1.0025 remap
Changing box ...
  orthogonal box = (0.050948106 0.16676092 0.19454278) to (2.9813669 9.0942861 10.609366)
  orthogonal box = (0.050948106 0.15560151 0.19454278) to (2.9813669 9.1054455 10.609366)
  orthogonal box = (0.050948106 0.15560151 0.18152425) to (2.9813669 9.1054455 10.622385)

run 1
WARNING: No fixes with time integration, atoms won't move (src/verlet.cpp:60)
Per MPI rank memory allocation (min/avg/max) = 8.531 | 8.532 | 8.532 Mbytes
   Step         PotEng         TotEng           Lx             Ly             Lz           Volume         Press           Pxx            Pyy            Pzz      
      1042  -177.95879     -177.95879      2.9304188      8.949844       10.440861      273.83027      207105.57      157347.16      364001.61      99967.947    
      1043  -177.95879     -177.95879      2.9304188      8.949844       10.440861      273.83027      207105.57      157347.16      364001.61      99967.947    
Loop time of 0.00022575 on 8 procs for 1 steps with 28 atoms

Performance: 382.724 ns/day, 0.063 hours/ns, 4429.679 timesteps/s, 124.031 katom-step/s
0.0% CPU use with 8 MPI tasks x 1 OpenMP threads

MPI task timing breakdown:
Section |  min time  |  avg time  |  max time  |%varavg| %total
---------------------------------------------------------------
Pair    | 0.00015    | 0.00016387 | 0.000177   |   0.0 | 72.59
Neigh   | 0          | 0          | 0          |   0.0 |  0.00
Comm    | 1.6e-05    | 2.9375e-05 | 4.4e-05    |   0.0 | 13.01
Output  | 1.5e-05    | 1.7125e-05 | 1.9e-05    |   0.0 |  7.59
Modify  | 0          | 2.5e-07    | 1e-06      |   0.0 |  0.11
Other   |            | 1.512e-05  |            |       |  6.70

Nlocal:            3.5 ave           4 max           3 min
Histogram: 4 0 0 0 0 0 0 0 0 4
Nghost:         360.25 ave         371 max         351 min
Histogram: 4 0 0 0 0 0 0 0 2 2
Neighs:         159.75 ave         192 max         129 min
Histogram: 3 1 0 0 0 0 0 1 0 3
FullNghs:        319.5 ave         374 max         267 min
Histogram: 4 0 0 0 0 0 0 0 0 4

Total # of neighbors = 2556
Ave neighs/atom = 91.285714
Neighbor list builds = 0
Dangerous builds = 0
variable  natoms equal "count(all)"
variable xlength equal "lx"
variable  volume equal "vol"
variable  etotal equal "etotal"
variable    ecoh equal "-pe/v_natoms"
print "${xlength}, ${volume}, ${etotal}, ${ecoh}" append lattice_cohesive_energy.txt screen no

next i
jump SELF loop

change_box all x scale 1.0025 y scale 1.0025 z scale 1.0025 remap
Changing box ...
  orthogonal box = (0.047285082 0.15560151 0.18152425) to (2.9850299 9.1054455 10.622385)
  orthogonal box = (0.047285082 0.14441421 0.18152425) to (2.9850299 9.1166328 10.622385)
  orthogonal box = (0.047285082 0.14441421 0.16847317) to (2.9850299 9.1166328 10.635436)

run 1
WARNING: No fixes with time integration, atoms won't move (src/verlet.cpp:60)
Per MPI rank memory allocation (min/avg/max) = 8.531 | 8.532 | 8.532 Mbytes
   Step         PotEng         TotEng           Lx             Ly             Lz           Volume         Press           Pxx            Pyy            Pzz      
      1043  -178.21187     -178.21187      2.9377448      8.9722186      10.466963      275.88913      186893.86      138509.53      340763.07      81408.978    
      1044  -178.21187     -178.21187      2.9377448      8.9722186      10.466963      275.88913      186893.86      138509.53      340763.07      81408.978    
Loop time of 0.000214625 on 8 procs for 1 steps with 28 atoms

Performance: 402.563 ns/day, 0.060 hours/ns, 4659.289 timesteps/s, 130.460 katom-step/s
0.0% CPU use with 8 MPI tasks x 1 OpenMP threads

MPI task timing breakdown:
Section |  min time  |  avg time  |  max time  |%varavg| %total
---------------------------------------------------------------
Pair    | 0.000147   | 0.00016087 | 0.000174   |   0.0 | 74.96
Neigh   | 0          | 0          | 0          |   0.0 |  0.00
Comm    | 1.7e-05    | 2.9625e-05 | 4.3e-05    |   0.0 | 13.80
Output  | 1.5e-05    | 1.675e-05  | 1.8e-05    |   0.0 |  7.80
Modify  | 0          | 1.25e-07   | 1e-06      |   0.0 |  0.06
Other   |            | 7.25e-06   |            |       |  3.38

Nlocal:            3.5 ave           4 max           3 min
Histogram: 4 0 0 0 0 0 0 0 0 4
Nghost:          351.5 ave         352 max         351 min
Histogram: 4 0 0 0 0 0 0 0 0 4
Neighs:         158.75 ave         192 max         127 min
Histogram: 2 1 1 0 0 0 0 1 1 2
FullNghs:        317.5 ave         372 max         265 min
Histogram: 4 0 0 0 0 0 0 0 0 4

Total # of neighbors = 2540
Ave neighs/atom = 90.714286
Neighbor list builds = 0
Dangerous builds = 0
variable  natoms equal "count(all)"
variable xlength equal "lx"
variable  volume equal "vol"
variable  etotal equal "etotal"
variable    ecoh equal "-pe/v_natoms"
print "${xlength}, ${volume}, ${etotal}, ${ecoh}" append lattice_cohesive_energy.txt screen no

next i
jump SELF loop

change_box all x scale 1.0025 y scale 1.0025 z scale 1.0025 remap
Changing box ...
  orthogonal box = (0.043612901 0.14441421 0.16847317) to (2.9887021 9.1166328 10.635436)
  orthogonal box = (0.043612901 0.13319894 0.16847317) to (2.9887021 9.1278481 10.635436)
  orthogonal box = (0.043612901 0.13319894 0.15538947) to (2.9887021 9.1278481 10.64852)

run 1
WARNING: No fixes with time integration, atoms won't move (src/verlet.cpp:60)
Per MPI rank memory allocation (min/avg/max) = 8.531 | 8.532 | 8.532 Mbytes
   Step         PotEng         TotEng           Lx             Ly             Lz           Volume         Press           Pxx            Pyy            Pzz      
      1044  -178.44102     -178.44102      2.9450892      8.9946491      10.49313       277.96348      167199.36      120167.57      318070.79      63359.714    
      1045  -178.44102     -178.44102      2.9450892      8.9946491      10.49313       277.96348      167199.36      120167.57      318070.79      63359.714    
Loop time of 0.000211625 on 8 procs for 1 steps with 28 atoms

Performance: 408.269 ns/day, 0.059 hours/ns, 4725.340 timesteps/s, 132.310 katom-step/s
0.0% CPU use with 8 MPI tasks x 1 OpenMP threads

MPI task timing breakdown:
Section |  min time  |  avg time  |  max time  |%varavg| %total
---------------------------------------------------------------
Pair    | 0.000145   | 0.00015825 | 0.000171   |   0.0 | 74.78
Neigh   | 0          | 0          | 0          |   0.0 |  0.00
Comm    | 1.7e-05    | 2.9375e-05 | 4.3e-05    |   0.0 | 13.88
Output  | 1.5e-05    | 1.6875e-05 | 1.8e-05    |   0.0 |  7.97
Modify  | 0          | 1.25e-07   | 1e-06      |   0.0 |  0.06
Other   |            | 7e-06      |            |       |  3.31

Nlocal:            3.5 ave           4 max           3 min
Histogram: 4 0 0 0 0 0 0 0 0 4
Nghost:          351.5 ave         352 max         351 min
Histogram: 4 0 0 0 0 0 0 0 0 4
Neighs:         157.25 ave         192 max         123 min
Histogram: 2 1 1 0 0 0 0 1 2 1
FullNghs:        314.5 ave         370 max         261 min
Histogram: 4 0 0 0 0 0 0 0 0 4

Total # of neighbors = 2516
Ave neighs/atom = 89.857143
Neighbor list builds = 0
Dangerous builds = 0
variable  natoms equal "count(all)"
variable xlength equal "lx"
variable  volume equal "vol"
variable  etotal equal "etotal"
variable    ecoh equal "-pe/v_natoms"
print "${xlength}, ${volume}, ${etotal}, ${ecoh}" append lattice_cohesive_energy.txt screen no

next i
jump SELF loop

change_box all x scale 1.0025 y scale 1.0025 z scale 1.0025 remap
Changing box ...
  orthogonal box = (0.03993154 0.13319894 0.15538947) to (2.9923835 9.1278481 10.64852)
  orthogonal box = (0.03993154 0.12195562 0.15538947) to (2.9923835 9.1390914 10.64852)
  orthogonal box = (0.03993154 0.12195562 0.14227306) to (2.9923835 9.1390914 10.661636)

run 1
WARNING: No fixes with time integration, atoms won't move (src/verlet.cpp:60)
Per MPI rank memory allocation (min/avg/max) = 8.531 | 8.532 | 8.532 Mbytes
   Step         PotEng         TotEng           Lx             Ly             Lz           Volume         Press           Pxx            Pyy            Pzz      
      1045  -178.64654     -178.64654      2.9524519      9.0171358      10.519363      280.05342      148012.93      102311.96      295915.99      45810.845    
      1046  -178.64654     -178.64654      2.9524519      9.0171358      10.519363      280.05342      148012.93      102311.96      295915.99      45810.845    
Loop time of 0.000215 on 8 procs for 1 steps with 28 atoms

Performance: 401.860 ns/day, 0.060 hours/ns, 4651.163 timesteps/s, 130.233 katom-step/s
908.4% CPU use with 8 MPI tasks x 1 OpenMP threads

MPI task timing breakdown:
Section |  min time  |  avg time  |  max time  |%varavg| %total
---------------------------------------------------------------
Pair    | 0.000149   | 0.00016175 | 0.000175   |   0.0 | 75.23
Neigh   | 0          | 0          | 0          |   0.0 |  0.00
Comm    | 1.6e-05    | 2.9125e-05 | 4.3e-05    |   0.0 | 13.55
Output  | 1.5e-05    | 1.675e-05  | 1.8e-05    |   0.0 |  7.79
Modify  | 0          | 1.25e-07   | 1e-06      |   0.0 |  0.06
Other   |            | 7.25e-06   |            |       |  3.37

Nlocal:            3.5 ave           4 max           3 min
Histogram: 4 0 0 0 0 0 0 0 0 4
Nghost:          351.5 ave         352 max         351 min
Histogram: 4 0 0 0 0 0 0 0 0 4
Neighs:            157 ave         191 max         123 min
Histogram: 2 1 1 0 0 0 0 1 1 2
FullNghs:          314 ave         369 max         261 min
Histogram: 4 0 0 0 0 0 0 0 0 4

Total # of neighbors = 2512
Ave neighs/atom = 89.714286
Neighbor list builds = 0
Dangerous builds = 0
variable  natoms equal "count(all)"
variable xlength equal "lx"
variable  volume equal "vol"
variable  etotal equal "etotal"
variable    ecoh equal "-pe/v_natoms"
print "${xlength}, ${volume}, ${etotal}, ${ecoh}" append lattice_cohesive_energy.txt screen no

next i
jump SELF loop

change_box all x scale 1.0025 y scale 1.0025 z scale 1.0025 remap
Changing box ...
  orthogonal box = (0.036240975 0.12195562 0.14227306) to (2.996074 9.1390914 10.661636)
  orthogonal box = (0.036240975 0.1106842 0.14227306) to (2.996074 9.1503628 10.661636)
  orthogonal box = (0.036240975 0.1106842 0.12912385) to (2.996074 9.1503628 10.674785)

run 1
WARNING: No fixes with time integration, atoms won't move (src/verlet.cpp:60)
Per MPI rank memory allocation (min/avg/max) = 8.531 | 8.532 | 8.532 Mbytes
   Step         PotEng         TotEng           Lx             Ly             Lz           Volume         Press           Pxx            Pyy            Pzz      
      1046  -178.82871     -178.82871      2.959833       9.0396786      10.545661      282.15908      129325.57      84933.518      274289.99      28753.194    
      1047  -178.82871     -178.82871      2.959833       9.0396786      10.545661      282.15908      129325.57      84933.518      274289.99      28753.194    
Loop time of 0.000213875 on 8 procs for 1 steps with 28 atoms

Performance: 403.974 ns/day, 0.059 hours/ns, 4675.628 timesteps/s, 130.918 katom-step/s
0.0% CPU use with 8 MPI tasks x 1 OpenMP threads

MPI task timing breakdown:
Section |  min time  |  avg time  |  max time  |%varavg| %total
---------------------------------------------------------------
Pair    | 0.000147   | 0.00016062 | 0.000174   |   0.0 | 75.10
Neigh   | 0          | 0          | 0          |   0.0 |  0.00
Comm    | 1.6e-05    | 2.9e-05    | 4.3e-05    |   0.0 | 13.56
Output  | 1.5e-05    | 1.65e-05   | 1.8e-05    |   0.0 |  7.71
Modify  | 0          | 3.75e-07   | 1e-06      |   0.0 |  0.18
Other   |            | 7.375e-06  |            |       |  3.45

Nlocal:            3.5 ave           4 max           3 min
Histogram: 4 0 0 0 0 0 0 0 0 4
Nghost:          351.5 ave         352 max         351 min
Histogram: 4 0 0 0 0 0 0 0 0 4
Neighs:            156 ave         187 max         123 min
Histogram: 2 1 1 0 0 0 0 1 0 3
FullNghs:          312 ave         365 max         261 min
Histogram: 4 0 0 0 0 0 0 0 0 4

Total # of neighbors = 2496
Ave neighs/atom = 89.142857
Neighbor list builds = 0
Dangerous builds = 0
variable  natoms equal "count(all)"
variable xlength equal "lx"
variable  volume equal "vol"
variable  etotal equal "etotal"
variable    ecoh equal "-pe/v_natoms"
print "${xlength}, ${volume}, ${etotal}, ${ecoh}" append lattice_cohesive_energy.txt screen no

next i
jump SELF loop

change_box all x scale 1.0025 y scale 1.0025 z scale 1.0025 remap
Changing box ...
  orthogonal box = (0.032541184 0.1106842 0.12912385) to (2.9997738 9.1503628 10.674785)
  orthogonal box = (0.032541184 0.099384606 0.12912385) to (2.9997738 9.1616624 10.674785)
  orthogonal box = (0.032541184 0.099384606 0.11594178) to (2.9997738 9.1616624 10.687967)

run 1
WARNING: No fixes with time integration, atoms won't move (src/verlet.cpp:60)
Per MPI rank memory allocation (min/avg/max) = 8.531 | 8.532 | 8.532 Mbytes
   Step         PotEng         TotEng           Lx             Ly             Lz           Volume         Press           Pxx            Pyy            Pzz      
      1047  -178.98784     -178.98784      2.9672326      9.0622778      10.572025      284.28056      111128.38      68023.199      253184.21      12177.714    
      1048  -178.98784     -178.98784      2.9672326      9.0622778      10.572025      284.28056      111128.38      68023.199      253184.21      12177.714    
Loop time of 0.00020525 on 8 procs for 1 steps with 28 atoms

Performance: 420.950 ns/day, 0.057 hours/ns, 4872.107 timesteps/s, 136.419 katom-step/s
0.0% CPU use with 8 MPI tasks x 1 OpenMP threads

MPI task timing breakdown:
Section |  min time  |  avg time  |  max time  |%varavg| %total
---------------------------------------------------------------
Pair    | 0.000138   | 0.00015125 | 0.000164   |   0.0 | 73.69
Neigh   | 0          | 0          | 0          |   0.0 |  0.00
Comm    | 1.7e-05    | 2.975e-05  | 4.4e-05    |   0.0 | 14.49
Output  | 1.4e-05    | 1.6875e-05 | 1.9e-05    |   0.0 |  8.22
Modify  | 0          | 0          | 0          |   0.0 |  0.00
Other   |            | 7.375e-06  |            |       |  3.59

Nlocal:            3.5 ave           4 max           3 min
Histogram: 4 0 0 0 0 0 0 0 0 4
Nghost:          346.5 ave         352 max         341 min
Histogram: 4 0 0 0 0 0 0 0 0 4
Neighs:          154.5 ave         185 max         121 min
Histogram: 2 0 2 0 0 0 0 1 0 3
FullNghs:          309 ave         361 max         259 min
Histogram: 4 0 0 0 0 0 0 0 0 4

Total # of neighbors = 2472
Ave neighs/atom = 88.285714
Neighbor list builds = 0
Dangerous builds = 0
variable  natoms equal "count(all)"
variable xlength equal "lx"
variable  volume equal "vol"
variable  etotal equal "etotal"
variable    ecoh equal "-pe/v_natoms"
print "${xlength}, ${volume}, ${etotal}, ${ecoh}" append lattice_cohesive_energy.txt screen no

next i
jump SELF loop

change_box all x scale 1.0025 y scale 1.0025 z scale 1.0025 remap
Changing box ...
  orthogonal box = (0.028832143 0.099384606 0.11594178) to (3.0034829 9.1616624 10.687967)
  orthogonal box = (0.028832143 0.088056759 0.11594178) to (3.0034829 9.1729902 10.687967)
  orthogonal box = (0.028832143 0.088056759 0.10272674) to (3.0034829 9.1729902 10.701182)

run 1
WARNING: No fixes with time integration, atoms won't move (src/verlet.cpp:60)
Per MPI rank memory allocation (min/avg/max) = 8.531 | 8.532 | 8.532 Mbytes
   Step         PotEng         TotEng           Lx             Ly             Lz           Volume         Press           Pxx            Pyy            Pzz      
      1048  -179.12421     -179.12421      2.9746507      9.0849335      10.598456      286.418        93412.582      51572.089      232590.19     -3924.5316    
      1049  -179.12421     -179.12421      2.9746507      9.0849335      10.598456      286.418        93412.582      51572.089      232590.19     -3924.5316    
Loop time of 0.0002225 on 8 procs for 1 steps with 28 atoms

Performance: 388.315 ns/day, 0.062 hours/ns, 4494.382 timesteps/s, 125.843 katom-step/s
0.0% CPU use with 8 MPI tasks x 1 OpenMP threads

MPI task timing breakdown:
Section |  min time  |  avg time  |  max time  |%varavg| %total
---------------------------------------------------------------
Pair    | 0.000164   | 0.00017275 | 0.000182   |   0.0 | 77.64
Neigh   | 0          | 0          | 0          |   0.0 |  0.00
Comm    | 1.6e-05    | 2.5e-05    | 3.4e-05    |   0.0 | 11.24
Output  | 1.5e-05    | 1.7e-05    | 1.9e-05    |   0.0 |  7.64
Modify  | 0          | 0          | 0          |   0.0 |  0.00
Other   |            | 7.75e-06   |            |       |  3.48

Nlocal:            3.5 ave           4 max           3 min
Histogram: 4 0 0 0 0 0 0 0 0 4
Nghost:          346.5 ave         352 max         341 min
Histogram: 4 0 0 0 0 0 0 0 0 4
Neighs:         152.75 ave         183 max         119 min
Histogram: 1 2 1 0 0 0 0 1 0 3
FullNghs:        305.5 ave         357 max         255 min
Histogram: 4 0 0 0 0 0 0 0 0 4

Total # of neighbors = 2444
Ave neighs/atom = 87.285714
Neighbor list builds = 0
Dangerous builds = 0
variable  natoms equal "count(all)"
variable xlength equal "lx"
variable  volume equal "vol"
variable  etotal equal "etotal"
variable    ecoh equal "-pe/v_natoms"
print "${xlength}, ${volume}, ${etotal}, ${ecoh}" append lattice_cohesive_energy.txt screen no

next i
jump SELF loop

change_box all x scale 1.0025 y scale 1.0025 z scale 1.0025 remap
Changing box ...
  orthogonal box = (0.02511383 0.088056759 0.10272674) to (3.0072012 9.1729902 10.701182)
  orthogonal box = (0.02511383 0.076700592 0.10272674) to (3.0072012 9.1843464 10.701182)
  orthogonal box = (0.02511383 0.076700592 0.089478675) to (3.0072012 9.1843464 10.71443)

run 1
WARNING: No fixes with time integration, atoms won't move (src/verlet.cpp:60)
Per MPI rank memory allocation (min/avg/max) = 8.531 | 8.532 | 8.532 Mbytes
   Step         PotEng         TotEng           Lx             Ly             Lz           Volume         Press           Pxx            Pyy            Pzz      
      1049  -179.23811     -179.23811      2.9820873      9.1076458      10.624952      288.57151      76169.551      35571.425      212499.56     -19562.334    
      1050  -179.23811     -179.23811      2.9820873      9.1076458      10.624952      288.57151      76169.551      35571.425      212499.56     -19562.334    
Loop time of 0.000215875 on 8 procs for 1 steps with 28 atoms

Performance: 400.232 ns/day, 0.060 hours/ns, 4632.310 timesteps/s, 129.705 katom-step/s
0.0% CPU use with 8 MPI tasks x 1 OpenMP threads

MPI task timing breakdown:
Section |  min time  |  avg time  |  max time  |%varavg| %total
---------------------------------------------------------------
Pair    | 0.000139   | 0.00015612 | 0.000173   |   0.0 | 72.32
Neigh   | 0          | 0          | 0          |   0.0 |  0.00
Comm    | 1.8e-05    | 3.475e-05  | 5.1e-05    |   0.0 | 16.10
Output  | 1.6e-05    | 1.7625e-05 | 1.9e-05    |   0.0 |  8.16
Modify  | 0          | 0          | 0          |   0.0 |  0.00
Other   |            | 7.375e-06  |            |       |  3.42

Nlocal:            3.5 ave           4 max           3 min
Histogram: 4 0 0 0 0 0 0 0 0 4
Nghost:          346.5 ave         352 max         341 min
Histogram: 4 0 0 0 0 0 0 0 0 4
Neighs:         152.25 ave         181 max         119 min
Histogram: 1 2 1 0 0 0 0 0 1 3
FullNghs:        304.5 ave         355 max         255 min
Histogram: 4 0 0 0 0 0 0 0 0 4

Total # of neighbors = 2436
Ave neighs/atom = 87
Neighbor list builds = 0
Dangerous builds = 0
variable  natoms equal "count(all)"
variable xlength equal "lx"
variable  volume equal "vol"
variable  etotal equal "etotal"
variable    ecoh equal "-pe/v_natoms"
print "${xlength}, ${volume}, ${etotal}, ${ecoh}" append lattice_cohesive_energy.txt screen no

next i
jump SELF loop

change_box all x scale 1.0025 y scale 1.0025 z scale 1.0025 remap
Changing box ...
  orthogonal box = (0.02138622 0.076700592 0.089478675) to (3.0109288 9.1843464 10.71443)
  orthogonal box = (0.02138622 0.065316035 0.089478675) to (3.0109288 9.195731 10.71443)
  orthogonal box = (0.02138622 0.065316035 0.076197486) to (3.0109288 9.195731 10.727712)

run 1
WARNING: No fixes with time integration, atoms won't move (src/verlet.cpp:60)
Per MPI rank memory allocation (min/avg/max) = 8.531 | 8.532 | 8.532 Mbytes
   Step         PotEng         TotEng           Lx             Ly             Lz           Volume         Press           Pxx            Pyy            Pzz      
      1050  -179.32984     -179.32984      2.9895426      9.1304149      10.651514      290.74121      59390.767      20012.584      192904.08     -34744.361    
      1051  -179.32984     -179.32984      2.9895426      9.1304149      10.651514      290.74121      59390.767      20012.584      192904.08     -34744.361    
Loop time of 0.000196125 on 8 procs for 1 steps with 28 atoms

Performance: 440.535 ns/day, 0.054 hours/ns, 5098.789 timesteps/s, 142.766 katom-step/s
0.0% CPU use with 8 MPI tasks x 1 OpenMP threads

MPI task timing breakdown:
Section |  min time  |  avg time  |  max time  |%varavg| %total
---------------------------------------------------------------
Pair    | 0.000133   | 0.00014475 | 0.000156   |   0.0 | 73.80
Neigh   | 0          | 0          | 0          |   0.0 |  0.00
Comm    | 1.6e-05    | 2.725e-05  | 3.8e-05    |   0.0 | 13.89
Output  | 1.5e-05    | 1.675e-05  | 1.8e-05    |   0.0 |  8.54
Modify  | 0          | 1.25e-07   | 1e-06      |   0.0 |  0.06
Other   |            | 7.25e-06   |            |       |  3.70

Nlocal:            3.5 ave           4 max           3 min
Histogram: 4 0 0 0 0 0 0 0 0 4
Nghost:          341.5 ave         342 max         341 min
Histogram: 4 0 0 0 0 0 0 0 0 4
Neighs:            151 ave         179 max         119 min
Histogram: 1 2 1 0 0 0 0 0 2 2
FullNghs:          302 ave         348 max         255 min
Histogram: 4 0 0 0 0 0 0 0 0 4

Total # of neighbors = 2416
Ave neighs/atom = 86.285714
Neighbor list builds = 0
Dangerous builds = 0
variable  natoms equal "count(all)"
variable xlength equal "lx"
variable  volume equal "vol"
variable  etotal equal "etotal"
variable    ecoh equal "-pe/v_natoms"
print "${xlength}, ${volume}, ${etotal}, ${ecoh}" append lattice_cohesive_energy.txt screen no

next i
jump SELF loop

change_box all x scale 1.0025 y scale 1.0025 z scale 1.0025 remap
Changing box ...
  orthogonal box = (0.017649292 0.065316035 0.076197486) to (3.0146657 9.195731 10.727712)
  orthogonal box = (0.017649292 0.053903016 0.076197486) to (3.0146657 9.207144 10.727712)
  orthogonal box = (0.017649292 0.053903016 0.062883093) to (3.0146657 9.207144 10.741026)

run 1
WARNING: No fixes with time integration, atoms won't move (src/verlet.cpp:60)
Per MPI rank memory allocation (min/avg/max) = 8.531 | 8.532 | 8.532 Mbytes
   Step         PotEng         TotEng           Lx             Ly             Lz           Volume         Press           Pxx            Pyy            Pzz      
      1051  -179.39967     -179.39967      2.9970164      9.153241       10.678143      292.92723      43067.822      4887.0596      173795.56     -49479.156    
      1052  -179.39967     -179.39967      2.9970164      9.153241       10.678143      292.92723      43067.822      4887.0596      173795.56     -49479.156    
Loop time of 0.000195375 on 8 procs for 1 steps with 28 atoms

Performance: 442.226 ns/day, 0.054 hours/ns, 5118.362 timesteps/s, 143.314 katom-step/s
0.0% CPU use with 8 MPI tasks x 1 OpenMP threads

MPI task timing breakdown:
Section |  min time  |  avg time  |  max time  |%varavg| %total
---------------------------------------------------------------
Pair    | 0.000134   | 0.00014462 | 0.000156   |   0.0 | 74.02
Neigh   | 0          | 0          | 0          |   0.0 |  0.00
Comm    | 1.6e-05    | 2.6875e-05 | 3.7e-05    |   0.0 | 13.76
Output  | 1.5e-05    | 1.675e-05  | 1.8e-05    |   0.0 |  8.57
Modify  | 0          | 0          | 0          |   0.0 |  0.00
Other   |            | 7.125e-06  |            |       |  3.65

Nlocal:            3.5 ave           4 max           3 min
Histogram: 4 0 0 0 0 0 0 0 0 4
Nghost:          341.5 ave         342 max         341 min
Histogram: 4 0 0 0 0 0 0 0 0 4
Neighs:         150.25 ave         179 max         119 min
Histogram: 1 2 1 0 0 0 0 0 2 2
FullNghs:        300.5 ave         348 max         253 min
Histogram: 4 0 0 0 0 0 0 0 0 4

Total # of neighbors = 2404
Ave neighs/atom = 85.857143
Neighbor list builds = 0
Dangerous builds = 0
variable  natoms equal "count(all)"
variable xlength equal "lx"
variable  volume equal "vol"
variable  etotal equal "etotal"
variable    ecoh equal "-pe/v_natoms"
print "${xlength}, ${volume}, ${etotal}, ${ecoh}" append lattice_cohesive_energy.txt screen no

next i
[...]
Neigh   | 0          | 0          | 0          |   0.0 |  0.00
Comm    | 1.4e-05    | 2.1125e-05 | 2.6e-05    |   0.0 | 11.06
Output  | 1.6e-05    | 1.8125e-05 | 2.6e-05    |   0.0 |  9.49
Modify  | 0          | 0          | 0          |   0.0 |  0.00
Other   |            | 1.313e-05  |            |       |  6.87

Nlocal:            3.5 ave           4 max           3 min
Histogram: 4 0 0 0 0 0 0 0 0 4
Nghost:         315.25 ave         317 max         311 min
Histogram: 2 0 0 0 0 0 0 0 2 4
Neighs:            129 ave         155 max         104 min
Histogram: 2 1 1 0 0 0 0 2 0 2
FullNghs:          258 ave         299 max         216 min
Histogram: 4 0 0 0 0 0 0 0 0 4

Total # of neighbors = 2064
Ave neighs/atom = 73.714286
Neighbor list builds = 0
Dangerous builds = 0
variable  natoms equal "count(all)"
variable xlength equal "lx"
variable  volume equal "vol"
variable  etotal equal "etotal"
variable    ecoh equal "-pe/v_natoms"
print "${xlength}, ${volume}, ${etotal}, ${ecoh}" append lattice_cohesive_energy.txt screen no

next i
jump SELF loop

change_box all x scale 1.0025 y scale 1.0025 z scale 1.0025 remap
Changing box ...
  orthogonal box = (-0.063020675 -0.18044514 -0.21050675) to (3.0953357 9.4414921 11.014416)
  orthogonal box = (-0.063020675 -0.19247256 -0.21050675) to (3.0953357 9.4535196 11.014416)
  orthogonal box = (-0.063020675 -0.19247256 -0.2245379) to (3.0953357 9.4535196 11.028447)

run 1
WARNING: No fixes with time integration, atoms won't move (src/verlet.cpp:60)
Per MPI rank memory allocation (min/avg/max) = 8.523 | 8.524 | 8.525 Mbytes
   Step         PotEng         TotEng           Lx             Ly             Lz           Volume         Press           Pxx            Pyy            Pzz      
      1072  -176.30607     -176.30607      3.1583564      9.6459921      11.252985      342.82759     -208095.45     -226387.17     -128398.22     -269500.97    
      1073  -176.30607     -176.30607      3.1583564      9.6459921      11.252985      342.82759     -208095.45     -226387.17     -128398.22     -269500.97    
Loop time of 0.000183625 on 8 procs for 1 steps with 28 atoms

Performance: 470.524 ns/day, 0.051 hours/ns, 5445.882 timesteps/s, 152.485 katom-step/s
0.0% CPU use with 8 MPI tasks x 1 OpenMP threads

MPI task timing breakdown:
Section |  min time  |  avg time  |  max time  |%varavg| %total
---------------------------------------------------------------
Pair    | 0.000129   | 0.000136   | 0.000145   |   0.0 | 74.06
Neigh   | 0          | 0          | 0          |   0.0 |  0.00
Comm    | 1.4e-05    | 2.2375e-05 | 2.8e-05    |   0.0 | 12.19
Output  | 1.6e-05    | 1.6875e-05 | 1.8e-05    |   0.0 |  9.19
Modify  | 0          | 2.5e-07    | 1e-06      |   0.0 |  0.14
Other   |            | 8.125e-06  |            |       |  4.42

Nlocal:            3.5 ave           4 max           3 min
Histogram: 4 0 0 0 0 0 0 0 0 4
Nghost:            309 ave         312 max         306 min
Histogram: 4 0 0 0 0 0 0 0 0 4
Neighs:         128.25 ave         155 max         104 min
Histogram: 2 1 1 0 0 0 0 2 0 2
FullNghs:        256.5 ave         295 max         216 min
Histogram: 4 0 0 0 0 0 0 0 0 4

Total # of neighbors = 2052
Ave neighs/atom = 73.285714
Neighbor list builds = 0
Dangerous builds = 0
variable  natoms equal "count(all)"
variable xlength equal "lx"
variable  volume equal "vol"
variable  etotal equal "etotal"
variable    ecoh equal "-pe/v_natoms"
print "${xlength}, ${volume}, ${etotal}, ${ecoh}" append lattice_cohesive_energy.txt screen no

next i
jump SELF loop

change_box all x scale 1.0025 y scale 1.0025 z scale 1.0025 remap
Changing box ...
  orthogonal box = (-0.06696862 -0.19247256 -0.2245379) to (3.0992836 9.4535196 11.028447)
  orthogonal box = (-0.06696862 -0.20453005 -0.2245379) to (3.0992836 9.4655771 11.028447)
  orthogonal box = (-0.06696862 -0.20453005 -0.23860413) to (3.0992836 9.4655771 11.042513)

run 1
WARNING: No fixes with time integration, atoms won't move (src/verlet.cpp:60)
Per MPI rank memory allocation (min/avg/max) = 8.523 | 8.524 | 8.525 Mbytes
   Step         PotEng         TotEng           Lx             Ly             Lz           Volume         Press           Pxx            Pyy            Pzz      
      1073  -175.96463     -175.96463      3.1662522      9.6701071      11.281117      345.40523     -216290        -233882.48     -138660.81     -276326.7     
      1074  -175.96463     -175.96463      3.1662522      9.6701071      11.281117      345.40523     -216290        -233882.48     -138660.81     -276326.7     
Loop time of 0.000180375 on 8 procs for 1 steps with 28 atoms

Performance: 479.002 ns/day, 0.050 hours/ns, 5544.006 timesteps/s, 155.232 katom-step/s
0.0% CPU use with 8 MPI tasks x 1 OpenMP threads

MPI task timing breakdown:
Section |  min time  |  avg time  |  max time  |%varavg| %total
---------------------------------------------------------------
Pair    | 0.000128   | 0.00013412 | 0.000142   |   0.0 | 74.36
Neigh   | 0          | 0          | 0          |   0.0 |  0.00
Comm    | 1.4e-05    | 2.075e-05  | 2.6e-05    |   0.0 | 11.50
Output  | 1.6e-05    | 1.7125e-05 | 1.9e-05    |   0.0 |  9.49
Modify  | 0          | 5e-07      | 1e-06      |   0.0 |  0.28
Other   |            | 7.875e-06  |            |       |  4.37

Nlocal:            3.5 ave           4 max           3 min
Histogram: 4 0 0 0 0 0 0 0 0 4
Nghost:         302.75 ave         307 max         301 min
Histogram: 4 2 0 0 0 0 0 0 0 2
Neighs:         128.25 ave         155 max         104 min
Histogram: 2 1 1 0 0 0 0 2 0 2
FullNghs:        256.5 ave         295 max         216 min
Histogram: 4 0 0 0 0 0 0 0 0 4

Total # of neighbors = 2052
Ave neighs/atom = 73.285714
Neighbor list builds = 0
Dangerous builds = 0
variable  natoms equal "count(all)"
variable xlength equal "lx"
variable  volume equal "vol"
variable  etotal equal "etotal"
variable    ecoh equal "-pe/v_natoms"
print "${xlength}, ${volume}, ${etotal}, ${ecoh}" append lattice_cohesive_energy.txt screen no

next i
jump SELF loop

change_box all x scale 1.0025 y scale 1.0025 z scale 1.0025 remap
Changing box ...
  orthogonal box = (-0.070926436 -0.20453005 -0.23860413) to (3.1032414 9.4655771 11.042513)
  orthogonal box = (-0.070926436 -0.21661768 -0.23860413) to (3.1032414 9.4776647 11.042513)
  orthogonal box = (-0.070926436 -0.21661768 -0.25270553) to (3.1032414 9.4776647 11.056615)

run 1
WARNING: No fixes with time integration, atoms won't move (src/verlet.cpp:60)
Per MPI rank memory allocation (min/avg/max) = 8.523 | 8.524 | 8.525 Mbytes
   Step         PotEng         TotEng           Lx             Ly             Lz           Volume         Press           Pxx            Pyy            Pzz      
      1074  -175.60759     -175.60759      3.1741679      9.6942824      11.30932       348.00225     -224191.83     -241107.01     -148597.7      -282870.78    
      1075  -175.60759     -175.60759      3.1741679      9.6942824      11.30932       348.00225     -224191.83     -241107.01     -148597.7      -282870.78    
Loop time of 0.000227 on 8 procs for 1 steps with 28 atoms

Performance: 380.617 ns/day, 0.063 hours/ns, 4405.286 timesteps/s, 123.348 katom-step/s
0.0% CPU use with 8 MPI tasks x 1 OpenMP threads

MPI task timing breakdown:
Section |  min time  |  avg time  |  max time  |%varavg| %total
---------------------------------------------------------------
Pair    | 0.000145   | 0.000152   | 0.000159   |   0.0 | 66.96
Neigh   | 0          | 0          | 0          |   0.0 |  0.00
Comm    | 1.4e-05    | 2.125e-05  | 2.7e-05    |   0.0 |  9.36
Output  | 1.6e-05    | 1.825e-05  | 2.1e-05    |   0.0 |  8.04
Modify  | 0          | 2.5e-07    | 1e-06      |   0.0 |  0.11
Other   |            | 3.525e-05  |            |       | 15.53

Nlocal:            3.5 ave           4 max           3 min
Histogram: 4 0 0 0 0 0 0 0 0 4
Nghost:         302.75 ave         307 max         301 min
Histogram: 4 2 0 0 0 0 0 0 0 2
Neighs:         128.25 ave         155 max         104 min
Histogram: 2 1 1 0 0 0 0 2 0 2
FullNghs:        256.5 ave         295 max         216 min
Histogram: 4 0 0 0 0 0 0 0 0 4

Total # of neighbors = 2052
Ave neighs/atom = 73.285714
Neighbor list builds = 0
Dangerous builds = 0
variable  natoms equal "count(all)"
variable xlength equal "lx"
variable  volume equal "vol"
variable  etotal equal "etotal"
variable    ecoh equal "-pe/v_natoms"
print "${xlength}, ${volume}, ${etotal}, ${ecoh}" append lattice_cohesive_energy.txt screen no

next i
jump SELF loop

change_box all x scale 1.0025 y scale 1.0025 z scale 1.0025 remap
Changing box ...
  orthogonal box = (-0.074894146 -0.21661768 -0.25270553) to (3.1072091 9.4776647 11.056615)
  orthogonal box = (-0.074894146 -0.22873554 -0.25270553) to (3.1072091 9.4897825 11.056615)
  orthogonal box = (-0.074894146 -0.22873554 -0.26684218) to (3.1072091 9.4897825 11.070751)

run 1
WARNING: No fixes with time integration, atoms won't move (src/verlet.cpp:60)
Per MPI rank memory allocation (min/avg/max) = 8.523 | 8.524 | 8.525 Mbytes
   Step         PotEng         TotEng           Lx             Ly             Lz           Volume         Press           Pxx            Pyy            Pzz      
      1075  -175.23519     -175.23519      3.1821033      9.7185181      11.337593      350.6188      -231806.86     -248066.56     -158214.85     -289139.19    
      1076  -175.23519     -175.23519      3.1821033      9.7185181      11.337593      350.6188      -231806.86     -248066.56     -158214.85     -289139.19    
Loop time of 0.000286 on 8 procs for 1 steps with 28 atoms

Performance: 302.098 ns/day, 0.079 hours/ns, 3496.503 timesteps/s, 97.902 katom-step/s
0.0% CPU use with 8 MPI tasks x 1 OpenMP threads

MPI task timing breakdown:
Section |  min time  |  avg time  |  max time  |%varavg| %total
---------------------------------------------------------------
Pair    | 0.000202   | 0.00020963 | 0.000219   |   0.0 | 73.30
Neigh   | 0          | 0          | 0          |   0.0 |  0.00
Comm    | 1.9e-05    | 4.2625e-05 | 5.7e-05    |   0.0 | 14.90
Output  | 1.7e-05    | 1.85e-05   | 2.1e-05    |   0.0 |  6.47
Modify  | 0          | 2.5e-07    | 1e-06      |   0.0 |  0.09
Other   |            | 1.5e-05    |            |       |  5.24

Nlocal:            3.5 ave           4 max           3 min
Histogram: 4 0 0 0 0 0 0 0 0 4
Nghost:          296.5 ave         297 max         296 min
Histogram: 4 0 0 0 0 0 0 0 0 4
Neighs:         127.75 ave         153 max         104 min
Histogram: 2 1 1 0 0 0 0 2 0 2
FullNghs:        255.5 ave         293 max         216 min
Histogram: 4 0 0 0 0 0 0 0 0 4

Total # of neighbors = 2044
Ave neighs/atom = 73
Neighbor list builds = 0
Dangerous builds = 0
variable  natoms equal "count(all)"
variable xlength equal "lx"
variable  volume equal "vol"
variable  etotal equal "etotal"
variable    ecoh equal "-pe/v_natoms"
print "${xlength}, ${volume}, ${etotal}, ${ecoh}" append lattice_cohesive_energy.txt screen no

next i
jump SELF loop

change_box all x scale 1.0025 y scale 1.0025 z scale 1.0025 remap
Changing box ...
  orthogonal box = (-0.078871775 -0.22873554 -0.26684218) to (3.1111868 9.4897825 11.070751)
  orthogonal box = (-0.078871775 -0.24088369 -0.26684218) to (3.1111868 9.5019307 11.070751)
  orthogonal box = (-0.078871775 -0.24088369 -0.28101417) to (3.1111868 9.5019307 11.084923)

run 1
WARNING: No fixes with time integration, atoms won't move (src/verlet.cpp:60)
Per MPI rank memory allocation (min/avg/max) = 8.523 | 8.524 | 8.525 Mbytes
   Step         PotEng         TotEng           Lx             Ly             Lz           Volume         Press           Pxx            Pyy            Pzz      
      1076  -174.8477      -174.8477       3.1900585      9.7428144      11.365937      353.25502     -239140.9      -254766.8      -167518.11     -295137.8     
      1077  -174.8477      -174.8477       3.1900585      9.7428144      11.365937      353.25502     -239140.9      -254766.8      -167518.11     -295137.8     
Loop time of 0.0001775 on 8 procs for 1 steps with 28 atoms

Performance: 486.761 ns/day, 0.049 hours/ns, 5633.803 timesteps/s, 157.746 katom-step/s
0.0% CPU use with 8 MPI tasks x 1 OpenMP threads

MPI task timing breakdown:
Section |  min time  |  avg time  |  max time  |%varavg| %total
---------------------------------------------------------------
Pair    | 0.000117   | 0.00012738 | 0.00014    |   0.0 | 71.76
Neigh   | 0          | 0          | 0          |   0.0 |  0.00
Comm    | 1.4e-05    | 2.625e-05  | 3.7e-05    |   0.0 | 14.79
Output  | 1.5e-05    | 1.5875e-05 | 1.8e-05    |   0.0 |  8.94
Modify  | 0          | 5e-07      | 2e-06      |   0.0 |  0.28
Other   |            | 7.5e-06    |            |       |  4.23

Nlocal:            3.5 ave           4 max           3 min
Histogram: 4 0 0 0 0 0 0 0 0 4
Nghost:          296.5 ave         297 max         296 min
Histogram: 4 0 0 0 0 0 0 0 0 4
Neighs:            127 ave         152 max         104 min
Histogram: 2 1 1 0 0 0 0 2 0 2
FullNghs:          254 ave         292 max         216 min
Histogram: 4 0 0 0 0 0 0 0 0 4

Total # of neighbors = 2032
Ave neighs/atom = 72.571429
Neighbor list builds = 0
Dangerous builds = 0
variable  natoms equal "count(all)"
variable xlength equal "lx"
variable  volume equal "vol"
variable  etotal equal "etotal"
variable    ecoh equal "-pe/v_natoms"
print "${xlength}, ${volume}, ${etotal}, ${ecoh}" append lattice_cohesive_energy.txt screen no

next i
jump SELF loop

change_box all x scale 1.0025 y scale 1.0025 z scale 1.0025 remap
Changing box ...
  orthogonal box = (-0.082859348 -0.24088369 -0.28101417) to (3.1151743 9.5019307 11.084923)
  orthogonal box = (-0.082859348 -0.2530622 -0.28101417) to (3.1151743 9.5141092 11.084923)
  orthogonal box = (-0.082859348 -0.2530622 -0.29522159) to (3.1151743 9.5141092 11.099131)

run 1
WARNING: No fixes with time integration, atoms won't move (src/verlet.cpp:60)
Per MPI rank memory allocation (min/avg/max) = 8.523 | 8.524 | 8.525 Mbytes
   Step         PotEng         TotEng           Lx             Ly             Lz           Volume         Press           Pxx            Pyy            Pzz      
      1077  -174.44536     -174.44536      3.1980337      9.7671714      11.394352      355.91106     -246199.66     -261213.32     -176513.24     -300872.41    
      1078  -174.44536     -174.44536      3.1980337      9.7671714      11.394352      355.91106     -246199.66     -261213.32     -176513.24     -300872.41    
Loop time of 0.00017875 on 8 procs for 1 steps with 28 atoms

Performance: 483.357 ns/day, 0.050 hours/ns, 5594.406 timesteps/s, 156.643 katom-step/s
0.0% CPU use with 8 MPI tasks x 1 OpenMP threads

MPI task timing breakdown:
Section |  min time  |  avg time  |  max time  |%varavg| %total
---------------------------------------------------------------
Pair    | 0.000117   | 0.00012725 | 0.00014    |   0.0 | 71.19
Neigh   | 0          | 0          | 0          |   0.0 |  0.00
Comm    | 1.4e-05    | 2.625e-05  | 3.7e-05    |   0.0 | 14.69
Output  | 1.6e-05    | 1.6875e-05 | 1.9e-05    |   0.0 |  9.44
Modify  | 0          | 0          | 0          |   0.0 |  0.00
Other   |            | 8.375e-06  |            |       |  4.69

Nlocal:            3.5 ave           4 max           3 min
Histogram: 4 0 0 0 0 0 0 0 0 4
Nghost:          296.5 ave         297 max         296 min
Histogram: 4 0 0 0 0 0 0 0 0 4
Neighs:          125.5 ave         150 max         102 min
Histogram: 2 0 2 0 0 0 0 2 0 2
FullNghs:          251 ave         286 max         216 min
Histogram: 4 0 0 0 0 0 0 0 0 4

Total # of neighbors = 2008
Ave neighs/atom = 71.714286
Neighbor list builds = 0
Dangerous builds = 0
variable  natoms equal "count(all)"
variable xlength equal "lx"
variable  volume equal "vol"
variable  etotal equal "etotal"
variable    ecoh equal "-pe/v_natoms"
print "${xlength}, ${volume}, ${etotal}, ${ecoh}" append lattice_cohesive_energy.txt screen no

next i
jump SELF loop

change_box all x scale 1.0025 y scale 1.0025 z scale 1.0025 remap
Changing box ...
  orthogonal box = (-0.08685689 -0.2530622 -0.29522159) to (3.1191719 9.5141092 11.099131)
  orthogonal box = (-0.08685689 -0.26527117 -0.29522159) to (3.1191719 9.5263182 11.099131)
  orthogonal box = (-0.08685689 -0.26527117 -0.30946453) to (3.1191719 9.5263182 11.113374)

run 1
WARNING: No fixes with time integration, atoms won't move (src/verlet.cpp:60)
Per MPI rank memory allocation (min/avg/max) = 8.523 | 8.524 | 8.525 Mbytes
   Step         PotEng         TotEng           Lx             Ly             Lz           Volume         Press           Pxx            Pyy            Pzz      
      1078  -174.02844     -174.02844      3.2060288      9.7915893      11.422838      358.58707     -252988.76     -267411.62     -185205.96     -306348.7     
      1079  -174.02844     -174.02844      3.2060288      9.7915893      11.422838      358.58707     -252988.76     -267411.62     -185205.96     -306348.7     
Loop time of 0.00017825 on 8 procs for 1 steps with 28 atoms

Performance: 484.712 ns/day, 0.050 hours/ns, 5610.098 timesteps/s, 157.083 katom-step/s
0.0% CPU use with 8 MPI tasks x 1 OpenMP threads

MPI task timing breakdown:
Section |  min time  |  avg time  |  max time  |%varavg| %total
---------------------------------------------------------------
Pair    | 0.000117   | 0.00012762 | 0.00014    |   0.0 | 71.60
Neigh   | 0          | 0          | 0          |   0.0 |  0.00
Comm    | 1.3e-05    | 2.55e-05   | 3.6e-05    |   0.0 | 14.31
Output  | 1.5e-05    | 1.625e-05  | 1.9e-05    |   0.0 |  9.12
Modify  | 0          | 1.25e-07   | 1e-06      |   0.0 |  0.07
Other   |            | 8.75e-06   |            |       |  4.91

Nlocal:            3.5 ave           4 max           3 min
Histogram: 4 0 0 0 0 0 0 0 0 4
Nghost:          296.5 ave         297 max         296 min
Histogram: 4 0 0 0 0 0 0 0 0 4
Neighs:          124.5 ave         150 max         102 min
Histogram: 2 1 1 0 0 0 2 0 0 2
FullNghs:          249 ave         282 max         214 min
Histogram: 4 0 0 0 0 0 0 0 0 4

Total # of neighbors = 1992
Ave neighs/atom = 71.142857
Neighbor list builds = 0
Dangerous builds = 0
variable  natoms equal "count(all)"
variable xlength equal "lx"
variable  volume equal "vol"
variable  etotal equal "etotal"
variable    ecoh equal "-pe/v_natoms"
print "${xlength}, ${volume}, ${etotal}, ${ecoh}" append lattice_cohesive_energy.txt screen no

next i
jump SELF loop

print "-------------------------------------------------------------"
-------------------------------------------------------------
print "Show results of 1st step (Running Minimization)"
Show results of 1st step (Running Minimization)
print "The number of atoms = ${natoms};"
The number of atoms = 28;
print "The lattice constant, x (Angstoms) = ${x0};"
The lattice constant, x (Angstoms) = 3.20602878000389;
print "The lattice constant, y (Angstoms) = ${y0};"
The lattice constant, y (Angstoms) = 9.79158933520057;
print "The lattice constant, z (Angstoms) = ${z0};"
The lattice constant, z (Angstoms) = 11.4228380595496;
print "The volume (Angstoms^3) = ${v0};"
The volume (Angstoms^3) = 358.587071243451;
print "The total energy (eV) = ${etot0};"
The total energy (eV) = -174.028437696269;
print "The cohesive energy (eV/atom) = ${ecoh0};"
The cohesive energy (eV/atom) = 6.21530134629533;
print "-------------------------------------------------------------"
-------------------------------------------------------------
print "Simulations completed !"
Simulations completed !
Total wall time: 0:00:00
