LAMMPS (22 Dec 2022)
  using 1 OpenMP thread(s) per MPI task
Loaded 1 plugins from C:\Program Files\LAMMPS 64-bit 23Jun2022\plugins
Loaded 0 plugins from C:\Program Files\LAMMPS 64-bit 23Jun2022-MPI\plugins
Loaded 1 plugins from C:\Program Files\LAMMPS 64-bit 22Dec2022-MSMPI\plugins
Loaded 1 plugins from C:\Program Files\LAMMPS 64-bit 28Mar2023-MPI\plugins
#------------------------------------------------------------------------------------------
# LAMMPS 64-bit 22Dec2022-MSMPI
#------------------------------------------------------------------------------------------
clear
  using 1 OpenMP thread(s) per MPI task
Loaded 1 plugins from C:\Program Files\LAMMPS 64-bit 23Jun2022\plugins
Loaded 0 plugins from C:\Program Files\LAMMPS 64-bit 23Jun2022-MPI\plugins
Loaded 1 plugins from C:\Program Files\LAMMPS 64-bit 22Dec2022-MSMPI\plugins
Loaded 1 plugins from C:\Program Files\LAMMPS 64-bit 28Mar2023-MPI\plugins
#echo both
# ---------- Initializing Simulation ---------------------------------
units metal
dimension 3
boundary p p p
atom_style atomic
atom_modify map array

read_data ./../../Fe3O4.data
Reading data file ...
  orthogonal box = (0 0 0) to (8.5333515 8.5333515 8.5333515)
  2 by 2 by 2 MPI processor grid
  reading atoms ...
  56 atoms
  read_data CPU = 0.001 seconds

replicate 1 1 1
Replication is creating a 1x1x1 = 1 times larger system...
  orthogonal box = (0 0 0) to (8.5333515 8.5333515 8.5333515)
  2 by 2 by 2 MPI processor grid
  56 atoms
  replicate CPU = 0.000 seconds

# ---------- Defining the Interatomic Potential ---------------------
pair_style meam
pair_coeff * * ./../../library.meam Fe Cr Ni O ./../../FeCrNiO.meam Fe O

# ---------- Running Minimization -------------------------------------
fix 1 all box/relax iso 0.0 vmax 0.001

thermo 10
thermo_style custom step pe etotal lx ly lz vol press pxx pyy pzz

min_style cg
minimize 1e-25 1e-25 5000 10000
Neighbor list info ...
  update: every = 1 steps, delay = 0 steps, check = yes
  max neighbors/atom: 2000, page size: 100000
  master list distance cutoff = 6
  ghost atom cutoff = 6
  binsize = 3, bins = 3 3 3
  2 neighbor lists, perpetual/occasional/extra = 2 0 0
  (1) pair meam, perpetual
      attributes: full, newton on
      pair build: full/bin/atomonly
      stencil: full/bin/3d
      bin: standard
  (2) pair meam, perpetual, half/full from (1)
      attributes: half, newton on
      pair build: halffull/newton
      stencil: none
      bin: none
Per MPI rank memory allocation (min/avg/max) = 9.679 | 9.679 | 9.68 Mbytes
   Step         PotEng         TotEng           Lx             Ly             Lz           Volume         Press           Pxx            Pyy            Pzz      
         0  -342.40762     -342.40762      8.5333515      8.5333515      8.5333515      621.38235      9944.3899      9944.3899      9944.3899      9944.3899    
        10  -344.91608     -344.91608      8.5504182      8.5504182      8.5504182      625.1181       1397.4257      1397.4257      1397.4257      1397.4257    
        20  -347.48996     -347.48996      8.5504182      8.5504182      8.5504182      625.1181       1793.842       1793.842       1793.842       1793.842     
        30  -349.58188     -349.58188      8.5504182      8.5504182      8.5504182      625.1181       2906.731       2906.731       2906.731       2906.731     
        40  -352.58077     -352.58077      8.5674849      8.5674849      8.5674849      628.8688      -2005.9829     -2005.9829     -2005.9829     -2005.9829    
        50  -360.87951     -360.87951      8.5706219      8.5706219      8.5706219      629.55982      52578.733      52578.733      52578.733      52578.733    
        60  -361.24488     -361.24488      8.6559554      8.6559554      8.6559554      648.55233      9961.0403      9961.0403      9961.0403      9961.0403    
        70  -361.31825     -361.31825      8.693931       8.693931       8.693931       657.12588     -0.11607214    -0.11607214    -0.11607214    -0.11607214   
        73  -361.31825     -361.31825      8.6939255      8.6939255      8.6939255      657.12463      1.0636937e-05  1.0636959e-05  1.0636874e-05  1.0636978e-05
Loop time of 0.0240871 on 8 procs for 73 steps with 56 atoms

32.4% CPU use with 8 MPI tasks x 1 OpenMP threads

Minimization stats:
  Stopping criterion = energy tolerance
  Energy initial, next-to-last, final = 
     -342.407618781521  -361.318247791286  -361.318247791286
  Force two-norm initial, final = 28.928198 3.5713515e-08
  Force max component initial, final = 11.570389 1.2846326e-08
  Final line search alpha, max atom move = 1 1.2846326e-08
  Iterations, force evaluations = 73 83

MPI task timing breakdown:
Section |  min time  |  avg time  |  max time  |%varavg| %total
---------------------------------------------------------------
Pair    | 0.014567   | 0.015262   | 0.016511   |   0.6 | 63.36
Neigh   | 0          | 0          | 0          |   0.0 |  0.00
Comm    | 0.002285   | 0.0034772  | 0.004189   |   1.2 | 14.44
Output  | 0.000118   | 0.00013025 | 0.000143   |   0.0 |  0.54
Modify  | 0          | 0          | 0          |   0.0 |  0.00
Other   |            | 0.005217   |            |       | 21.66

Nlocal:              7 ave           8 max           6 min
Histogram: 4 0 0 0 0 0 0 0 0 4
Nghost:          422.5 ave         423 max         422 min
Histogram: 4 0 0 0 0 0 0 0 0 4
Neighs:            252 ave         284 max         220 min
Histogram: 4 0 0 0 0 0 0 0 0 4
FullNghs:          504 ave         568 max         440 min
Histogram: 4 0 0 0 0 0 0 0 0 4

Total # of neighbors = 4032
Ave neighs/atom = 72
Neighbor list builds = 0
Dangerous builds = 0

variable  natoms equal "count(all)"
variable      x0 equal "lx"
variable      y0 equal "ly"
variable      z0 equal "lz"
variable      v0 equal "vol"
variable   etot0 equal "etotal"
variable   ecoh0 equal "pe/v_natoms"

unfix 1
#write_data ./../step2_elastic/data.in

# ---------- For Equation of States -------------------------------------
change_box all x scale 0.94 y scale 0.94 z scale 0.94 remap
Changing box ...
  orthogonal box = (0.18053078 -0.080286989 -0.080286989) to (8.3528208 8.6136385 8.6136385)
  orthogonal box = (0.18053078 0.18053078 -0.080286989) to (8.3528208 8.3528208 8.6136385)
  orthogonal box = (0.18053078 0.18053078 0.18053078) to (8.3528208 8.3528208 8.3528208)
run 1
WARNING: No fixes with time integration, atoms won't move (src/verlet.cpp:60)
Per MPI rank memory allocation (min/avg/max) = 8.554 | 8.556 | 8.558 Mbytes
   Step         PotEng         TotEng           Lx             Ly             Lz           Volume         Press           Pxx            Pyy            Pzz      
        73  -351.15504     -351.15504      8.17229        8.17229        8.17229        545.7972       334589.5       334589.5       334589.5       334589.5     
        74  -351.15504     -351.15504      8.17229        8.17229        8.17229        545.7972       334589.5       334589.5       334589.5       334589.5     
Loop time of 0.000155375 on 8 procs for 1 steps with 56 atoms

Performance: 556.074 ns/day, 0.043 hours/ns, 6436.042 timesteps/s, 360.418 katom-step/s
0.0% CPU use with 8 MPI tasks x 1 OpenMP threads

MPI task timing breakdown:
Section |  min time  |  avg time  |  max time  |%varavg| %total
---------------------------------------------------------------
Pair    | 0.000113   | 0.00011587 | 0.000121   |   0.0 | 74.58
Neigh   | 0          | 0          | 0          |   0.0 |  0.00
Comm    | 1.5e-05    | 2.0125e-05 | 2.3e-05    |   0.0 | 12.95
Output  | 1.3e-05    | 1.325e-05  | 1.4e-05    |   0.0 |  8.53
Modify  | 0          | 0          | 0          |   0.0 |  0.00
Other   |            | 6.125e-06  |            |       |  3.94

Nlocal:              7 ave           9 max           5 min
Histogram: 3 0 0 0 0 0 0 4 0 1
Nghost:          422.5 ave         424 max         420 min
Histogram: 1 0 0 0 0 4 0 0 0 3
Neighs:            306 ave         395 max         214 min
Histogram: 3 0 0 0 0 0 0 4 0 1
FullNghs:          612 ave         788 max         436 min
Histogram: 3 0 0 0 0 0 0 4 0 1

Total # of neighbors = 4896
Ave neighs/atom = 87.428571
Neighbor list builds = 0
Dangerous builds = 0
print "# Lattice constant (Angstroms), Volume (Angstrom), Total energy (eV), Cohesive energy (eV/atom)" file lattice_cohesive_energy.txt screen no


# Loop over lattice constants
variable i loop 49 # Number of steps
label loop

change_box all x scale 1.0025 y scale 1.0025 z scale 1.0025 remap
Changing box ...
  orthogonal box = (0.17031541 0.18053078 0.18053078) to (8.3630361 8.3528208 8.3528208)
  orthogonal box = (0.17031541 0.17031541 0.18053078) to (8.3630361 8.3630361 8.3528208)
  orthogonal box = (0.17031541 0.17031541 0.17031541) to (8.3630361 8.3630361 8.3630361)

run 1
WARNING: No fixes with time integration, atoms won't move (src/verlet.cpp:60)
Per MPI rank memory allocation (min/avg/max) = 8.554 | 8.556 | 8.558 Mbytes
   Step         PotEng         TotEng           Lx             Ly             Lz           Volume         Press           Pxx            Pyy            Pzz      
        74  -351.98961     -351.98961      8.1927207      8.1927207      8.1927207      549.90093      317165.11      317165.11      317165.11      317165.11    
        75  -351.98961     -351.98961      8.1927207      8.1927207      8.1927207      549.90093      317165.11      317165.11      317165.11      317165.11    
Loop time of 0.000167875 on 8 procs for 1 steps with 56 atoms

Performance: 514.669 ns/day, 0.047 hours/ns, 5956.813 timesteps/s, 333.582 katom-step/s
0.0% CPU use with 8 MPI tasks x 1 OpenMP threads

MPI task timing breakdown:
Section |  min time  |  avg time  |  max time  |%varavg| %total
---------------------------------------------------------------
Pair    | 0.000123   | 0.0001235  | 0.000125   |   0.0 | 73.57
Neigh   | 0          | 0          | 0          |   0.0 |  0.00
Comm    | 1.5e-05    | 1.6e-05    | 1.7e-05    |   0.0 |  9.53
Output  | 1.2e-05    | 1.3875e-05 | 2.3e-05    |   0.0 |  8.27
Modify  | 0          | 1.25e-07   | 1e-06      |   0.0 |  0.07
Other   |            | 1.437e-05  |            |       |  8.56

Nlocal:              7 ave           9 max           5 min
Histogram: 3 0 0 0 0 0 0 4 0 1
Nghost:          422.5 ave         424 max         420 min
Histogram: 1 0 0 0 0 4 0 0 0 3
Neighs:            306 ave         395 max         214 min
Histogram: 3 0 0 0 0 0 0 4 0 1
FullNghs:          612 ave         788 max         436 min
Histogram: 3 0 0 0 0 0 0 4 0 1

Total # of neighbors = 4896
Ave neighs/atom = 87.428571
Neighbor list builds = 0
Dangerous builds = 0
variable  natoms equal "count(all)"
variable xlength equal "lx"
variable  volume equal "vol"
variable  etotal equal "etotal"
variable    ecoh equal "pe/v_natoms"
print "${xlength}, ${volume}, ${etotal}, ${ecoh}" append lattice_cohesive_energy.txt screen no

next i
jump SELF loop

change_box all x scale 1.0025 y scale 1.0025 z scale 1.0025 remap
Changing box ...
  orthogonal box = (0.16007451 0.17031541 0.17031541) to (8.373277 8.3630361 8.3630361)
  orthogonal box = (0.16007451 0.16007451 0.17031541) to (8.373277 8.373277 8.3630361)
  orthogonal box = (0.16007451 0.16007451 0.16007451) to (8.373277 8.373277 8.373277)

run 1
WARNING: No fixes with time integration, atoms won't move (src/verlet.cpp:60)
Per MPI rank memory allocation (min/avg/max) = 8.554 | 8.556 | 8.558 Mbytes
   Step         PotEng         TotEng           Lx             Ly             Lz           Volume         Press           Pxx            Pyy            Pzz      
        75  -352.78598     -352.78598      8.2132025      8.2132025      8.2132025      554.0355       300111.09      300111.09      300111.09      300111.09    
        76  -352.78598     -352.78598      8.2132025      8.2132025      8.2132025      554.0355       300111.09      300111.09      300111.09      300111.09    
Loop time of 0.000152125 on 8 procs for 1 steps with 56 atoms

Performance: 567.954 ns/day, 0.042 hours/ns, 6573.541 timesteps/s, 368.118 katom-step/s
0.0% CPU use with 8 MPI tasks x 1 OpenMP threads

MPI task timing breakdown:
Section |  min time  |  avg time  |  max time  |%varavg| %total
---------------------------------------------------------------
Pair    | 0.000119   | 0.00012038 | 0.000121   |   0.0 | 79.13
Neigh   | 0          | 0          | 0          |   0.0 |  0.00
Comm    | 1.5e-05    | 1.5375e-05 | 1.6e-05    |   0.0 | 10.11
Output  | 1.2e-05    | 1.2e-05    | 1.2e-05    |   0.0 |  7.89
Modify  | 0          | 0          | 0          |   0.0 |  0.00
Other   |            | 4.375e-06  |            |       |  2.88

Nlocal:              7 ave           9 max           5 min
Histogram: 3 0 0 0 0 0 0 4 0 1
Nghost:          422.5 ave         424 max         420 min
Histogram: 1 0 0 0 0 4 0 0 0 3
Neighs:            306 ave         395 max         214 min
Histogram: 3 0 0 0 0 0 0 4 0 1
FullNghs:          612 ave         788 max         436 min
Histogram: 3 0 0 0 0 0 0 4 0 1

Total # of neighbors = 4896
Ave neighs/atom = 87.428571
Neighbor list builds = 0
Dangerous builds = 0
variable  natoms equal "count(all)"
variable xlength equal "lx"
variable  volume equal "vol"
variable  etotal equal "etotal"
variable    ecoh equal "pe/v_natoms"
print "${xlength}, ${volume}, ${etotal}, ${ecoh}" append lattice_cohesive_energy.txt screen no

next i
jump SELF loop

change_box all x scale 1.0025 y scale 1.0025 z scale 1.0025 remap
Changing box ...
  orthogonal box = (0.14980801 0.16007451 0.16007451) to (8.3835435 8.373277 8.373277)
  orthogonal box = (0.14980801 0.14980801 0.16007451) to (8.3835435 8.3835435 8.373277)
  orthogonal box = (0.14980801 0.14980801 0.14980801) to (8.3835435 8.3835435 8.3835435)

run 1
WARNING: No fixes with time integration, atoms won't move (src/verlet.cpp:60)
Per MPI rank memory allocation (min/avg/max) = 8.554 | 8.556 | 8.558 Mbytes
   Step         PotEng         TotEng           Lx             Ly             Lz           Volume         Press           Pxx            Pyy            Pzz      
        76  -353.54447     -353.54447      8.2337355      8.2337355      8.2337355      558.20116      283421.76      283421.76      283421.76      283421.76    
        77  -353.54447     -353.54447      8.2337355      8.2337355      8.2337355      558.20116      283421.76      283421.76      283421.76      283421.76    
Loop time of 0.000152875 on 8 procs for 1 steps with 56 atoms

Performance: 565.168 ns/day, 0.042 hours/ns, 6541.292 timesteps/s, 366.312 katom-step/s
0.0% CPU use with 8 MPI tasks x 1 OpenMP threads

MPI task timing breakdown:
Section |  min time  |  avg time  |  max time  |%varavg| %total
---------------------------------------------------------------
Pair    | 0.00012    | 0.000122   | 0.000123   |   0.0 | 79.80
Neigh   | 0          | 0          | 0          |   0.0 |  0.00
Comm    | 1.4e-05    | 1.5125e-05 | 1.8e-05    |   0.0 |  9.89
Output  | 1.1e-05    | 1.15e-05   | 1.2e-05    |   0.0 |  7.52
Modify  | 0          | 2.5e-07    | 1e-06      |   0.0 |  0.16
Other   |            | 4e-06      |            |       |  2.62

Nlocal:              7 ave           9 max           5 min
Histogram: 3 0 0 0 0 0 0 4 0 1
Nghost:          422.5 ave         424 max         420 min
Histogram: 1 0 0 0 0 4 0 0 0 3
Neighs:            306 ave         395 max         214 min
Histogram: 3 0 0 0 0 0 0 4 0 1
FullNghs:          612 ave         788 max         436 min
Histogram: 3 0 0 0 0 0 0 4 0 1

Total # of neighbors = 4896
Ave neighs/atom = 87.428571
Neighbor list builds = 0
Dangerous builds = 0
variable  natoms equal "count(all)"
variable xlength equal "lx"
variable  volume equal "vol"
variable  etotal equal "etotal"
variable    ecoh equal "pe/v_natoms"
print "${xlength}, ${volume}, ${etotal}, ${ecoh}" append lattice_cohesive_energy.txt screen no

next i
jump SELF loop

change_box all x scale 1.0025 y scale 1.0025 z scale 1.0025 remap
Changing box ...
  orthogonal box = (0.13951584 0.14980801 0.14980801) to (8.3938357 8.3835435 8.3835435)
  orthogonal box = (0.13951584 0.13951584 0.14980801) to (8.3938357 8.3938357 8.3835435)
  orthogonal box = (0.13951584 0.13951584 0.13951584) to (8.3938357 8.3938357 8.3938357)

run 1
WARNING: No fixes with time integration, atoms won't move (src/verlet.cpp:60)
Per MPI rank memory allocation (min/avg/max) = 8.554 | 8.556 | 8.558 Mbytes
   Step         PotEng         TotEng           Lx             Ly             Lz           Volume         Press           Pxx            Pyy            Pzz      
        77  -354.26541     -354.26541      8.2543199      8.2543199      8.2543199      562.39815      267091.51      267091.51      267091.51      267091.51    
        78  -354.26541     -354.26541      8.2543199      8.2543199      8.2543199      562.39815      267091.51      267091.51      267091.51      267091.51    
Loop time of 0.00014975 on 8 procs for 1 steps with 56 atoms

Performance: 576.962 ns/day, 0.042 hours/ns, 6677.796 timesteps/s, 373.957 katom-step/s
0.0% CPU use with 8 MPI tasks x 1 OpenMP threads

MPI task timing breakdown:
Section |  min time  |  avg time  |  max time  |%varavg| %total
---------------------------------------------------------------
Pair    | 0.000118   | 0.00011888 | 0.00012    |   0.0 | 79.38
Neigh   | 0          | 0          | 0          |   0.0 |  0.00
Comm    | 1.5e-05    | 1.55e-05   | 1.7e-05    |   0.0 | 10.35
Output  | 1.1e-05    | 1.15e-05   | 1.2e-05    |   0.0 |  7.68
Modify  | 0          | 1.25e-07   | 1e-06      |   0.0 |  0.08
Other   |            | 3.75e-06   |            |       |  2.50

Nlocal:              7 ave           9 max           5 min
Histogram: 3 0 0 0 0 0 0 4 0 1
Nghost:          422.5 ave         424 max         420 min
Histogram: 1 0 0 0 0 4 0 0 0 3
Neighs:            306 ave         395 max         214 min
Histogram: 3 0 0 0 0 0 0 4 0 1
FullNghs:          612 ave         788 max         436 min
Histogram: 3 0 0 0 0 0 0 4 0 1

Total # of neighbors = 4896
Ave neighs/atom = 87.428571
Neighbor list builds = 0
Dangerous builds = 0
variable  natoms equal "count(all)"
variable xlength equal "lx"
variable  volume equal "vol"
variable  etotal equal "etotal"
variable    ecoh equal "pe/v_natoms"
print "${xlength}, ${volume}, ${etotal}, ${ecoh}" append lattice_cohesive_energy.txt screen no

next i
jump SELF loop

change_box all x scale 1.0025 y scale 1.0025 z scale 1.0025 remap
Changing box ...
  orthogonal box = (0.12919794 0.13951584 0.13951584) to (8.4041536 8.3938357 8.3938357)
  orthogonal box = (0.12919794 0.12919794 0.13951584) to (8.4041536 8.4041536 8.3938357)
  orthogonal box = (0.12919794 0.12919794 0.12919794) to (8.4041536 8.4041536 8.4041536)

run 1
WARNING: No fixes with time integration, atoms won't move (src/verlet.cpp:60)
Per MPI rank memory allocation (min/avg/max) = 8.554 | 8.556 | 8.558 Mbytes
   Step         PotEng         TotEng           Lx             Ly             Lz           Volume         Press           Pxx            Pyy            Pzz      
        78  -354.94915     -354.94915      8.2749557      8.2749557      8.2749557      566.62669      251114.8       251114.8       251114.8       251114.8     
        79  -354.94915     -354.94915      8.2749557      8.2749557      8.2749557      566.62669      251114.8       251114.8       251114.8       251114.8     
Loop time of 0.000149375 on 8 procs for 1 steps with 56 atoms

Performance: 578.410 ns/day, 0.041 hours/ns, 6694.561 timesteps/s, 374.895 katom-step/s
0.0% CPU use with 8 MPI tasks x 1 OpenMP threads

MPI task timing breakdown:
Section |  min time  |  avg time  |  max time  |%varavg| %total
---------------------------------------------------------------
Pair    | 0.000118   | 0.00011875 | 0.00012    |   0.0 | 79.50
Neigh   | 0          | 0          | 0          |   0.0 |  0.00
Comm    | 1.5e-05    | 1.575e-05  | 1.6e-05    |   0.0 | 10.54
Output  | 1.1e-05    | 1.125e-05  | 1.2e-05    |   0.0 |  7.53
Modify  | 0          | 0          | 0          |   0.0 |  0.00
Other   |            | 3.625e-06  |            |       |  2.43

Nlocal:              7 ave           9 max           5 min
Histogram: 3 0 0 0 0 0 0 4 0 1
Nghost:          422.5 ave         424 max         420 min
Histogram: 1 0 0 0 0 4 0 0 0 3
Neighs:            306 ave         395 max         214 min
Histogram: 3 0 0 0 0 0 0 4 0 1
FullNghs:          612 ave         788 max         436 min
Histogram: 3 0 0 0 0 0 0 4 0 1

Total # of neighbors = 4896
Ave neighs/atom = 87.428571
Neighbor list builds = 0
Dangerous builds = 0
variable  natoms equal "count(all)"
variable xlength equal "lx"
variable  volume equal "vol"
variable  etotal equal "etotal"
variable    ecoh equal "pe/v_natoms"
print "${xlength}, ${volume}, ${etotal}, ${ecoh}" append lattice_cohesive_energy.txt screen no

next i
jump SELF loop

change_box all x scale 1.0025 y scale 1.0025 z scale 1.0025 remap
Changing box ...
  orthogonal box = (0.11885425 0.12919794 0.12919794) to (8.4144973 8.4041536 8.4041536)
  orthogonal box = (0.11885425 0.11885425 0.12919794) to (8.4144973 8.4144973 8.4041536)
  orthogonal box = (0.11885425 0.11885425 0.11885425) to (8.4144973 8.4144973 8.4144973)

run 1
WARNING: No fixes with time integration, atoms won't move (src/verlet.cpp:60)
Per MPI rank memory allocation (min/avg/max) = 8.554 | 8.556 | 8.558 Mbytes
   Step         PotEng         TotEng           Lx             Ly             Lz           Volume         Press           Pxx            Pyy            Pzz      
        79  -355.596       -355.596        8.295643       8.295643       8.295643       570.88702      235486.14      235486.14      235486.14      235486.14    
        80  -355.596       -355.596        8.295643       8.295643       8.295643       570.88702      235486.14      235486.14      235486.14      235486.14    
Loop time of 0.00016075 on 8 procs for 1 steps with 56 atoms

Performance: 537.481 ns/day, 0.045 hours/ns, 6220.840 timesteps/s, 348.367 katom-step/s
0.0% CPU use with 8 MPI tasks x 1 OpenMP threads

MPI task timing breakdown:
Section |  min time  |  avg time  |  max time  |%varavg| %total
---------------------------------------------------------------
Pair    | 0.000123   | 0.000124   | 0.000128   |   0.0 | 77.14
Neigh   | 0          | 0          | 0          |   0.0 |  0.00
Comm    | 1.7e-05    | 2e-05      | 2.2e-05    |   0.0 | 12.44
Output  | 1.3e-05    | 1.325e-05  | 1.4e-05    |   0.0 |  8.24
Modify  | 0          | 1.25e-07   | 1e-06      |   0.0 |  0.08
Other   |            | 3.375e-06  |            |       |  2.10

Nlocal:              7 ave           9 max           5 min
Histogram: 3 0 0 0 0 0 0 4 0 1
Nghost:          422.5 ave         424 max         420 min
Histogram: 1 0 0 0 0 4 0 0 0 3
Neighs:            306 ave         395 max         214 min
Histogram: 3 0 0 0 0 0 0 4 0 1
FullNghs:          612 ave         788 max         436 min
Histogram: 3 0 0 0 0 0 0 4 0 1

Total # of neighbors = 4896
Ave neighs/atom = 87.428571
Neighbor list builds = 0
Dangerous builds = 0
variable  natoms equal "count(all)"
variable xlength equal "lx"
variable  volume equal "vol"
variable  etotal equal "etotal"
variable    ecoh equal "pe/v_natoms"
print "${xlength}, ${volume}, ${etotal}, ${ecoh}" append lattice_cohesive_energy.txt screen no

next i
jump SELF loop

change_box all x scale 1.0025 y scale 1.0025 z scale 1.0025 remap
Changing box ...
  orthogonal box = (0.10848469 0.11885425 0.11885425) to (8.4248668 8.4144973 8.4144973)
  orthogonal box = (0.10848469 0.10848469 0.11885425) to (8.4248668 8.4248668 8.4144973)
  orthogonal box = (0.10848469 0.10848469 0.10848469) to (8.4248668 8.4248668 8.4248668)

run 1
WARNING: No fixes with time integration, atoms won't move (src/verlet.cpp:60)
Per MPI rank memory allocation (min/avg/max) = 8.554 | 8.556 | 8.558 Mbytes
   Step         PotEng         TotEng           Lx             Ly             Lz           Volume         Press           Pxx            Pyy            Pzz      
        80  -356.20631     -356.20631      8.3163822      8.3163822      8.3163822      575.17939      220200.12      220200.12      220200.12      220200.12    
        81  -356.20631     -356.20631      8.3163822      8.3163822      8.3163822      575.17939      220200.12      220200.12      220200.12      220200.12    
Loop time of 0.000168 on 8 procs for 1 steps with 56 atoms

Performance: 514.286 ns/day, 0.047 hours/ns, 5952.381 timesteps/s, 333.333 katom-step/s
0.0% CPU use with 8 MPI tasks x 1 OpenMP threads

MPI task timing breakdown:
Section |  min time  |  avg time  |  max time  |%varavg| %total
---------------------------------------------------------------
Pair    | 0.000129   | 0.0001315  | 0.000136   |   0.0 | 78.27
Neigh   | 0          | 0          | 0          |   0.0 |  0.00
Comm    | 1.5e-05    | 1.975e-05  | 2.3e-05    |   0.0 | 11.76
Output  | 1.2e-05    | 1.2125e-05 | 1.3e-05    |   0.0 |  7.22
Modify  | 0          | 2.5e-07    | 1e-06      |   0.0 |  0.15
Other   |            | 4.375e-06  |            |       |  2.60

Nlocal:              7 ave           9 max           5 min
Histogram: 3 0 0 0 0 0 0 4 0 1
Nghost:          422.5 ave         424 max         420 min
Histogram: 1 0 0 0 0 4 0 0 0 3
Neighs:            306 ave         395 max         214 min
Histogram: 3 0 0 0 0 0 0 4 0 1
FullNghs:          612 ave         788 max         436 min
Histogram: 3 0 0 0 0 0 0 4 0 1

Total # of neighbors = 4896
Ave neighs/atom = 87.428571
Neighbor list builds = 0
Dangerous builds = 0
variable  natoms equal "count(all)"
variable xlength equal "lx"
variable  volume equal "vol"
variable  etotal equal "etotal"
variable    ecoh equal "pe/v_natoms"
print "${xlength}, ${volume}, ${etotal}, ${ecoh}" append lattice_cohesive_energy.txt screen no

next i
jump SELF loop

change_box all x scale 1.0025 y scale 1.0025 z scale 1.0025 remap
Changing box ...
  orthogonal box = (0.098089214 0.10848469 0.10848469) to (8.4352623 8.4248668 8.4248668)
  orthogonal box = (0.098089214 0.098089214 0.10848469) to (8.4352623 8.4352623 8.4248668)
  orthogonal box = (0.098089214 0.098089214 0.098089214) to (8.4352623 8.4352623 8.4352623)

run 1
WARNING: No fixes with time integration, atoms won't move (src/verlet.cpp:60)
Per MPI rank memory allocation (min/avg/max) = 8.554 | 8.556 | 8.558 Mbytes
   Step         PotEng         TotEng           Lx             Ly             Lz           Volume         Press           Pxx            Pyy            Pzz      
        81  -356.7804      -356.7804       8.3371731      8.3371731      8.3371731      579.50403      205251.37      205251.37      205251.37      205251.37    
        82  -356.7804      -356.7804       8.3371731      8.3371731      8.3371731      579.50403      205251.37      205251.37      205251.37      205251.37    
Loop time of 0.00014775 on 8 procs for 1 steps with 56 atoms

Performance: 584.772 ns/day, 0.041 hours/ns, 6768.190 timesteps/s, 379.019 katom-step/s
0.0% CPU use with 8 MPI tasks x 1 OpenMP threads

MPI task timing breakdown:
Section |  min time  |  avg time  |  max time  |%varavg| %total
---------------------------------------------------------------
Pair    | 0.000111   | 0.00011375 | 0.000116   |   0.0 | 76.99
Neigh   | 0          | 0          | 0          |   0.0 |  0.00
Comm    | 1.4e-05    | 1.7e-05    | 2e-05      |   0.0 | 11.51
Output  | 1.2e-05    | 1.2125e-05 | 1.3e-05    |   0.0 |  8.21
Modify  | 0          | 2.5e-07    | 1e-06      |   0.0 |  0.17
Other   |            | 4.625e-06  |            |       |  3.13

Nlocal:              7 ave           9 max           5 min
Histogram: 3 0 0 0 0 0 0 4 0 1
Nghost:          422.5 ave         424 max         420 min
Histogram: 1 0 0 0 0 4 0 0 0 3
Neighs:            306 ave         395 max         214 min
Histogram: 3 0 0 0 0 0 0 4 0 1
FullNghs:          612 ave         788 max         436 min
Histogram: 3 0 0 0 0 0 0 4 0 1

Total # of neighbors = 4896
Ave neighs/atom = 87.428571
Neighbor list builds = 0
Dangerous builds = 0
variable  natoms equal "count(all)"
variable xlength equal "lx"
variable  volume equal "vol"
variable  etotal equal "etotal"
variable    ecoh equal "pe/v_natoms"
print "${xlength}, ${volume}, ${etotal}, ${ecoh}" append lattice_cohesive_energy.txt screen no

next i
jump SELF loop

change_box all x scale 1.0025 y scale 1.0025 z scale 1.0025 remap
Changing box ...
  orthogonal box = (0.087667748 0.098089214 0.098089214) to (8.4456838 8.4352623 8.4352623)
  orthogonal box = (0.087667748 0.087667748 0.098089214) to (8.4456838 8.4456838 8.4352623)
  orthogonal box = (0.087667748 0.087667748 0.087667748) to (8.4456838 8.4456838 8.4456838)

run 1
WARNING: No fixes with time integration, atoms won't move (src/verlet.cpp:60)
Per MPI rank memory allocation (min/avg/max) = 8.554 | 8.556 | 8.558 Mbytes
   Step         PotEng         TotEng           Lx             Ly             Lz           Volume         Press           Pxx            Pyy            Pzz      
        82  -357.31862     -357.31862      8.358016       8.358016       8.358016       583.86118      190634.6       190634.6       190634.6       190634.6     
        83  -357.31862     -357.31862      8.358016       8.358016       8.358016       583.86118      190634.6       190634.6       190634.6       190634.6     
Loop time of 0.000253125 on 8 procs for 1 steps with 56 atoms

Performance: 341.333 ns/day, 0.070 hours/ns, 3950.617 timesteps/s, 221.235 katom-step/s
0.0% CPU use with 8 MPI tasks x 1 OpenMP threads

MPI task timing breakdown:
Section |  min time  |  avg time  |  max time  |%varavg| %total
---------------------------------------------------------------
Pair    | 0.000163   | 0.00017875 | 0.000206   |   0.0 | 70.62
Neigh   | 0          | 0          | 0          |   0.0 |  0.00
Comm    | 2.1e-05    | 4.6875e-05 | 6.3e-05    |   0.0 | 18.52
Output  | 1.6e-05    | 1.7625e-05 | 2e-05      |   0.0 |  6.96
Modify  | 0          | 0          | 0          |   0.0 |  0.00
Other   |            | 9.875e-06  |            |       |  3.90

Nlocal:              7 ave           9 max           5 min
Histogram: 3 0 0 0 0 0 0 4 0 1
Nghost:          422.5 ave         424 max         420 min
Histogram: 1 0 0 0 0 4 0 0 0 3
Neighs:            306 ave         395 max         214 min
Histogram: 3 0 0 0 0 0 0 4 0 1
FullNghs:          612 ave         788 max         436 min
Histogram: 3 0 0 0 0 0 0 4 0 1

Total # of neighbors = 4896
Ave neighs/atom = 87.428571
Neighbor list builds = 0
Dangerous builds = 0
variable  natoms equal "count(all)"
variable xlength equal "lx"
variable  volume equal "vol"
variable  etotal equal "etotal"
variable    ecoh equal "pe/v_natoms"
print "${xlength}, ${volume}, ${etotal}, ${ecoh}" append lattice_cohesive_energy.txt screen no

next i
jump SELF loop

change_box all x scale 1.0025 y scale 1.0025 z scale 1.0025 remap
Changing box ...
  orthogonal box = (0.077220228 0.087667748 0.087667748) to (8.4561313 8.4456838 8.4456838)
  orthogonal box = (0.077220228 0.077220228 0.087667748) to (8.4561313 8.4561313 8.4456838)
  orthogonal box = (0.077220228 0.077220228 0.077220228) to (8.4561313 8.4561313 8.4561313)

run 1
WARNING: No fixes with time integration, atoms won't move (src/verlet.cpp:60)
Per MPI rank memory allocation (min/avg/max) = 8.554 | 8.556 | 8.558 Mbytes
   Step         PotEng         TotEng           Lx             Ly             Lz           Volume         Press           Pxx            Pyy            Pzz      
        83  -357.82127     -357.82127      8.3789111      8.3789111      8.3789111      588.2511       176344.59      176344.59      176344.59      176344.59    
        84  -357.82127     -357.82127      8.3789111      8.3789111      8.3789111      588.2511       176344.59      176344.59      176344.59      176344.59    
Loop time of 0.000246 on 8 procs for 1 steps with 56 atoms

Performance: 351.220 ns/day, 0.068 hours/ns, 4065.041 timesteps/s, 227.642 katom-step/s
0.0% CPU use with 8 MPI tasks x 1 OpenMP threads

MPI task timing breakdown:
Section |  min time  |  avg time  |  max time  |%varavg| %total
---------------------------------------------------------------
Pair    | 0.000154   | 0.00017125 | 0.000198   |   0.0 | 69.61
Neigh   | 0          | 0          | 0          |   0.0 |  0.00
Comm    | 2.1e-05    | 4.775e-05  | 6.5e-05    |   0.0 | 19.41
Output  | 1.6e-05    | 1.725e-05  | 1.9e-05    |   0.0 |  7.01
Modify  | 0          | 2.5e-07    | 1e-06      |   0.0 |  0.10
Other   |            | 9.5e-06    |            |       |  3.86

Nlocal:              7 ave           9 max           5 min
Histogram: 3 0 0 0 0 0 0 4 0 1
Nghost:          422.5 ave         424 max         420 min
Histogram: 1 0 0 0 0 4 0 0 0 3
Neighs:            306 ave         395 max         214 min
Histogram: 3 0 0 0 0 0 0 4 0 1
FullNghs:          612 ave         788 max         436 min
Histogram: 3 0 0 0 0 0 0 4 0 1

Total # of neighbors = 4896
Ave neighs/atom = 87.428571
Neighbor list builds = 0
Dangerous builds = 0
variable  natoms equal "count(all)"
variable xlength equal "lx"
variable  volume equal "vol"
variable  etotal equal "etotal"
variable    ecoh equal "pe/v_natoms"
print "${xlength}, ${volume}, ${etotal}, ${ecoh}" append lattice_cohesive_energy.txt screen no

next i
jump SELF loop

change_box all x scale 1.0025 y scale 1.0025 z scale 1.0025 remap
Changing box ...
  orthogonal box = (0.066746589 0.077220228 0.077220228) to (8.466605 8.4561313 8.4561313)
  orthogonal box = (0.066746589 0.066746589 0.077220228) to (8.466605 8.466605 8.4561313)
  orthogonal box = (0.066746589 0.066746589 0.066746589) to (8.466605 8.466605 8.466605)

run 1
WARNING: No fixes with time integration, atoms won't move (src/verlet.cpp:60)
Per MPI rank memory allocation (min/avg/max) = 8.554 | 8.556 | 8.558 Mbytes
   Step         PotEng         TotEng           Lx             Ly             Lz           Volume         Press           Pxx            Pyy            Pzz      
        84  -358.28871     -358.28871      8.3998584      8.3998584      8.3998584      592.67402      162376.18      162376.18      162376.18      162376.18    
        85  -358.28871     -358.28871      8.3998584      8.3998584      8.3998584      592.67402      162376.18      162376.18      162376.18      162376.18    
Loop time of 0.00031225 on 8 procs for 1 steps with 56 atoms

Performance: 276.701 ns/day, 0.087 hours/ns, 3202.562 timesteps/s, 179.343 katom-step/s
0.0% CPU use with 8 MPI tasks x 1 OpenMP threads

MPI task timing breakdown:
Section |  min time  |  avg time  |  max time  |%varavg| %total
---------------------------------------------------------------
Pair    | 0.000234   | 0.00024163 | 0.000262   |   0.0 | 77.38
Neigh   | 0          | 0          | 0          |   0.0 |  0.00
Comm    | 2.2e-05    | 4.2125e-05 | 5.1e-05    |   0.0 | 13.49
Output  | 1.7e-05    | 1.875e-05  | 2.1e-05    |   0.0 |  6.00
Modify  | 0          | 0          | 0          |   0.0 |  0.00
Other   |            | 9.75e-06   |            |       |  3.12

Nlocal:              7 ave           9 max           5 min
Histogram: 3 0 0 0 0 0 0 4 0 1
Nghost:          422.5 ave         424 max         420 min
Histogram: 1 0 0 0 0 4 0 0 0 3
Neighs:            306 ave         395 max         214 min
Histogram: 3 0 0 0 0 0 0 4 0 1
FullNghs:          612 ave         788 max         436 min
Histogram: 3 0 0 0 0 0 0 4 0 1

Total # of neighbors = 4896
Ave neighs/atom = 87.428571
Neighbor list builds = 0
Dangerous builds = 0
variable  natoms equal "count(all)"
variable xlength equal "lx"
variable  volume equal "vol"
variable  etotal equal "etotal"
variable    ecoh equal "pe/v_natoms"
print "${xlength}, ${volume}, ${etotal}, ${ecoh}" append lattice_cohesive_energy.txt screen no

next i
jump SELF loop

change_box all x scale 1.0025 y scale 1.0025 z scale 1.0025 remap
Changing box ...
  orthogonal box = (0.056246766 0.066746589 0.066746589) to (8.4771048 8.466605 8.466605)
  orthogonal box = (0.056246766 0.056246766 0.066746589) to (8.4771048 8.4771048 8.466605)
  orthogonal box = (0.056246766 0.056246766 0.056246766) to (8.4771048 8.4771048 8.4771048)

run 1
WARNING: No fixes with time integration, atoms won't move (src/verlet.cpp:60)
Per MPI rank memory allocation (min/avg/max) = 8.554 | 8.556 | 8.558 Mbytes
   Step         PotEng         TotEng           Lx             Ly             Lz           Volume         Press           Pxx            Pyy            Pzz      
        85  -358.72125     -358.72125      8.420858       8.420858       8.420858       597.1302       148724.26      148724.26      148724.26      148724.26    
        86  -358.72125     -358.72125      8.420858       8.420858       8.420858       597.1302       148724.26      148724.26      148724.26      148724.26    
Loop time of 0.00025425 on 8 procs for 1 steps with 56 atoms

Performance: 339.823 ns/day, 0.071 hours/ns, 3933.137 timesteps/s, 220.256 katom-step/s
0.0% CPU use with 8 MPI tasks x 1 OpenMP threads

MPI task timing breakdown:
Section |  min time  |  avg time  |  max time  |%varavg| %total
---------------------------------------------------------------
Pair    | 0.000156   | 0.00017425 | 0.000205   |   0.0 | 68.53
Neigh   | 0          | 0          | 0          |   0.0 |  0.00
Comm    | 2.2e-05    | 5.175e-05  | 7e-05      |   0.0 | 20.35
Output  | 1.6e-05    | 1.7875e-05 | 2.1e-05    |   0.0 |  7.03
Modify  | 0          | 1.25e-07   | 1e-06      |   0.0 |  0.05
Other   |            | 1.025e-05  |            |       |  4.03

Nlocal:              7 ave           9 max           5 min
Histogram: 3 0 0 0 0 0 0 4 0 1
Nghost:          422.5 ave         424 max         420 min
Histogram: 1 0 0 0 0 4 0 0 0 3
Neighs:            306 ave         395 max         214 min
Histogram: 3 0 0 0 0 0 0 4 0 1
FullNghs:          612 ave         788 max         436 min
Histogram: 3 0 0 0 0 0 0 4 0 1

Total # of neighbors = 4896
Ave neighs/atom = 87.428571
Neighbor list builds = 0
Dangerous builds = 0
variable  natoms equal "count(all)"
variable xlength equal "lx"
variable  volume equal "vol"
variable  etotal equal "etotal"
variable    ecoh equal "pe/v_natoms"
print "${xlength}, ${volume}, ${etotal}, ${ecoh}" append lattice_cohesive_energy.txt screen no

next i
jump SELF loop

change_box all x scale 1.0025 y scale 1.0025 z scale 1.0025 remap
Changing box ...
  orthogonal box = (0.045720694 0.056246766 0.056246766) to (8.4876308 8.4771048 8.4771048)
  orthogonal box = (0.045720694 0.045720694 0.056246766) to (8.4876308 8.4876308 8.4771048)
  orthogonal box = (0.045720694 0.045720694 0.045720694) to (8.4876308 8.4876308 8.4876308)

run 1
WARNING: No fixes with time integration, atoms won't move (src/verlet.cpp:60)
Per MPI rank memory allocation (min/avg/max) = 8.554 | 8.556 | 8.558 Mbytes
   Step         PotEng         TotEng           Lx             Ly             Lz           Volume         Press           Pxx            Pyy            Pzz      
        86  -359.11922     -359.11922      8.4419102      8.4419102      8.4419102      601.61988      135383.79      135383.79      135383.79      135383.79    
        87  -359.11922     -359.11922      8.4419102      8.4419102      8.4419102      601.61988      135383.79      135383.79      135383.79      135383.79    
Loop time of 0.000243375 on 8 procs for 1 steps with 56 atoms

Performance: 355.008 ns/day, 0.068 hours/ns, 4108.885 timesteps/s, 230.098 katom-step/s
0.0% CPU use with 8 MPI tasks x 1 OpenMP threads

MPI task timing breakdown:
Section |  min time  |  avg time  |  max time  |%varavg| %total
---------------------------------------------------------------
Pair    | 0.000154   | 0.00017013 | 0.000198   |   0.0 | 69.90
Neigh   | 0          | 0          | 0          |   0.0 |  0.00
Comm    | 2e-05      | 4.6875e-05 | 6.3e-05    |   0.0 | 19.26
Output  | 1.6e-05    | 1.725e-05  | 1.9e-05    |   0.0 |  7.09
Modify  | 0          | 1.25e-07   | 1e-06      |   0.0 |  0.05
Other   |            | 9e-06      |            |       |  3.70

Nlocal:              7 ave           9 max           5 min
Histogram: 3 0 0 0 0 0 0 4 0 1
Nghost:          422.5 ave         424 max         420 min
Histogram: 1 0 0 0 0 4 0 0 0 3
Neighs:            294 ave         389 max         208 min
Histogram: 3 0 0 0 0 0 2 2 0 1
FullNghs:          588 ave         776 max         424 min
Histogram: 3 0 0 0 0 0 4 0 0 1

Total # of neighbors = 4704
Ave neighs/atom = 84
Neighbor list builds = 0
Dangerous builds = 0
variable  natoms equal "count(all)"
variable xlength equal "lx"
variable  volume equal "vol"
variable  etotal equal "etotal"
variable    ecoh equal "pe/v_natoms"
print "${xlength}, ${volume}, ${etotal}, ${ecoh}" append lattice_cohesive_energy.txt screen no

next i
jump SELF loop

change_box all x scale 1.0025 y scale 1.0025 z scale 1.0025 remap
Changing box ...
  orthogonal box = (0.035168306 0.045720694 0.045720694) to (8.4981832 8.4876308 8.4876308)
  orthogonal box = (0.035168306 0.035168306 0.045720694) to (8.4981832 8.4981832 8.4876308)
  orthogonal box = (0.035168306 0.035168306 0.035168306) to (8.4981832 8.4981832 8.4981832)

run 1
WARNING: No fixes with time integration, atoms won't move (src/verlet.cpp:60)
Per MPI rank memory allocation (min/avg/max) = 8.554 | 8.556 | 8.558 Mbytes
   Step         PotEng         TotEng           Lx             Ly             Lz           Volume         Press           Pxx            Pyy            Pzz      
        87  -359.48296     -359.48296      8.4630149      8.4630149      8.4630149      606.14332      122349.8       122349.8       122349.8       122349.8     
        88  -359.48296     -359.48296      8.4630149      8.4630149      8.4630149      606.14332      122349.8       122349.8       122349.8       122349.8     
Loop time of 0.000235125 on 8 procs for 1 steps with 56 atoms

Performance: 367.464 ns/day, 0.065 hours/ns, 4253.057 timesteps/s, 238.171 katom-step/s
0.0% CPU use with 8 MPI tasks x 1 OpenMP threads

MPI task timing breakdown:
Section |  min time  |  avg time  |  max time  |%varavg| %total
---------------------------------------------------------------
Pair    | 0.000161   | 0.00016875 | 0.000188   |   0.0 | 71.77
Neigh   | 0          | 0          | 0          |   0.0 |  0.00
Comm    | 2.1e-05    | 3.9625e-05 | 4.8e-05    |   0.0 | 16.85
Output  | 1.5e-05    | 1.7375e-05 | 1.9e-05    |   0.0 |  7.39
Modify  | 0          | 1.25e-07   | 1e-06      |   0.0 |  0.05
Other   |            | 9.25e-06   |            |       |  3.93

Nlocal:              7 ave           9 max           5 min
Histogram: 3 0 0 0 0 0 0 4 0 1
Nghost:          422.5 ave         424 max         420 min
Histogram: 1 0 0 0 0 4 0 0 0 3
Neighs:            294 ave         389 max         208 min
Histogram: 3 0 0 0 0 0 2 2 0 1
FullNghs:          588 ave         776 max         424 min
Histogram: 3 0 0 0 0 0 4 0 0 1

Total # of neighbors = 4704
Ave neighs/atom = 84
Neighbor list builds = 0
Dangerous builds = 0
variable  natoms equal "count(all)"
variable xlength equal "lx"
variable  volume equal "vol"
variable  etotal equal "etotal"
variable    ecoh equal "pe/v_natoms"
print "${xlength}, ${volume}, ${etotal}, ${ecoh}" append lattice_cohesive_energy.txt screen no

next i
jump SELF loop

change_box all x scale 1.0025 y scale 1.0025 z scale 1.0025 remap
Changing box ...
  orthogonal box = (0.024589537 0.035168306 0.035168306) to (8.508762 8.4981832 8.4981832)
  orthogonal box = (0.024589537 0.024589537 0.035168306) to (8.508762 8.508762 8.4981832)
  orthogonal box = (0.024589537 0.024589537 0.024589537) to (8.508762 8.508762 8.508762)

run 1
WARNING: No fixes with time integration, atoms won't move (src/verlet.cpp:60)
Per MPI rank memory allocation (min/avg/max) = 8.554 | 8.556 | 8.558 Mbytes
   Step         PotEng         TotEng           Lx             Ly             Lz           Volume         Press           Pxx            Pyy            Pzz      
        88  -359.81278     -359.81278      8.4841725      8.4841725      8.4841725      610.70077      109617.36      109617.36      109617.36      109617.36    
        89  -359.81278     -359.81278      8.4841725      8.4841725      8.4841725      610.70077      109617.36      109617.36      109617.36      109617.36    
Loop time of 0.000245875 on 8 procs for 1 steps with 56 atoms

Performance: 351.398 ns/day, 0.068 hours/ns, 4067.107 timesteps/s, 227.758 katom-step/s
0.0% CPU use with 8 MPI tasks x 1 OpenMP threads

MPI task timing breakdown:
Section |  min time  |  avg time  |  max time  |%varavg| %total
---------------------------------------------------------------
Pair    | 0.000155   | 0.00017213 | 0.0002     |   0.0 | 70.01
Neigh   | 0          | 0          | 0          |   0.0 |  0.00
Comm    | 2e-05      | 4.8e-05    | 6.5e-05    |   0.0 | 19.52
Output  | 1.5e-05    | 1.675e-05  | 1.9e-05    |   0.0 |  6.81
Modify  | 0          | 1.25e-07   | 1e-06      |   0.0 |  0.05
Other   |            | 8.875e-06  |            |       |  3.61

Nlocal:              7 ave           9 max           5 min
Histogram: 3 0 0 0 0 0 0 4 0 1
Nghost:          422.5 ave         424 max         420 min
Histogram: 1 0 0 0 0 4 0 0 0 3
Neighs:            294 ave         389 max         208 min
Histogram: 3 0 0 0 0 0 2 2 0 1
FullNghs:          588 ave         776 max         424 min
Histogram: 3 0 0 0 0 0 4 0 0 1

Total # of neighbors = 4704
Ave neighs/atom = 84
Neighbor list builds = 0
Dangerous builds = 0
variable  natoms equal "count(all)"
variable xlength equal "lx"
variable  volume equal "vol"
variable  etotal equal "etotal"
variable    ecoh equal "pe/v_natoms"
print "${xlength}, ${volume}, ${etotal}, ${ecoh}" append lattice_cohesive_energy.txt screen no

next i
jump SELF loop

change_box all x scale 1.0025 y scale 1.0025 z scale 1.0025 remap
Changing box ...
  orthogonal box = (0.013984322 0.024589537 0.024589537) to (8.5193672 8.508762 8.508762)
  orthogonal box = (0.013984322 0.013984322 0.024589537) to (8.5193672 8.5193672 8.508762)
  orthogonal box = (0.013984322 0.013984322 0.013984322) to (8.5193672 8.5193672 8.5193672)

run 1
WARNING: No fixes with time integration, atoms won't move (src/verlet.cpp:60)
Per MPI rank memory allocation (min/avg/max) = 8.554 | 8.556 | 8.558 Mbytes
   Step         PotEng         TotEng           Lx             Ly             Lz           Volume         Press           Pxx            Pyy            Pzz      
        89  -360.10903     -360.10903      8.5053829      8.5053829      8.5053829      615.29248      97181.626      97181.626      97181.626      97181.626    
        90  -360.10903     -360.10903      8.5053829      8.5053829      8.5053829      615.29248      97181.626      97181.626      97181.626      97181.626    
Loop time of 0.000250375 on 8 procs for 1 steps with 56 atoms

Performance: 345.082 ns/day, 0.070 hours/ns, 3994.009 timesteps/s, 223.665 katom-step/s
780.1% CPU use with 8 MPI tasks x 1 OpenMP threads

MPI task timing breakdown:
Section |  min time  |  avg time  |  max time  |%varavg| %total
---------------------------------------------------------------
Pair    | 0.00015    | 0.00017038 | 0.000201   |   0.0 | 68.05
Neigh   | 0          | 0          | 0          |   0.0 |  0.00
Comm    | 2e-05      | 5.2e-05    | 7.6e-05    |   0.0 | 20.77
Output  | 1.5e-05    | 1.95e-05   | 2.2e-05    |   0.0 |  7.79
Modify  | 0          | 3.75e-07   | 2e-06      |   0.0 |  0.15
Other   |            | 8.125e-06  |            |       |  3.25

Nlocal:              7 ave           9 max           5 min
Histogram: 3 0 0 0 0 0 0 4 0 1
Nghost:          422.5 ave         424 max         420 min
Histogram: 1 0 0 0 0 4 0 0 0 3
Neighs:            252 ave         335 max         181 min
Histogram: 3 0 0 0 0 0 4 0 0 1
FullNghs:          504 ave         668 max         364 min
Histogram: 3 0 0 0 0 0 4 0 0 1

Total # of neighbors = 4032
Ave neighs/atom = 72
Neighbor list builds = 0
Dangerous builds = 0
variable  natoms equal "count(all)"
variable xlength equal "lx"
variable  volume equal "vol"
variable  etotal equal "etotal"
variable    ecoh equal "pe/v_natoms"
print "${xlength}, ${volume}, ${etotal}, ${ecoh}" append lattice_cohesive_energy.txt screen no

next i
jump SELF loop

change_box all x scale 1.0025 y scale 1.0025 z scale 1.0025 remap
Changing box ...
  orthogonal box = (0.003352593 0.013984322 0.013984322) to (8.5299989 8.5193672 8.5193672)
  orthogonal box = (0.003352593 0.003352593 0.013984322) to (8.5299989 8.5299989 8.5193672)
  orthogonal box = (0.003352593 0.003352593 0.003352593) to (8.5299989 8.5299989 8.5299989)

run 1
WARNING: No fixes with time integration, atoms won't move (src/verlet.cpp:60)
Per MPI rank memory allocation (min/avg/max) = 8.554 | 8.556 | 8.558 Mbytes
   Step         PotEng         TotEng           Lx             Ly             Lz           Volume         Press           Pxx            Pyy            Pzz      
        90  -360.37201     -360.37201      8.5266464      8.5266464      8.5266464      619.91872      85037.784      85037.784      85037.784      85037.784    
        91  -360.37201     -360.37201      8.5266464      8.5266464      8.5266464      619.91872      85037.784      85037.784      85037.784      85037.784    
Loop time of 0.000244375 on 8 procs for 1 steps with 56 atoms

Performance: 353.555 ns/day, 0.068 hours/ns, 4092.072 timesteps/s, 229.156 katom-step/s
0.0% CPU use with 8 MPI tasks x 1 OpenMP threads

MPI task timing breakdown:
Section |  min time  |  avg time  |  max time  |%varavg| %total
---------------------------------------------------------------
Pair    | 0.000155   | 0.00017175 | 0.0002     |   0.0 | 70.28
Neigh   | 0          | 0          | 0          |   0.0 |  0.00
Comm    | 2e-05      | 4.675e-05  | 6.4e-05    |   0.0 | 19.13
Output  | 1.5e-05    | 1.6375e-05 | 1.9e-05    |   0.0 |  6.70
Modify  | 0          | 6.25e-07   | 1e-06      |   0.0 |  0.26
Other   |            | 8.875e-06  |            |       |  3.63

Nlocal:              7 ave           9 max           5 min
Histogram: 3 0 0 0 0 0 0 4 0 1
Nghost:          422.5 ave         424 max         420 min
Histogram: 1 0 0 0 0 4 0 0 0 3
Neighs:            252 ave         335 max         181 min
Histogram: 3 0 0 0 0 0 4 0 0 1
FullNghs:          504 ave         668 max         364 min
Histogram: 3 0 0 0 0 0 4 0 0 1

Total # of neighbors = 4032
Ave neighs/atom = 72
Neighbor list builds = 0
Dangerous builds = 0
variable  natoms equal "count(all)"
variable xlength equal "lx"
variable  volume equal "vol"
variable  etotal equal "etotal"
variable    ecoh equal "pe/v_natoms"
print "${xlength}, ${volume}, ${etotal}, ${ecoh}" append lattice_cohesive_energy.txt screen no

next i
jump SELF loop

change_box all x scale 1.0025 y scale 1.0025 z scale 1.0025 remap
Changing box ...
  orthogonal box = (-0.0073057149 0.003352593 0.003352593) to (8.5406573 8.5299989 8.5299989)
  orthogonal box = (-0.0073057149 -0.0073057149 0.003352593) to (8.5406573 8.5406573 8.5299989)
  orthogonal box = (-0.0073057149 -0.0073057149 -0.0073057149) to (8.5406573 8.5406573 8.5406573)

run 1
WARNING: No fixes with time integration, atoms won't move (src/verlet.cpp:60)
Per MPI rank memory allocation (min/avg/max) = 8.554 | 8.556 | 8.558 Mbytes
   Step         PotEng         TotEng           Lx             Ly             Lz           Volume         Press           Pxx            Pyy            Pzz      
        91  -360.60206     -360.60206      8.547963       8.547963       8.547963       624.57975      73181.088      73181.088      73181.088      73181.088    
        92  -360.60206     -360.60206      8.547963       8.547963       8.547963       624.57975      73181.088      73181.088      73181.088      73181.088    
Loop time of 0.000231875 on 8 procs for 1 steps with 56 atoms

Performance: 372.615 ns/day, 0.064 hours/ns, 4312.668 timesteps/s, 241.509 katom-step/s
0.0% CPU use with 8 MPI tasks x 1 OpenMP threads

MPI task timing breakdown:
Section |  min time  |  avg time  |  max time  |%varavg| %total
---------------------------------------------------------------
Pair    | 0.000147   | 0.000161   | 0.000186   |   0.0 | 69.43
Neigh   | 0          | 0          | 0          |   0.0 |  0.00
Comm    | 2.1e-05    | 4.5375e-05 | 6e-05      |   0.0 | 19.57
Output  | 1.5e-05    | 1.7e-05    | 1.8e-05    |   0.0 |  7.33
Modify  | 0          | 2.5e-07    | 1e-06      |   0.0 |  0.11
Other   |            | 8.25e-06   |            |       |  3.56

Nlocal:              7 ave           9 max           5 min
Histogram: 3 0 0 0 0 0 0 4 0 1
Nghost:          422.5 ave         424 max         420 min
Histogram: 1 0 0 0 0 4 0 0 0 3
Neighs:            252 ave         335 max         181 min
Histogram: 3 0 0 0 0 0 4 0 0 1
FullNghs:          504 ave         668 max         364 min
Histogram: 3 0 0 0 0 0 4 0 0 1

Total # of neighbors = 4032
Ave neighs/atom = 72
Neighbor list builds = 0
Dangerous builds = 0
variable  natoms equal "count(all)"
variable xlength equal "lx"
variable  volume equal "vol"
variable  etotal equal "etotal"
variable    ecoh equal "pe/v_natoms"
print "${xlength}, ${volume}, ${etotal}, ${ecoh}" append lattice_cohesive_energy.txt screen no

next i
jump SELF loop

change_box all x scale 1.0025 y scale 1.0025 z scale 1.0025 remap
Changing box ...
  orthogonal box = (-0.017990669 -0.0073057149 -0.0073057149) to (8.5513422 8.5406573 8.5406573)
  orthogonal box = (-0.017990669 -0.017990669 -0.0073057149) to (8.5513422 8.5513422 8.5406573)
  orthogonal box = (-0.017990669 -0.017990669 -0.017990669) to (8.5513422 8.5513422 8.5513422)

run 1
WARNING: No fixes with time integration, atoms won't move (src/verlet.cpp:60)
Per MPI rank memory allocation (min/avg/max) = 8.554 | 8.556 | 8.558 Mbytes
   Step         PotEng         TotEng           Lx             Ly             Lz           Volume         Press           Pxx            Pyy            Pzz      
        92  -360.79951     -360.79951      8.5693329      8.5693329      8.5693329      629.27581      61606.852      61606.852      61606.852      61606.852    
        93  -360.79951     -360.79951      8.5693329      8.5693329      8.5693329      629.27581      61606.852      61606.852      61606.852      61606.852    
Loop time of 0.000243375 on 8 procs for 1 steps with 56 atoms

Performance: 355.008 ns/day, 0.068 hours/ns, 4108.885 timesteps/s, 230.098 katom-step/s
0.0% CPU use with 8 MPI tasks x 1 OpenMP threads

MPI task timing breakdown:
Section |  min time  |  avg time  |  max time  |%varavg| %total
---------------------------------------------------------------
Pair    | 0.000146   | 0.0001665  | 0.000198   |   0.0 | 68.41
Neigh   | 0          | 0          | 0          |   0.0 |  0.00
Comm    | 2.1e-05    | 5.1625e-05 | 7.2e-05    |   0.0 | 21.21
Output  | 1.6e-05    | 1.7125e-05 | 1.9e-05    |   0.0 |  7.04
Modify  | 0          | 0          | 0          |   0.0 |  0.00
Other   |            | 8.125e-06  |            |       |  3.34

Nlocal:              7 ave           9 max           5 min
Histogram: 3 0 0 0 0 0 0 4 0 1
Nghost:          422.5 ave         424 max         420 min
Histogram: 1 0 0 0 0 4 0 0 0 3
Neighs:            252 ave         335 max         181 min
Histogram: 3 0 0 0 0 0 4 0 0 1
FullNghs:          504 ave         668 max         364 min
Histogram: 3 0 0 0 0 0 4 0 0 1

Total # of neighbors = 4032
Ave neighs/atom = 72
Neighbor list builds = 0
Dangerous builds = 0
variable  natoms equal "count(all)"
variable xlength equal "lx"
variable  volume equal "vol"
variable  etotal equal "etotal"
variable    ecoh equal "pe/v_natoms"
print "${xlength}, ${volume}, ${etotal}, ${ecoh}" append lattice_cohesive_energy.txt screen no

next i
jump SELF loop

change_box all x scale 1.0025 y scale 1.0025 z scale 1.0025 remap
Changing box ...
  orthogonal box = (-0.028702335 -0.017990669 -0.017990669) to (8.5620539 8.5513422 8.5513422)
  orthogonal box = (-0.028702335 -0.028702335 -0.017990669) to (8.5620539 8.5620539 8.5513422)
  orthogonal box = (-0.028702335 -0.028702335 -0.028702335) to (8.5620539 8.5620539 8.5620539)

run 1
WARNING: No fixes with time integration, atoms won't move (src/verlet.cpp:60)
Per MPI rank memory allocation (min/avg/max) = 8.554 | 8.556 | 8.558 Mbytes
   Step         PotEng         TotEng           Lx             Ly             Lz           Volume         Press           Pxx            Pyy            Pzz      
        93  -360.96467     -360.96467      8.5907562      8.5907562      8.5907562      634.00719      50310.454      50310.454      50310.454      50310.454    
        94  -360.96467     -360.96467      8.5907562      8.5907562      8.5907562      634.00719      50310.454      50310.454      50310.454      50310.454    
Loop time of 0.0002435 on 8 procs for 1 steps with 56 atoms

Performance: 354.825 ns/day, 0.068 hours/ns, 4106.776 timesteps/s, 229.979 katom-step/s
0.0% CPU use with 8 MPI tasks x 1 OpenMP threads

MPI task timing breakdown:
Section |  min time  |  avg time  |  max time  |%varavg| %total
---------------------------------------------------------------
Pair    | 0.000152   | 0.00016963 | 0.000198   |   0.0 | 69.66
Neigh   | 0          | 0          | 0          |   0.0 |  0.00
Comm    | 2.1e-05    | 4.85e-05   | 6.6e-05    |   0.0 | 19.92
Output  | 1.6e-05    | 1.6875e-05 | 1.9e-05    |   0.0 |  6.93
Modify  | 0          | 3.75e-07   | 1e-06      |   0.0 |  0.15
Other   |            | 8.125e-06  |            |       |  3.34

Nlocal:              7 ave           9 max           5 min
Histogram: 3 0 0 0 0 0 0 4 0 1
Nghost:          422.5 ave         424 max         420 min
Histogram: 1 0 0 0 0 4 0 0 0 3
Neighs:            252 ave         335 max         181 min
Histogram: 3 0 0 0 0 0 4 0 0 1
FullNghs:          504 ave         668 max         364 min
Histogram: 3 0 0 0 0 0 4 0 0 1

Total # of neighbors = 4032
Ave neighs/atom = 72
Neighbor list builds = 0
Dangerous builds = 0
variable  natoms equal "count(all)"
variable xlength equal "lx"
variable  volume equal "vol"
variable  etotal equal "etotal"
variable    ecoh equal "pe/v_natoms"
print "${xlength}, ${volume}, ${etotal}, ${ecoh}" append lattice_cohesive_energy.txt screen no

next i
jump SELF loop

change_box all x scale 1.0025 y scale 1.0025 z scale 1.0025 remap
Changing box ...
  orthogonal box = (-0.03944078 -0.028702335 -0.028702335) to (8.5727923 8.5620539 8.5620539)
  orthogonal box = (-0.03944078 -0.03944078 -0.028702335) to (8.5727923 8.5727923 8.5620539)
  orthogonal box = (-0.03944078 -0.03944078 -0.03944078) to (8.5727923 8.5727923 8.5727923)

run 1
WARNING: No fixes with time integration, atoms won't move (src/verlet.cpp:60)
Per MPI rank memory allocation (min/avg/max) = 8.554 | 8.556 | 8.558 Mbytes
   Step         PotEng         TotEng           Lx             Ly             Lz           Volume         Press           Pxx            Pyy            Pzz      
        94  -361.09787     -361.09787      8.6122331      8.6122331      8.6122331      638.77414      39287.319      39287.319      39287.319      39287.319    
        95  -361.09787     -361.09787      8.6122331      8.6122331      8.6122331      638.77414      39287.319      39287.319      39287.319      39287.319    
Loop time of 0.000229125 on 8 procs for 1 steps with 56 atoms

Performance: 377.087 ns/day, 0.064 hours/ns, 4364.430 timesteps/s, 244.408 katom-step/s
0.0% CPU use with 8 MPI tasks x 1 OpenMP threads

MPI task timing breakdown:
Section |  min time  |  avg time  |  max time  |%varavg| %total
---------------------------------------------------------------
Pair    | 0.000147   | 0.00015962 | 0.000184   |   0.0 | 69.67
Neigh   | 0          | 0          | 0          |   0.0 |  0.00
Comm    | 2e-05      | 4.45e-05   | 5.8e-05    |   0.0 | 19.42
Output  | 1.5e-05    | 1.675e-05  | 1.9e-05    |   0.0 |  7.31
Modify  | 0          | 1.25e-07   | 1e-06      |   0.0 |  0.05
Other   |            | 8.125e-06  |            |       |  3.55

Nlocal:              7 ave           9 max           5 min
Histogram: 3 0 0 0 0 0 0 4 0 1
Nghost:          422.5 ave         424 max         420 min
Histogram: 1 0 0 0 0 4 0 0 0 3
Neighs:            252 ave         335 max         181 min
Histogram: 3 0 0 0 0 0 4 0 0 1
FullNghs:          504 ave         668 max         364 min
Histogram: 3 0 0 0 0 0 4 0 0 1

Total # of neighbors = 4032
Ave neighs/atom = 72
Neighbor list builds = 0
Dangerous builds = 0
variable  natoms equal "count(all)"
variable xlength equal "lx"
variable  volume equal "vol"
variable  etotal equal "etotal"
variable    ecoh equal "pe/v_natoms"
print "${xlength}, ${volume}, ${etotal}, ${ecoh}" append lattice_cohesive_energy.txt screen no

next i
jump SELF loop

change_box all x scale 1.0025 y scale 1.0025 z scale 1.0025 remap
Changing box ...
  orthogonal box = (-0.050206071 -0.03944078 -0.03944078) to (8.5835576 8.5727923 8.5727923)
  orthogonal box = (-0.050206071 -0.050206071 -0.03944078) to (8.5835576 8.5835576 8.5727923)
  orthogonal box = (-0.050206071 -0.050206071 -0.050206071) to (8.5835576 8.5835576 8.5835576)

run 1
WARNING: No fixes with time integration, atoms won't move (src/verlet.cpp:60)
Per MPI rank memory allocation (min/avg/max) = 8.554 | 8.556 | 8.558 Mbytes
   Step         PotEng         TotEng           Lx             Ly             Lz           Volume         Press           Pxx            Pyy            Pzz      
        95  -361.19944     -361.19944      8.6337637      8.6337637      8.6337637      643.57694      28532.937      28532.937      28532.937      28532.937    
        96  -361.19944     -361.19944      8.6337637      8.6337637      8.6337637      643.57694      28532.937      28532.937      28532.937      28532.937    
Loop time of 0.000232375 on 8 procs for 1 steps with 56 atoms

Performance: 371.813 ns/day, 0.065 hours/ns, 4303.389 timesteps/s, 240.990 katom-step/s
0.0% CPU use with 8 MPI tasks x 1 OpenMP threads

MPI task timing breakdown:
Section |  min time  |  avg time  |  max time  |%varavg| %total
---------------------------------------------------------------
Pair    | 0.000157   | 0.00016588 | 0.000188   |   0.0 | 71.38
Neigh   | 0          | 0          | 0          |   0.0 |  0.00
Comm    | 2e-05      | 4.1375e-05 | 5.1e-05    |   0.0 | 17.81
Output  | 1.6e-05    | 1.7e-05    | 1.9e-05    |   0.0 |  7.32
Modify  | 0          | 0          | 0          |   0.0 |  0.00
Other   |            | 8.125e-06  |            |       |  3.50

Nlocal:              7 ave           9 max           5 min
Histogram: 3 0 0 0 0 0 0 4 0 1
Nghost:          422.5 ave         424 max         420 min
Histogram: 1 0 0 0 0 4 0 0 0 3
Neighs:            252 ave         335 max         181 min
Histogram: 3 0 0 0 0 0 4 0 0 1
FullNghs:          504 ave         668 max         364 min
Histogram: 3 0 0 0 0 0 4 0 0 1

Total # of neighbors = 4032
Ave neighs/atom = 72
Neighbor list builds = 0
Dangerous builds = 0
variable  natoms equal "count(all)"
variable xlength equal "lx"
variable  volume equal "vol"
variable  etotal equal "etotal"
variable    ecoh equal "pe/v_natoms"
print "${xlength}, ${volume}, ${etotal}, ${ecoh}" append lattice_cohesive_energy.txt screen no

next i
jump SELF loop

change_box all x scale 1.0025 y scale 1.0025 z scale 1.0025 remap
Changing box ...
  orthogonal box = (-0.060998276 -0.050206071 -0.050206071) to (8.5943498 8.5835576 8.5835576)
  orthogonal box = (-0.060998276 -0.060998276 -0.050206071) to (8.5943498 8.5943498 8.5835576)
  orthogonal box = (-0.060998276 -0.060998276 -0.060998276) to (8.5943498 8.5943498 8.5943498)

run 1
WARNING: No fixes with time integration, atoms won't move (src/verlet.cpp:60)
Per MPI rank memory allocation (min/avg/max) = 8.554 | 8.556 | 8.558 Mbytes
   Step         PotEng         TotEng           Lx             Ly             Lz           Volume         Press           Pxx            Pyy            Pzz      
        96  -361.26969     -361.26969      8.6553481      8.6553481      8.6553481      648.41584      18042.856      18042.856      18042.856      18042.856    
        97  -361.26969     -361.26969      8.6553481      8.6553481      8.6553481      648.41584      18042.856      18042.856      18042.856      18042.856    
Loop time of 0.00024075 on 8 procs for 1 steps with 56 atoms

Performance: 358.879 ns/day, 0.067 hours/ns, 4153.686 timesteps/s, 232.606 katom-step/s
0.0% CPU use with 8 MPI tasks x 1 OpenMP threads

MPI task timing breakdown:
Section |  min time  |  avg time  |  max time  |%varavg| %total
---------------------------------------------------------------
Pair    | 0.000167   | 0.00017563 | 0.000195   |   0.0 | 72.95
Neigh   | 0          | 0          | 0          |   0.0 |  0.00
Comm    | 2.1e-05    | 3.975e-05  | 4.9e-05    |   0.0 | 16.51
Output  | 1.5e-05    | 1.7125e-05 | 1.8e-05    |   0.0 |  7.11
Modify  | 0          | 2.5e-07    | 1e-06      |   0.0 |  0.10
Other   |            | 8e-06      |            |       |  3.32

Nlocal:              7 ave           9 max           5 min
Histogram: 3 0 0 0 0 0 0 4 0 1
Nghost:          422.5 ave         424 max         420 min
Histogram: 1 0 0 0 0 4 0 0 0 3
Neighs:            252 ave         335 max         181 min
Histogram: 3 0 0 0 0 0 4 0 0 1
FullNghs:          504 ave         668 max         364 min
Histogram: 3 0 0 0 0 0 4 0 0 1

Total # of neighbors = 4032
Ave neighs/atom = 72
Neighbor list builds = 0
Dangerous builds = 0
variable  natoms equal "count(all)"
variable xlength equal "lx"
variable  volume equal "vol"
variable  etotal equal "etotal"
variable    ecoh equal "pe/v_natoms"
print "${xlength}, ${volume}, ${etotal}, ${ecoh}" append lattice_cohesive_energy.txt screen no

next i
jump SELF loop

change_box all x scale 1.0025 y scale 1.0025 z scale 1.0025 remap
Changing box ...
  orthogonal box = (-0.071817461 -0.060998276 -0.060998276) to (8.605169 8.5943498 8.5943498)
  orthogonal box = (-0.071817461 -0.071817461 -0.060998276) to (8.605169 8.605169 8.5943498)
  orthogonal box = (-0.071817461 -0.071817461 -0.071817461) to (8.605169 8.605169 8.605169)

run 1
WARNING: No fixes with time integration, atoms won't move (src/verlet.cpp:60)
Per MPI rank memory allocation (min/avg/max) = 8.554 | 8.556 | 8.558 Mbytes
   Step         PotEng         TotEng           Lx             Ly             Lz           Volume         Press           Pxx            Pyy            Pzz      
        97  -361.30894     -361.30894      8.6769865      8.6769865      8.6769865      653.29113      7812.6789      7812.6789      7812.6789      7812.6789    
        98  -361.30894     -361.30894      8.6769865      8.6769865      8.6769865      653.29113      7812.6789      7812.6789      7812.6789      7812.6789    
Loop time of 0.00027275 on 8 procs for 1 steps with 56 atoms

Performance: 316.774 ns/day, 0.076 hours/ns, 3666.361 timesteps/s, 205.316 katom-step/s
0.0% CPU use with 8 MPI tasks x 1 OpenMP threads

MPI task timing breakdown:
Section |  min time  |  avg time  |  max time  |%varavg| %total
---------------------------------------------------------------
Pair    | 0.000201   | 0.000209   | 0.000224   |   0.0 | 76.63
Neigh   | 0          | 0          | 0          |   0.0 |  0.00
Comm    | 2.1e-05    | 3.65e-05   | 4.4e-05    |   0.0 | 13.38
Output  | 1.6e-05    | 1.7875e-05 | 1.9e-05    |   0.0 |  6.55
Modify  | 0          | 0          | 0          |   0.0 |  0.00
Other   |            | 9.375e-06  |            |       |  3.44

Nlocal:              7 ave           9 max           5 min
Histogram: 3 0 0 0 0 0 0 4 0 1
Nghost:          422.5 ave         424 max         420 min
Histogram: 1 0 0 0 0 4 0 0 0 3
Neighs:            252 ave         335 max         181 min
Histogram: 3 0 0 0 0 0 4 0 0 1
FullNghs:          504 ave         668 max         364 min
Histogram: 3 0 0 0 0 0 4 0 0 1

Total # of neighbors = 4032
Ave neighs/atom = 72
Neighbor list builds = 0
Dangerous builds = 0
variable  natoms equal "count(all)"
variable xlength equal "lx"
variable  volume equal "vol"
variable  etotal equal "etotal"
variable    ecoh equal "pe/v_natoms"
print "${xlength}, ${volume}, ${etotal}, ${ecoh}" append lattice_cohesive_energy.txt screen no

next i
jump SELF loop

change_box all x scale 1.0025 y scale 1.0025 z scale 1.0025 remap
Changing box ...
  orthogonal box = (-0.082663694 -0.071817461 -0.071817461) to (8.6160152 8.605169 8.605169)
  orthogonal box = (-0.082663694 -0.082663694 -0.071817461) to (8.6160152 8.6160152 8.605169)
  orthogonal box = (-0.082663694 -0.082663694 -0.082663694) to (8.6160152 8.6160152 8.6160152)

run 1
WARNING: No fixes with time integration, atoms won't move (src/verlet.cpp:60)
Per MPI rank memory allocation (min/avg/max) = 8.554 | 8.556 | 8.558 Mbytes
   Step         PotEng         TotEng           Lx             Ly             Lz           Volume         Press           Pxx            Pyy            Pzz      
        98  -361.31752     -361.31752      8.6986789      8.6986789      8.6986789      658.20307     -2161.9458     -2161.9458     -2161.9458     -2161.9458    
        99  -361.31752     -361.31752      8.6986789      8.6986789      8.6986789      658.20307     -2161.9458     -2161.9458     -2161.9458     -2161.9458    
Loop time of 0.00024575 on 8 procs for 1 steps with 56 atoms

Performance: 351.577 ns/day, 0.068 hours/ns, 4069.176 timesteps/s, 227.874 katom-step/s
0.0% CPU use with 8 MPI tasks x 1 OpenMP threads

MPI task timing breakdown:
Section |  min time  |  avg time  |  max time  |%varavg| %total
---------------------------------------------------------------
Pair    | 0.000165   | 0.00017612 | 0.000196   |   0.0 | 71.67
Neigh   | 0          | 0          | 0          |   0.0 |  0.00
Comm    | 2.1e-05    | 4e-05      | 5.1e-05    |   0.0 | 16.28
Output  | 1.6e-05    | 1.8e-05    | 2.5e-05    |   0.0 |  7.32
Modify  | 0          | 6.25e-07   | 1e-06      |   0.0 |  0.25
Other   |            | 1.1e-05    |            |       |  4.48

Nlocal:              7 ave           9 max           5 min
Histogram: 3 0 0 0 0 0 0 4 0 1
Nghost:          422.5 ave         424 max         420 min
Histogram: 1 0 0 0 0 4 0 0 0 3
Neighs:            252 ave         335 max         181 min
Histogram: 3 0 0 0 0 0 4 0 0 1
FullNghs:          504 ave         668 max         364 min
Histogram: 3 0 0 0 0 0 4 0 0 1

Total # of neighbors = 4032
Ave neighs/atom = 72
Neighbor list builds = 0
Dangerous builds = 0
variable  natoms equal "count(all)"
variable xlength equal "lx"
variable  volume equal "vol"
variable  etotal equal "etotal"
variable    ecoh equal "pe/v_natoms"
print "${xlength}, ${volume}, ${etotal}, ${ecoh}" append lattice_cohesive_energy.txt screen no

next i
jump SELF loop

change_box all x scale 1.0025 y scale 1.0025 z scale 1.0025 remap
Changing box ...
  orthogonal box = (-0.093537043 -0.082663694 -0.082663694) to (8.6268886 8.6160152 8.6160152)
  orthogonal box = (-0.093537043 -0.093537043 -0.082663694) to (8.6268886 8.6268886 8.6160152)
  orthogonal box = (-0.093537043 -0.093537043 -0.093537043) to (8.6268886 8.6268886 8.6268886)

run 1
WARNING: No fixes with time integration, atoms won't move (src/verlet.cpp:60)
Per MPI rank memory allocation (min/avg/max) = 8.554 | 8.556 | 8.558 Mbytes
   Step         PotEng         TotEng           Lx             Ly             Lz           Volume         Press           Pxx            Pyy            Pzz      
        99  -361.29574     -361.29574      8.7204256      8.7204256      8.7204256      663.15194     -11885.316     -11885.316     -11885.316     -11885.316    
       100  -361.29574     -361.29574      8.7204256      8.7204256      8.7204256      663.15194     -11885.316     -11885.316     -11885.316     -11885.316    
Loop time of 0.00024125 on 8 procs for 1 steps with 56 atoms

Performance: 358.135 ns/day, 0.067 hours/ns, 4145.078 timesteps/s, 232.124 katom-step/s
0.0% CPU use with 8 MPI tasks x 1 OpenMP threads

MPI task timing breakdown:
Section |  min time  |  avg time  |  max time  |%varavg| %total
---------------------------------------------------------------
Pair    | 0.000153   | 0.00017    | 0.000196   |   0.0 | 70.47
Neigh   | 0          | 0          | 0          |   0.0 |  0.00
Comm    | 2e-05      | 4.6125e-05 | 6.3e-05    |   0.0 | 19.12
Output  | 1.6e-05    | 1.7375e-05 | 2e-05      |   0.0 |  7.20
Modify  | 0          | 2.5e-07    | 1e-06      |   0.0 |  0.10
Other   |            | 7.5e-06    |            |       |  3.11

Nlocal:              7 ave           9 max           5 min
Histogram: 3 0 0 0 0 0 0 4 0 1
Nghost:          422.5 ave         424 max         420 min
Histogram: 1 0 0 0 0 4 0 0 0 3
Neighs:            248 ave         323 max         177 min
Histogram: 3 0 0 0 0 0 0 4 0 1
FullNghs:          496 ave         644 max         356 min
Histogram: 3 0 0 0 0 0 0 4 0 1

Total # of neighbors = 3968
Ave neighs/atom = 70.857143
Neighbor list builds = 0
Dangerous builds = 0
variable  natoms equal "count(all)"
variable xlength equal "lx"
variable  volume equal "vol"
variable  etotal equal "etotal"
variable    ecoh equal "pe/v_natoms"
print "${xlength}, ${volume}, ${etotal}, ${ecoh}" append lattice_cohesive_energy.txt screen no

next i
jump SELF loop

change_box all x scale 1.0025 y scale 1.0025 z scale 1.0025 remap
Changing box ...
  orthogonal box = (-0.10443757 -0.093537043 -0.093537043) to (8.6377891 8.6268886 8.6268886)
  orthogonal box = (-0.10443757 -0.10443757 -0.093537043) to (8.6377891 8.6377891 8.6268886)
  orthogonal box = (-0.10443757 -0.10443757 -0.10443757) to (8.6377891 8.6377891 8.6377891)

run 1
WARNING: No fixes with time integration, atoms won't move (src/verlet.cpp:60)
Per MPI rank memory allocation (min/avg/max) = 8.554 | 8.556 | 8.558 Mbytes
   Step         PotEng         TotEng           Lx             Ly             Lz           Volume         Press           Pxx            Pyy            Pzz      
       100  -361.24393     -361.24393      8.7422267      8.7422267      8.7422267      668.13803     -21361.673     -21361.673     -21361.673     -21361.673    
       101  -361.24393     -361.24393      8.7422267      8.7422267      8.7422267      668.13803     -21361.673     -21361.673     -21361.673     -21361.673    
Loop time of 0.00022375 on 8 procs for 1 steps with 56 atoms

Performance: 386.145 ns/day, 0.062 hours/ns, 4469.274 timesteps/s, 250.279 katom-step/s
0.0% CPU use with 8 MPI tasks x 1 OpenMP threads

MPI task timing breakdown:
Section |  min time  |  avg time  |  max time  |%varavg| %total
---------------------------------------------------------------
Pair    | 0.000155   | 0.00016738 | 0.000179   |   0.0 | 74.80
Neigh   | 0          | 0          | 0          |   0.0 |  0.00
Comm    | 2.2e-05    | 3.175e-05  | 4.4e-05    |   0.0 | 14.19
Output  | 1.6e-05    | 1.7375e-05 | 1.9e-05    |   0.0 |  7.77
Modify  | 0          | 0          | 0          |   0.0 |  0.00
Other   |            | 7.25e-06   |            |       |  3.24

Nlocal:              7 ave           9 max           5 min
Histogram: 3 0 0 0 0 0 0 4 0 1
Nghost:          422.5 ave         424 max         420 min
Histogram: 1 0 0 0 0 4 0 0 0 3
Neighs:            248 ave         323 max         177 min
Histogram: 3 0 0 0 0 0 0 4 0 1
FullNghs:          496 ave         644 max         356 min
Histogram: 3 0 0 0 0 0 0 4 0 1

Total # of neighbors = 3968
Ave neighs/atom = 70.857143
Neighbor list builds = 0
Dangerous builds = 0
variable  natoms equal "count(all)"
variable xlength equal "lx"
variable  volume equal "vol"
variable  etotal equal "etotal"
variable    ecoh equal "pe/v_natoms"
print "${xlength}, ${volume}, ${etotal}, ${ecoh}" append lattice_cohesive_energy.txt screen no

next i
jump SELF loop

change_box all x scale 1.0025 y scale 1.0025 z scale 1.0025 remap
Changing box ...
  orthogonal box = (-0.11536536 -0.10443757 -0.10443757) to (8.6487169 8.6377891 8.6377891)
  orthogonal box = (-0.11536536 -0.11536536 -0.10443757) to (8.6487169 8.6487169 8.6377891)
  orthogonal box = (-0.11536536 -0.11536536 -0.11536536) to (8.6487169 8.6487169 8.6487169)

run 1
WARNING: No fixes with time integration, atoms won't move (src/verlet.cpp:60)
Per MPI rank memory allocation (min/avg/max) = 8.554 | 8.556 | 8.558 Mbytes
   Step         PotEng         TotEng           Lx             Ly             Lz           Volume         Press           Pxx            Pyy            Pzz      
       101  -361.16239     -361.16239      8.7640823      8.7640823      8.7640823      673.1616      -30595.199     -30595.199     -30595.199     -30595.199    
       102  -361.16239     -361.16239      8.7640823      8.7640823      8.7640823      673.1616      -30595.199     -30595.199     -30595.199     -30595.199    
Loop time of 0.000261 on 8 procs for 1 steps with 56 atoms

Performance: 331.034 ns/day, 0.073 hours/ns, 3831.418 timesteps/s, 214.559 katom-step/s
0.0% CPU use with 8 MPI tasks x 1 OpenMP threads

MPI task timing breakdown:
Section |  min time  |  avg time  |  max time  |%varavg| %total
---------------------------------------------------------------
Pair    | 0.000174   | 0.00018563 | 0.000211   |   0.0 | 71.12
Neigh   | 0          | 0          | 0          |   0.0 |  0.00
Comm    | 2.3e-05    | 4.6875e-05 | 5.9e-05    |   0.0 | 17.96
Output  | 1.7e-05    | 1.9e-05    | 2.1e-05    |   0.0 |  7.28
Modify  | 0          | 1.25e-07   | 1e-06      |   0.0 |  0.05
Other   |            | 9.375e-06  |            |       |  3.59

Nlocal:              7 ave           9 max           5 min
Histogram: 3 0 0 0 0 0 0 4 0 1
Nghost:          422.5 ave         424 max         420 min
Histogram: 1 0 0 0 0 4 0 0 0 3
Neighs:            248 ave         323 max         177 min
Histogram: 3 0 0 0 0 0 0 4 0 1
FullNghs:          496 ave         644 max         356 min
Histogram: 3 0 0 0 0 0 0 4 0 1

Total # of neighbors = 3968
Ave neighs/atom = 70.857143
Neighbor list builds = 0
Dangerous builds = 0
variable  natoms equal "count(all)"
variable xlength equal "lx"
variable  volume equal "vol"
variable  etotal equal "etotal"
variable    ecoh equal "pe/v_natoms"
print "${xlength}, ${volume}, ${etotal}, ${ecoh}" append lattice_cohesive_energy.txt screen no

next i
jump SELF loop

change_box all x scale 1.0025 y scale 1.0025 z scale 1.0025 remap
Changing box ...
  orthogonal box = (-0.12632046 -0.11536536 -0.11536536) to (8.659672 8.6487169 8.6487169)
  orthogonal box = (-0.12632046 -0.12632046 -0.11536536) to (8.659672 8.659672 8.6487169)
  orthogonal box = (-0.12632046 -0.12632046 -0.12632046) to (8.659672 8.659672 8.659672)

run 1
WARNING: No fixes with time integration, atoms won't move (src/verlet.cpp:60)
Per MPI rank memory allocation (min/avg/max) = 8.554 | 8.556 | 8.558 Mbytes
[...]
Neigh   | 0          | 0          | 0          |   0.0 |  0.00
Comm    | 2.1e-05    | 3.9875e-05 | 4.9e-05    |   0.0 | 16.10
Output  | 1.5e-05    | 1.7375e-05 | 2e-05      |   0.0 |  7.02
Modify  | 0          | 2.5e-07    | 1e-06      |   0.0 |  0.10
Other   |            | 7.375e-06  |            |       |  2.98

Nlocal:              7 ave           9 max           5 min
Histogram: 3 0 0 0 0 0 0 4 0 1
Nghost:          422.5 ave         424 max         420 min
Histogram: 1 0 0 0 0 4 0 0 0 3
Neighs:            248 ave         323 max         177 min
Histogram: 3 0 0 0 0 0 0 4 0 1
FullNghs:          496 ave         644 max         356 min
Histogram: 3 0 0 0 0 0 0 4 0 1

Total # of neighbors = 3968
Ave neighs/atom = 70.857143
Neighbor list builds = 0
Dangerous builds = 0
variable  natoms equal "count(all)"
variable xlength equal "lx"
variable  volume equal "vol"
variable  etotal equal "etotal"
variable    ecoh equal "pe/v_natoms"
print "${xlength}, ${volume}, ${etotal}, ${ecoh}" append lattice_cohesive_energy.txt screen no

next i
jump SELF loop

change_box all x scale 1.0025 y scale 1.0025 z scale 1.0025 remap
Changing box ...
  orthogonal box = (-0.282599 -0.27125418 -0.27125418) to (8.8159505 8.8046057 8.8046057)
  orthogonal box = (-0.282599 -0.282599 -0.27125418) to (8.8159505 8.8159505 8.8046057)
  orthogonal box = (-0.282599 -0.282599 -0.282599) to (8.8159505 8.8159505 8.8159505)

run 1
WARNING: No fixes with time integration, atoms won't move (src/verlet.cpp:60)
Per MPI rank memory allocation (min/avg/max) = 8.554 | 8.556 | 8.558 Mbytes
   Step         PotEng         TotEng           Lx             Ly             Lz           Volume         Press           Pxx            Pyy            Pzz      
       116  -356.58594     -356.58594      9.0985495      9.0985495      9.0985495      753.21072     -142646.23     -142646.23     -142646.23     -142646.23    
       117  -356.58594     -356.58594      9.0985495      9.0985495      9.0985495      753.21072     -142646.23     -142646.23     -142646.23     -142646.23    
Loop time of 0.000239375 on 8 procs for 1 steps with 56 atoms

Performance: 360.940 ns/day, 0.066 hours/ns, 4177.546 timesteps/s, 233.943 katom-step/s
0.0% CPU use with 8 MPI tasks x 1 OpenMP threads

MPI task timing breakdown:
Section |  min time  |  avg time  |  max time  |%varavg| %total
---------------------------------------------------------------
Pair    | 0.000165   | 0.00017513 | 0.000195   |   0.0 | 73.16
Neigh   | 0          | 0          | 0          |   0.0 |  0.00
Comm    | 2.1e-05    | 4e-05      | 4.8e-05    |   0.0 | 16.71
Output  | 1.5e-05    | 1.6875e-05 | 1.9e-05    |   0.0 |  7.05
Modify  | 0          | 1.25e-07   | 1e-06      |   0.0 |  0.05
Other   |            | 7.25e-06   |            |       |  3.03

Nlocal:              7 ave           9 max           5 min
Histogram: 3 0 0 0 0 0 0 4 0 1
Nghost:          422.5 ave         424 max         420 min
Histogram: 1 0 0 0 0 4 0 0 0 3
Neighs:            248 ave         323 max         177 min
Histogram: 3 0 0 0 0 0 0 4 0 1
FullNghs:          496 ave         644 max         356 min
Histogram: 3 0 0 0 0 0 0 4 0 1

Total # of neighbors = 3968
Ave neighs/atom = 70.857143
Neighbor list builds = 0
Dangerous builds = 0
variable  natoms equal "count(all)"
variable xlength equal "lx"
variable  volume equal "vol"
variable  etotal equal "etotal"
variable    ecoh equal "pe/v_natoms"
print "${xlength}, ${volume}, ${etotal}, ${ecoh}" append lattice_cohesive_energy.txt screen no

next i
jump SELF loop

change_box all x scale 1.0025 y scale 1.0025 z scale 1.0025 remap
Changing box ...
  orthogonal box = (-0.29397219 -0.282599 -0.282599) to (8.8273237 8.8159505 8.8159505)
  orthogonal box = (-0.29397219 -0.29397219 -0.282599) to (8.8273237 8.8273237 8.8159505)
  orthogonal box = (-0.29397219 -0.29397219 -0.29397219) to (8.8273237 8.8273237 8.8273237)

run 1
WARNING: No fixes with time integration, atoms won't move (src/verlet.cpp:60)
Per MPI rank memory allocation (min/avg/max) = 8.554 | 8.556 | 8.558 Mbytes
   Step         PotEng         TotEng           Lx             Ly             Lz           Volume         Press           Pxx            Pyy            Pzz      
       117  -356.07128     -356.07128      9.1212959      9.1212959      9.1212959      758.87394     -148521.9      -148521.9      -148521.9      -148521.9     
       118  -356.07128     -356.07128      9.1212959      9.1212959      9.1212959      758.87394     -148521.9      -148521.9      -148521.9      -148521.9     
Loop time of 0.000239625 on 8 procs for 1 steps with 56 atoms

Performance: 360.563 ns/day, 0.067 hours/ns, 4173.187 timesteps/s, 233.698 katom-step/s
0.0% CPU use with 8 MPI tasks x 1 OpenMP threads

MPI task timing breakdown:
Section |  min time  |  avg time  |  max time  |%varavg| %total
---------------------------------------------------------------
Pair    | 0.000166   | 0.00017575 | 0.000195   |   0.0 | 73.34
Neigh   | 0          | 0          | 0          |   0.0 |  0.00
Comm    | 2.1e-05    | 3.9625e-05 | 4.8e-05    |   0.0 | 16.54
Output  | 1.5e-05    | 1.65e-05   | 1.9e-05    |   0.0 |  6.89
Modify  | 0          | 0          | 0          |   0.0 |  0.00
Other   |            | 7.75e-06   |            |       |  3.23

Nlocal:              7 ave           9 max           5 min
Histogram: 3 0 0 0 0 0 0 4 0 1
Nghost:          422.5 ave         424 max         420 min
Histogram: 1 0 0 0 0 4 0 0 0 3
Neighs:            248 ave         323 max         177 min
Histogram: 3 0 0 0 0 0 0 4 0 1
FullNghs:          496 ave         644 max         356 min
Histogram: 3 0 0 0 0 0 0 4 0 1

Total # of neighbors = 3968
Ave neighs/atom = 70.857143
Neighbor list builds = 0
Dangerous builds = 0
variable  natoms equal "count(all)"
variable xlength equal "lx"
variable  volume equal "vol"
variable  etotal equal "etotal"
variable    ecoh equal "pe/v_natoms"
print "${xlength}, ${volume}, ${etotal}, ${ecoh}" append lattice_cohesive_energy.txt screen no

next i
jump SELF loop

change_box all x scale 1.0025 y scale 1.0025 z scale 1.0025 remap
Changing box ...
  orthogonal box = (-0.30537381 -0.29397219 -0.29397219) to (8.8387254 8.8273237 8.8273237)
  orthogonal box = (-0.30537381 -0.30537381 -0.29397219) to (8.8387254 8.8387254 8.8273237)
  orthogonal box = (-0.30537381 -0.30537381 -0.30537381) to (8.8387254 8.8387254 8.8387254)

run 1
WARNING: No fixes with time integration, atoms won't move (src/verlet.cpp:60)
Per MPI rank memory allocation (min/avg/max) = 8.554 | 8.556 | 8.558 Mbytes
   Step         PotEng         TotEng           Lx             Ly             Lz           Volume         Press           Pxx            Pyy            Pzz      
       118  -355.53215     -355.53215      9.1440992      9.1440992      9.1440992      764.57973     -154218.19     -154218.19     -154218.19     -154218.19    
       119  -355.53215     -355.53215      9.1440992      9.1440992      9.1440992      764.57973     -154218.19     -154218.19     -154218.19     -154218.19    
Loop time of 0.0002625 on 8 procs for 1 steps with 56 atoms

Performance: 329.143 ns/day, 0.073 hours/ns, 3809.524 timesteps/s, 213.333 katom-step/s
0.0% CPU use with 8 MPI tasks x 1 OpenMP threads

MPI task timing breakdown:
Section |  min time  |  avg time  |  max time  |%varavg| %total
---------------------------------------------------------------
Pair    | 0.000178   | 0.00018875 | 0.00021    |   0.0 | 71.90
Neigh   | 0          | 0          | 0          |   0.0 |  0.00
Comm    | 2.2e-05    | 4.3375e-05 | 5.4e-05    |   0.0 | 16.52
Output  | 1.7e-05    | 1.8125e-05 | 2e-05      |   0.0 |  6.90
Modify  | 0          | 6.25e-07   | 1e-06      |   0.0 |  0.24
Other   |            | 1.162e-05  |            |       |  4.43

Nlocal:              7 ave           9 max           5 min
Histogram: 3 0 0 0 0 0 0 4 0 1
Nghost:          422.5 ave         424 max         420 min
Histogram: 1 0 0 0 0 4 0 0 0 3
Neighs:            248 ave         323 max         177 min
Histogram: 3 0 0 0 0 0 0 4 0 1
FullNghs:          496 ave         644 max         356 min
Histogram: 3 0 0 0 0 0 0 4 0 1

Total # of neighbors = 3968
Ave neighs/atom = 70.857143
Neighbor list builds = 0
Dangerous builds = 0
variable  natoms equal "count(all)"
variable xlength equal "lx"
variable  volume equal "vol"
variable  etotal equal "etotal"
variable    ecoh equal "pe/v_natoms"
print "${xlength}, ${volume}, ${etotal}, ${ecoh}" append lattice_cohesive_energy.txt screen no

next i
jump SELF loop

change_box all x scale 1.0025 y scale 1.0025 z scale 1.0025 remap
Changing box ...
  orthogonal box = (-0.31680393 -0.30537381 -0.30537381) to (8.8501555 8.8387254 8.8387254)
  orthogonal box = (-0.31680393 -0.31680393 -0.30537381) to (8.8501555 8.8501555 8.8387254)
  orthogonal box = (-0.31680393 -0.31680393 -0.31680393) to (8.8501555 8.8501555 8.8501555)

run 1
WARNING: No fixes with time integration, atoms won't move (src/verlet.cpp:60)
Per MPI rank memory allocation (min/avg/max) = 8.554 | 8.556 | 8.558 Mbytes
   Step         PotEng         TotEng           Lx             Ly             Lz           Volume         Press           Pxx            Pyy            Pzz      
       119  -354.96883     -354.96883      9.1669594      9.1669594      9.1669594      770.32843     -159738.41     -159738.41     -159738.41     -159738.41    
       120  -354.96883     -354.96883      9.1669594      9.1669594      9.1669594      770.32843     -159738.41     -159738.41     -159738.41     -159738.41    
Loop time of 0.000173875 on 8 procs for 1 steps with 56 atoms

Performance: 496.909 ns/day, 0.048 hours/ns, 5751.258 timesteps/s, 322.070 katom-step/s
0.0% CPU use with 8 MPI tasks x 1 OpenMP threads

MPI task timing breakdown:
Section |  min time  |  avg time  |  max time  |%varavg| %total
---------------------------------------------------------------
Pair    | 0.00012    | 0.0001265  | 0.000136   |   0.0 | 72.75
Neigh   | 0          | 0          | 0          |   0.0 |  0.00
Comm    | 1.8e-05    | 2.5875e-05 | 3.4e-05    |   0.0 | 14.88
Output  | 1.4e-05    | 1.55e-05   | 1.8e-05    |   0.0 |  8.91
Modify  | 0          | 2.5e-07    | 1e-06      |   0.0 |  0.14
Other   |            | 5.75e-06   |            |       |  3.31

Nlocal:              7 ave           9 max           5 min
Histogram: 3 0 0 0 0 0 0 4 0 1
Nghost:          422.5 ave         424 max         420 min
Histogram: 1 0 0 0 0 4 0 0 0 3
Neighs:            248 ave         323 max         177 min
Histogram: 3 0 0 0 0 0 0 4 0 1
FullNghs:          496 ave         644 max         356 min
Histogram: 3 0 0 0 0 0 0 4 0 1

Total # of neighbors = 3968
Ave neighs/atom = 70.857143
Neighbor list builds = 0
Dangerous builds = 0
variable  natoms equal "count(all)"
variable xlength equal "lx"
variable  volume equal "vol"
variable  etotal equal "etotal"
variable    ecoh equal "pe/v_natoms"
print "${xlength}, ${volume}, ${etotal}, ${ecoh}" append lattice_cohesive_energy.txt screen no

next i
jump SELF loop

change_box all x scale 1.0025 y scale 1.0025 z scale 1.0025 remap
Changing box ...
  orthogonal box = (-0.32826263 -0.31680393 -0.31680393) to (8.8616142 8.8501555 8.8501555)
  orthogonal box = (-0.32826263 -0.32826263 -0.31680393) to (8.8616142 8.8616142 8.8501555)
  orthogonal box = (-0.32826263 -0.32826263 -0.32826263) to (8.8616142 8.8616142 8.8616142)

run 1
WARNING: No fixes with time integration, atoms won't move (src/verlet.cpp:60)
Per MPI rank memory allocation (min/avg/max) = 8.554 | 8.556 | 8.558 Mbytes
   Step         PotEng         TotEng           Lx             Ly             Lz           Volume         Press           Pxx            Pyy            Pzz      
       120  -354.38165     -354.38165      9.1898768      9.1898768      9.1898768      776.12035     -165085.81     -165085.81     -165085.81     -165085.81    
       121  -354.38165     -354.38165      9.1898768      9.1898768      9.1898768      776.12035     -165085.81     -165085.81     -165085.81     -165085.81    
Loop time of 0.000166875 on 8 procs for 1 steps with 56 atoms

Performance: 517.753 ns/day, 0.046 hours/ns, 5992.509 timesteps/s, 335.581 katom-step/s
0.0% CPU use with 8 MPI tasks x 1 OpenMP threads

MPI task timing breakdown:
Section |  min time  |  avg time  |  max time  |%varavg| %total
---------------------------------------------------------------
Pair    | 0.000123   | 0.00012537 | 0.000129   |   0.0 | 75.13
Neigh   | 0          | 0          | 0          |   0.0 |  0.00
Comm    | 1.7e-05    | 2.0625e-05 | 2.3e-05    |   0.0 | 12.36
Output  | 1.3e-05    | 1.425e-05  | 1.6e-05    |   0.0 |  8.54
Modify  | 0          | 1.25e-07   | 1e-06      |   0.0 |  0.07
Other   |            | 6.5e-06    |            |       |  3.90

Nlocal:              7 ave           9 max           5 min
Histogram: 3 0 0 0 0 0 0 4 0 1
Nghost:          422.5 ave         424 max         420 min
Histogram: 1 0 0 0 0 4 0 0 0 3
Neighs:            248 ave         323 max         177 min
Histogram: 3 0 0 0 0 0 0 4 0 1
FullNghs:          496 ave         644 max         356 min
Histogram: 3 0 0 0 0 0 0 4 0 1

Total # of neighbors = 3968
Ave neighs/atom = 70.857143
Neighbor list builds = 0
Dangerous builds = 0
variable  natoms equal "count(all)"
variable xlength equal "lx"
variable  volume equal "vol"
variable  etotal equal "etotal"
variable    ecoh equal "pe/v_natoms"
print "${xlength}, ${volume}, ${etotal}, ${ecoh}" append lattice_cohesive_energy.txt screen no

next i
jump SELF loop

change_box all x scale 1.0025 y scale 1.0025 z scale 1.0025 remap
Changing box ...
  orthogonal box = (-0.33974998 -0.32826263 -0.32826263) to (8.8731015 8.8616142 8.8616142)
  orthogonal box = (-0.33974998 -0.33974998 -0.32826263) to (8.8731015 8.8731015 8.8616142)
  orthogonal box = (-0.33974998 -0.33974998 -0.33974998) to (8.8731015 8.8731015 8.8731015)

run 1
WARNING: No fixes with time integration, atoms won't move (src/verlet.cpp:60)
Per MPI rank memory allocation (min/avg/max) = 8.554 | 8.556 | 8.558 Mbytes
   Step         PotEng         TotEng           Lx             Ly             Lz           Volume         Press           Pxx            Pyy            Pzz      
       121  -353.77088     -353.77088      9.2128515      9.2128515      9.2128515      781.95581     -170263.6      -170263.6      -170263.6      -170263.6     
       122  -353.77088     -353.77088      9.2128515      9.2128515      9.2128515      781.95581     -170263.6      -170263.6      -170263.6      -170263.6     
Loop time of 0.000196875 on 8 procs for 1 steps with 56 atoms

Performance: 438.857 ns/day, 0.055 hours/ns, 5079.365 timesteps/s, 284.444 katom-step/s
992.1% CPU use with 8 MPI tasks x 1 OpenMP threads

MPI task timing breakdown:
Section |  min time  |  avg time  |  max time  |%varavg| %total
---------------------------------------------------------------
Pair    | 0.000122   | 0.00014012 | 0.000159   |   0.0 | 71.17
Neigh   | 0          | 0          | 0          |   0.0 |  0.00
Comm    | 1.7e-05    | 3.5875e-05 | 5.4e-05    |   0.0 | 18.22
Output  | 1.3e-05    | 1.45e-05   | 1.7e-05    |   0.0 |  7.37
Modify  | 0          | 2.5e-07    | 1e-06      |   0.0 |  0.13
Other   |            | 6.125e-06  |            |       |  3.11

Nlocal:              7 ave           9 max           5 min
Histogram: 3 0 0 0 0 0 0 4 0 1
Nghost:          422.5 ave         424 max         420 min
Histogram: 1 0 0 0 0 4 0 0 0 3
Neighs:            248 ave         323 max         177 min
Histogram: 3 0 0 0 0 0 0 4 0 1
FullNghs:          496 ave         644 max         356 min
Histogram: 3 0 0 0 0 0 0 4 0 1

Total # of neighbors = 3968
Ave neighs/atom = 70.857143
Neighbor list builds = 0
Dangerous builds = 0
variable  natoms equal "count(all)"
variable xlength equal "lx"
variable  volume equal "vol"
variable  etotal equal "etotal"
variable    ecoh equal "pe/v_natoms"
print "${xlength}, ${volume}, ${etotal}, ${ecoh}" append lattice_cohesive_energy.txt screen no

next i
jump SELF loop

change_box all x scale 1.0025 y scale 1.0025 z scale 1.0025 remap
Changing box ...
  orthogonal box = (-0.35126604 -0.33974998 -0.33974998) to (8.8846176 8.8731015 8.8731015)
  orthogonal box = (-0.35126604 -0.35126604 -0.33974998) to (8.8846176 8.8846176 8.8731015)
  orthogonal box = (-0.35126604 -0.35126604 -0.35126604) to (8.8846176 8.8846176 8.8846176)

run 1
WARNING: No fixes with time integration, atoms won't move (src/verlet.cpp:60)
Per MPI rank memory allocation (min/avg/max) = 8.554 | 8.556 | 8.558 Mbytes
   Step         PotEng         TotEng           Lx             Ly             Lz           Volume         Press           Pxx            Pyy            Pzz      
       122  -353.13682     -353.13682      9.2358836      9.2358836      9.2358836      787.83516     -175274.96     -175274.96     -175274.96     -175274.96    
       123  -353.13682     -353.13682      9.2358836      9.2358836      9.2358836      787.83516     -175274.96     -175274.96     -175274.96     -175274.96    
Loop time of 0.000175 on 8 procs for 1 steps with 56 atoms

Performance: 493.714 ns/day, 0.049 hours/ns, 5714.286 timesteps/s, 320.000 katom-step/s
0.0% CPU use with 8 MPI tasks x 1 OpenMP threads

MPI task timing breakdown:
Section |  min time  |  avg time  |  max time  |%varavg| %total
---------------------------------------------------------------
Pair    | 0.000123   | 0.00012875 | 0.000137   |   0.0 | 73.57
Neigh   | 0          | 0          | 0          |   0.0 |  0.00
Comm    | 1.7e-05    | 2.55e-05   | 3.1e-05    |   0.0 | 14.57
Output  | 1.3e-05    | 1.425e-05  | 1.6e-05    |   0.0 |  8.14
Modify  | 0          | 2.5e-07    | 1e-06      |   0.0 |  0.14
Other   |            | 6.25e-06   |            |       |  3.57

Nlocal:              7 ave           9 max           5 min
Histogram: 3 0 0 0 0 0 0 4 0 1
Nghost:          422.5 ave         424 max         420 min
Histogram: 1 0 0 0 0 4 0 0 0 3
Neighs:            236 ave         311 max         165 min
Histogram: 3 0 0 0 0 0 0 4 0 1
FullNghs:          472 ave         620 max         332 min
Histogram: 3 0 0 0 0 0 0 4 0 1

Total # of neighbors = 3776
Ave neighs/atom = 67.428571
Neighbor list builds = 0
Dangerous builds = 0
variable  natoms equal "count(all)"
variable xlength equal "lx"
variable  volume equal "vol"
variable  etotal equal "etotal"
variable    ecoh equal "pe/v_natoms"
print "${xlength}, ${volume}, ${etotal}, ${ecoh}" append lattice_cohesive_energy.txt screen no

next i
jump SELF loop

print "-------------------------------------------------------------"
-------------------------------------------------------------
print "Show results of 1st step (Running Minimization)"
Show results of 1st step (Running Minimization)
print "The number of atoms = ${natoms};"
The number of atoms = 56;
print "The lattice constant, x (Angstoms) = ${x0};"
The lattice constant, x (Angstoms) = 9.23588362790623;
print "The lattice constant, y (Angstoms) = ${y0};"
The lattice constant, y (Angstoms) = 9.23588362790623;
print "The lattice constant, z (Angstoms) = ${z0};"
The lattice constant, z (Angstoms) = 9.23588362790623;
print "The volume (Angstoms^3) = ${v0};"
The volume (Angstoms^3) = 787.835155722105;
print "The total energy (eV) = ${etot0};"
The total energy (eV) = -353.136820792438;
print "The cohesive energy (eV/atom) = ${ecoh0};"
The cohesive energy (eV/atom) = -6.30601465700783;
print "-------------------------------------------------------------"
-------------------------------------------------------------
print "Simulations completed !"
Simulations completed !
Total wall time: 0:00:00
