# Lammps input file for carbon nanotube growth 

9604 atoms 
 0 bonds 
 0 angles 
 0 dihedrals 
 0 impropers 

 4 atom types 
 0 bond types 

0.0 137.5 xlo xhi 
0.0 27.5 ylo yhi 
0.0 548.0 zlo zhi 

Masses 

 1 55.847 # Fe
 2 12.0   # C
 3 12.0   # C
 4 39.94  # Ar

Atoms 

 1 1 5.415496826 1.805165529 246.599990845 
 2 1 3.610331059 1.805165529 248.405166626 
 
 9603 2 62.796142578 17.188240051 233.135681152 
 9604 2 62.211509705 15.875138283 233.135681152