lammps simulation

2084   atoms
5       atom types

0.0 38.2338 xlo xhi
0.0 38.2338 ylo yhi
0.0 38.2338 zlo zhi
0.0000 0.0000 0.0000 xy xz yz

Atoms

1 1 5 0.0 0.0000000 0.0000000 8.4963998 0 0 0
2 1 5 0.0 0.0000000 0.0000000 12.744600 0 0 0
3 1 5 0.0 0.0000000 0.0000000 16.992799 0 0 0
4 1 5 0.0 0.0000000 0.0000000 21.240999 0 0 0
5 1 5 0.0 0.0000000 0.0000000 25.489200 0 0 0
6 1 5 0.0 0.0000000 0.0000000 29.737400 0 0 0
7 1 5 0.0 0.0000000 4.2481999 8.4963998 0 0 0
8 1 5 0.0 0.0000000 4.2481999 12.744600 0 0 0
9 1 5 0.0 0.0000000 4.2481999 16.992799 0 0 0
10 1 5 0.0 0.0000000 4.2481999 21.240999 0 0 0
11 1 5 0.0 0.0000000 4.2481999 25.489200 0 0 0
12 1 5 0.0 0.0000000 4.2481999 29.737400 0 0 0
13 1 5 0.0 0.0000000 8.4963998 0.0000000 0 0 0
14 1 5 0.0 0.0000000 8.4963998 4.2481999 0 0 0
15 1 5 0.0 0.0000000 8.4963998 8.4963998 0 0 0
16 1 5 0.0 0.0000000 8.4963998 12.744600 0 0 0
17 1 5 0.0 0.0000000 8.4963998 16.992799 0 0 0
18 1 5 0.0 0.0000000 8.4963998 21.240999 0 0 0
19 1 5 0.0 0.0000000 8.4963998 25.489200 0 0 0
20 1 5 0.0 0.0000000 8.4963998 29.737400 0 0 0
21 1 5 0.0 0.0000000 8.4963998 33.985599 0 0 0
22 1 5 0.0 0.0000000 12.744600 0.0000000 0 0 0
23 1 5 0.0 0.0000000 12.744600 4.2481999 0 0 0
24 1 5 0.0 0.0000000 12.744600 8.4963998 0 0 0
25 1 5 0.0 0.0000000 12.744600 21.240999 0 0 0
26 1 5 0.0 0.0000000 12.744600 25.489200 0 0 0
27 1 5 0.0 0.0000000 12.744600 29.737400 0 0 0
28 1 5 0.0 0.0000000 12.744600 33.985599 0 0 0
29 1 5 0.0 0.0000000 16.992799 0.0000000 0 0 0
30 1 5 0.0 0.0000000 16.992799 4.2481999 0 0 0
31 1 5 0.0 0.0000000 16.992799 8.4963998 0 0 0
32 1 5 0.0 0.0000000 16.992799 29.737400 0 0 0
33 1 5 0.0 0.0000000 16.992799 33.985599 0 0 0
34 1 5 0.0 0.0000000 21.240999 0.0000000 0 0 0
35 1 5 0.0 0.0000000 21.240999 4.2481999 0 0 0
36 1 5 0.0 0.0000000 21.240999 8.4963998 0 0 0
37 1 5 0.0 0.0000000 21.240999 29.737400 0 0 0
38 1 5 0.0 0.0000000 21.240999 33.985599 0 0 0
39 1 5 0.0 0.0000000 25.489200 0.0000000 0 0 0
40 1 5 0.0 0.0000000 25.489200 4.2481999 0 0 0
41 1 5 0.0 0.0000000 25.489200 8.4963998 0 0 0
42 1 5 0.0 0.0000000 25.489200 12.744600 0 0 0
43 1 5 0.0 0.0000000 25.489200 25.489200 0 0 0
44 1 5 0.0 0.0000000 25.489200 29.737400 0 0 0
45 1 5 0.0 0.0000000 25.489200 33.985599 0 0 0
46 1 5 0.0 0.0000000 29.737400 4.2481999 0 0 0
47 1 5 0.0 0.0000000 29.737400 8.4963998 0 0 0
48 1 5 0.0 0.0000000 29.737400 12.744600 0 0 0
49 1 5 0.0 0.0000000 29.737400 16.992799 0 0 0
50 1 5 0.0 0.0000000 29.737400 21.240999 0 0 0
51 1 5 0.0 0.0000000 29.737400 25.489200 0 0 0
52 1 5 0.0 0.0000000 29.737400 29.737400 0 0 0
53 1 5 0.0 0.0000000 29.737400 33.985599 0 0 0
54 1 5 0.0 0.0000000 33.985599 8.4963998 0 0 0
55 1 5 0.0 0.0000000 33.985599 12.744600 0 0 0
56 1 5 0.0 0.0000000 33.985599 16.992799 0 0 0
57 1 5 0.0 0.0000000 33.985599 21.240999 0 0 0
58 1 5 0.0 0.0000000 33.985599 25.489200 0 0 0
59 1 5 0.0 0.0000000 33.985599 29.737400 0 0 0
60 1 5 0.0 4.2481999 0.0000000 8.4963998 0 0 0
61 1 5 0.0 4.2481999 0.0000000 12.744600 0 0 0
62 1 5 0.0 4.2481999 0.0000000 16.992799 0 0 0
63 1 5 0.0 4.2481999 0.0000000 21.240999 0 0 0
64 1 5 0.0 4.2481999 0.0000000 25.489200 0 0 0
65 1 5 0.0 4.2481999 0.0000000 29.737400 0 0 0
66 1 5 0.0 4.2481999 4.2481999 12.744600 0 0 0
67 1 5 0.0 4.2481999 4.2481999 16.992799 0 0 0
68 1 5 0.0 4.2481999 4.2481999 21.240999 0 0 0
69 1 5 0.0 4.2481999 4.2481999 25.489200 0 0 0
70 1 5 0.0 4.2481999 4.2481999 29.737400 0 0 0
71 1 5 0.0 4.2481999 4.2481999 33.985599 0 0 0
72 1 5 0.0 4.2481999 8.4963998 0.0000000 0 0 0
73 1 5 0.0 4.2481999 8.4963998 4.2481999 0 0 0
74 1 5 0.0 4.2481999 8.4963998 16.992799 0 0 0
75 1 5 0.0 4.2481999 8.4963998 21.240999 0 0 0
76 1 5 0.0 4.2481999 8.4963998 25.489200 0 0 0
77 1 5 0.0 4.2481999 8.4963998 29.737400 0 0 0
78 1 5 0.0 4.2481999 8.4963998 33.985599 0 0 0
79 1 5 0.0 4.2481999 12.744600 0.0000000 0 0 0
80 1 5 0.0 4.2481999 12.744600 4.2481999 0 0 0
81 1 5 0.0 4.2481999 12.744600 21.240999 0 0 0
82 1 5 0.0 4.2481999 12.744600 25.489200 0 0 0
83 1 5 0.0 4.2481999 12.744600 29.737400 0 0 0
84 1 5 0.0 4.2481999 12.744600 33.985599 0 0 0
85 1 5 0.0 4.2481999 16.992799 0.0000000 0 0 0
86 1 5 0.0 4.2481999 16.992799 4.2481999 0 0 0
87 1 5 0.0 4.2481999 16.992799 8.4963998 0 0 0
88 1 5 0.0 4.2481999 16.992799 25.489200 0 0 0
89 1 5 0.0 4.2481999 16.992799 29.737400 0 0 0
90 1 5 0.0 4.2481999 16.992799 33.985599 0 0 0
91 1 5 0.0 4.2481999 21.240999 0.0000000 0 0 0
92 1 5 0.0 4.2481999 21.240999 4.2481999 0 0 0
93 1 5 0.0 4.2481999 21.240999 8.4963998 0 0 0
94 1 5 0.0 4.2481999 21.240999 12.744600 0 0 0
95 1 5 0.0 4.2481999 21.240999 29.737400 0 0 0
96 1 5 0.0 4.2481999 21.240999 33.985599 0 0 0
97 1 5 0.0 4.2481999 25.489200 0.0000000 0 0 0
98 1 5 0.0 4.2481999 25.489200 4.2481999 0 0 0
99 1 5 0.0 4.2481999 25.489200 8.4963998 0 0 0
100 1 5 0.0 4.2481999 25.489200 12.744600 0 0 0
101 1 5 0.0 4.2481999 25.489200 16.992799 0 0 0
102 1 5 0.0 4.2481999 25.489200 33.985599 0 0 0
103 1 5 0.0 4.2481999 29.737400 0.0000000 0 0 0
104 1 5 0.0 4.2481999 29.737400 4.2481999 0 0 0
105 1 5 0.0 4.2481999 29.737400 8.4963998 0 0 0
106 1 5 0.0 4.2481999 29.737400 12.744600 0 0 0
107 1 5 0.0 4.2481999 29.737400 16.992799 0 0 0
108 1 5 0.0 4.2481999 29.737400 21.240999 0 0 0
109 1 5 0.0 4.2481999 29.737400 25.489200 0 0 0
110 1 5 0.0 4.2481999 33.985599 4.2481999 0 0 0
111 1 5 0.0 4.2481999 33.985599 8.4963998 0 0 0
112 1 5 0.0 4.2481999 33.985599 12.744600 0 0 0
113 1 5 0.0 4.2481999 33.985599 16.992799 0 0 0
114 1 5 0.0 4.2481999 33.985599 21.240999 0 0 0
115 1 5 0.0 4.2481999 33.985599 25.489200 0 0 0
116 1 5 0.0 4.2481999 33.985599 29.737400 0 0 0
117 1 5 0.0 8.4963998 0.0000000 0.0000000 0 0 0
118 1 5 0.0 8.4963998 0.0000000 4.2481999 0 0 0
119 1 5 0.0 8.4963998 0.0000000 8.4963998 0 0 0
120 1 5 0.0 8.4963998 0.0000000 12.744600 0 0 0
121 1 5 0.0 8.4963998 0.0000000 16.992799 0 0 0
122 1 5 0.0 8.4963998 0.0000000 21.240999 0 0 0
123 1 5 0.0 8.4963998 0.0000000 25.489200 0 0 0
124 1 5 0.0 8.4963998 0.0000000 29.737400 0 0 0
125 1 5 0.0 8.4963998 0.0000000 33.985599 0 0 0
126 1 5 0.0 8.4963998 4.2481999 0.0000000 0 0 0
127 1 5 0.0 8.4963998 4.2481999 16.992799 0 0 0
128 1 5 0.0 8.4963998 4.2481999 21.240999 0 0 0
129 1 5 0.0 8.4963998 4.2481999 25.489200 0 0 0
130 1 5 0.0 8.4963998 4.2481999 29.737400 0 0 0
131 1 5 0.0 8.4963998 4.2481999 33.985599 0 0 0
132 1 5 0.0 8.4963998 8.4963998 0.0000000 0 0 0
133 1 5 0.0 8.4963998 8.4963998 21.240999 0 0 0
134 1 5 0.0 8.4963998 8.4963998 25.489200 0 0 0
135 1 5 0.0 8.4963998 8.4963998 29.737400 0 0 0
136 1 5 0.0 8.4963998 8.4963998 33.985599 0 0 0
137 1 5 0.0 8.4963998 12.744600 0.0000000 0 0 0
138 1 5 0.0 8.4963998 12.744600 16.992799 0 0 0
139 1 5 0.0 8.4963998 12.744600 21.240999 0 0 0
140 1 5 0.0 8.4963998 12.744600 25.489200 0 0 0
141 1 5 0.0 8.4963998 12.744600 29.737400 0 0 0
142 1 5 0.0 8.4963998 12.744600 33.985599 0 0 0
143 1 5 0.0 8.4963998 16.992799 0.0000000 0 0 0
144 1 5 0.0 8.4963998 16.992799 4.2481999 0 0 0
145 1 5 0.0 8.4963998 16.992799 12.744600 0 0 0
146 1 5 0.0 8.4963998 16.992799 16.992799 0 0 0
147 1 5 0.0 8.4963998 16.992799 21.240999 0 0 0
148 1 5 0.0 8.4963998 16.992799 25.489200 0 0 0
149 1 5 0.0 8.4963998 16.992799 29.737400 0 0 0
150 1 5 0.0 8.4963998 16.992799 33.985599 0 0 0
151 1 5 0.0 8.4963998 21.240999 0.0000000 0 0 0
152 1 5 0.0 8.4963998 21.240999 4.2481999 0 0 0
153 1 5 0.0 8.4963998 21.240999 8.4963998 0 0 0
154 1 5 0.0 8.4963998 21.240999 12.744600 0 0 0
155 1 5 0.0 8.4963998 21.240999 16.992799 0 0 0
156 1 5 0.0 8.4963998 21.240999 29.737400 0 0 0
157 1 5 0.0 8.4963998 21.240999 33.985599 0 0 0
158 1 5 0.0 8.4963998 25.489200 0.0000000 0 0 0
159 1 5 0.0 8.4963998 25.489200 4.2481999 0 0 0
160 1 5 0.0 8.4963998 25.489200 8.4963998 0 0 0
161 1 5 0.0 8.4963998 25.489200 12.744600 0 0 0
162 1 5 0.0 8.4963998 25.489200 16.992799 0 0 0
163 1 5 0.0 8.4963998 29.737400 0.0000000 0 0 0
164 1 5 0.0 8.4963998 29.737400 4.2481999 0 0 0
165 1 5 0.0 8.4963998 29.737400 8.4963998 0 0 0
166 1 5 0.0 8.4963998 29.737400 12.744600 0 0 0
167 1 5 0.0 8.4963998 29.737400 16.992799 0 0 0
168 1 5 0.0 8.4963998 33.985599 0.0000000 0 0 0
169 1 5 0.0 8.4963998 33.985599 4.2481999 0 0 0
170 1 5 0.0 8.4963998 33.985599 8.4963998 0 0 0
171 1 5 0.0 8.4963998 33.985599 12.744600 0 0 0
172 1 5 0.0 8.4963998 33.985599 16.992799 0 0 0
173 1 5 0.0 8.4963998 33.985599 21.240999 0 0 0
174 1 5 0.0 12.744600 0.0000000 0.0000000 0 0 0
175 1 5 0.0 12.744600 0.0000000 4.2481999 0 0 0
176 1 5 0.0 12.744600 0.0000000 8.4963998 0 0 0
177 1 5 0.0 12.744600 0.0000000 12.744600 0 0 0
178 1 5 0.0 12.744600 0.0000000 16.992799 0 0 0
179 1 5 0.0 12.744600 0.0000000 29.737400 0 0 0
180 1 5 0.0 12.744600 0.0000000 33.985599 0 0 0
181 1 5 0.0 12.744600 4.2481999 0.0000000 0 0 0
182 1 5 0.0 12.744600 4.2481999 4.2481999 0 0 0
183 1 5 0.0 12.744600 4.2481999 8.4963998 0 0 0
184 1 5 0.0 12.744600 4.2481999 25.489200 0 0 0
185 1 5 0.0 12.744600 4.2481999 29.737400 0 0 0
186 1 5 0.0 12.744600 4.2481999 33.985599 0 0 0
187 1 5 0.0 12.744600 8.4963998 0.0000000 0 0 0
188 1 5 0.0 12.744600 8.4963998 4.2481999 0 0 0
189 1 5 0.0 12.744600 8.4963998 21.240999 0 0 0
190 1 5 0.0 12.744600 8.4963998 25.489200 0 0 0
191 1 5 0.0 12.744600 8.4963998 29.737400 0 0 0
192 1 5 0.0 12.744600 8.4963998 33.985599 0 0 0
193 1 5 0.0 12.744600 12.744600 0.0000000 0 0 0
194 1 5 0.0 12.744600 12.744600 16.992799 0 0 0
195 1 5 0.0 12.744600 12.744600 21.240999 0 0 0
196 1 5 0.0 12.744600 12.744600 25.489200 0 0 0
197 1 5 0.0 12.744600 12.744600 29.737400 0 0 0
198 1 5 0.0 12.744600 12.744600 33.985599 0 0 0
199 1 5 0.0 12.744600 16.992799 8.4963998 0 0 0
200 1 5 0.0 12.744600 16.992799 12.744600 0 0 0
201 1 5 0.0 12.744600 16.992799 16.992799 0 0 0
202 1 5 0.0 12.744600 16.992799 21.240999 0 0 0
203 1 5 0.0 12.744600 16.992799 25.489200 0 0 0
204 1 5 0.0 12.744600 16.992799 29.737400 0 0 0
205 1 5 0.0 12.744600 16.992799 33.985599 0 0 0
206 1 5 0.0 12.744600 21.240999 4.2481999 0 0 0
207 1 5 0.0 12.744600 21.240999 8.4963998 0 0 0
208 1 5 0.0 12.744600 21.240999 12.744600 0 0 0
209 1 5 0.0 12.744600 21.240999 16.992799 0 0 0
210 1 5 0.0 12.744600 21.240999 21.240999 0 0 0
211 1 5 0.0 12.744600 21.240999 25.489200 0 0 0
212 1 5 0.0 12.744600 25.489200 0.0000000 0 0 0
213 1 5 0.0 12.744600 25.489200 4.2481999 0 0 0
214 1 5 0.0 12.744600 25.489200 8.4963998 0 0 0
215 1 5 0.0 12.744600 25.489200 12.744600 0 0 0
216 1 5 0.0 12.744600 25.489200 16.992799 0 0 0
217 1 5 0.0 12.744600 25.489200 21.240999 0 0 0
218 1 5 0.0 12.744600 29.737400 0.0000000 0 0 0
219 1 5 0.0 12.744600 29.737400 4.2481999 0 0 0
220 1 5 0.0 12.744600 29.737400 8.4963998 0 0 0
221 1 5 0.0 12.744600 29.737400 12.744600 0 0 0
222 1 5 0.0 12.744600 29.737400 16.992799 0 0 0
223 1 5 0.0 12.744600 29.737400 21.240999 0 0 0
224 1 5 0.0 12.744600 33.985599 0.0000000 0 0 0
225 1 5 0.0 12.744600 33.985599 4.2481999 0 0 0
226 1 5 0.0 12.744600 33.985599 8.4963998 0 0 0
227 1 5 0.0 12.744600 33.985599 12.744600 0 0 0
228 1 5 0.0 12.744600 33.985599 16.992799 0 0 0
229 1 5 0.0 12.744600 33.985599 21.240999 0 0 0
230 1 5 0.0 12.744600 33.985599 33.985599 0 0 0
231 1 5 0.0 16.992799 0.0000000 0.0000000 0 0 0
232 1 5 0.0 16.992799 0.0000000 4.2481999 0 0 0
233 1 5 0.0 16.992799 0.0000000 8.4963998 0 0 0
234 1 5 0.0 16.992799 0.0000000 29.737400 0 0 0
235 1 5 0.0 16.992799 0.0000000 33.985599 0 0 0
236 1 5 0.0 16.992799 4.2481999 0.0000000 0 0 0
237 1 5 0.0 16.992799 4.2481999 4.2481999 0 0 0
238 1 5 0.0 16.992799 4.2481999 8.4963998 0 0 0
239 1 5 0.0 16.992799 4.2481999 25.489200 0 0 0
240 1 5 0.0 16.992799 4.2481999 29.737400 0 0 0
241 1 5 0.0 16.992799 4.2481999 33.985599 0 0 0
242 1 5 0.0 16.992799 8.4963998 0.0000000 0 0 0
243 1 5 0.0 16.992799 8.4963998 4.2481999 0 0 0
244 1 5 0.0 16.992799 8.4963998 8.4963998 0 0 0
245 1 5 0.0 16.992799 8.4963998 21.240999 0 0 0
246 1 5 0.0 16.992799 8.4963998 25.489200 0 0 0
247 1 5 0.0 16.992799 8.4963998 29.737400 0 0 0
248 1 5 0.0 16.992799 8.4963998 33.985599 0 0 0
249 1 5 0.0 16.992799 12.744600 8.4963998 0 0 0
250 1 5 0.0 16.992799 12.744600 12.744600 0 0 0
251 1 5 0.0 16.992799 12.744600 16.992799 0 0 0
252 1 5 0.0 16.992799 12.744600 21.240999 0 0 0
253 1 5 0.0 16.992799 12.744600 25.489200 0 0 0
254 1 5 0.0 16.992799 12.744600 29.737400 0 0 0
255 1 5 0.0 16.992799 12.744600 33.985599 0 0 0
256 1 5 0.0 16.992799 16.992799 8.4963998 0 0 0
257 1 5 0.0 16.992799 16.992799 12.744600 0 0 0
258 1 5 0.0 16.992799 16.992799 16.992799 0 0 0
259 1 5 0.0 16.992799 16.992799 21.240999 0 0 0
260 1 5 0.0 16.992799 16.992799 25.489200 0 0 0
261 1 5 0.0 16.992799 16.992799 29.737400 0 0 0
262 1 5 0.0 16.992799 21.240999 8.4963998 0 0 0
263 1 5 0.0 16.992799 21.240999 12.744600 0 0 0
264 1 5 0.0 16.992799 21.240999 16.992799 0 0 0
265 1 5 0.0 16.992799 21.240999 21.240999 0 0 0
266 1 5 0.0 16.992799 21.240999 25.489200 0 0 0
267 1 5 0.0 16.992799 21.240999 29.737400 0 0 0
268 1 5 0.0 16.992799 25.489200 0.0000000 0 0 0
269 1 5 0.0 16.992799 25.489200 4.2481999 0 0 0
270 1 5 0.0 16.992799 25.489200 8.4963998 0 0 0
271 1 5 0.0 16.992799 25.489200 12.744600 0 0 0
272 1 5 0.0 16.992799 25.489200 16.992799 0 0 0
273 1 5 0.0 16.992799 25.489200 21.240999 0 0 0
274 1 5 0.0 16.992799 25.489200 25.489200 0 0 0
275 1 5 0.0 16.992799 29.737400 0.0000000 0 0 0
276 1 5 0.0 16.992799 29.737400 4.2481999 0 0 0
277 1 5 0.0 16.992799 29.737400 8.4963998 0 0 0
278 1 5 0.0 16.992799 29.737400 12.744600 0 0 0
279 1 5 0.0 16.992799 29.737400 16.992799 0 0 0
280 1 5 0.0 16.992799 29.737400 21.240999 0 0 0
281 1 5 0.0 16.992799 29.737400 25.489200 0 0 0
282 1 5 0.0 16.992799 29.737400 33.985599 0 0 0
283 1 5 0.0 16.992799 33.985599 0.0000000 0 0 0
284 1 5 0.0 16.992799 33.985599 4.2481999 0 0 0
285 1 5 0.0 16.992799 33.985599 8.4963998 0 0 0
286 1 5 0.0 16.992799 33.985599 12.744600 0 0 0
287 1 5 0.0 16.992799 33.985599 29.737400 0 0 0
288 1 5 0.0 16.992799 33.985599 33.985599 0 0 0
289 1 5 0.0 21.240999 0.0000000 0.0000000 0 0 0
290 1 5 0.0 21.240999 0.0000000 4.2481999 0 0 0
291 1 5 0.0 21.240999 0.0000000 8.4963998 0 0 0
292 1 5 0.0 21.240999 0.0000000 29.737400 0 0 0
293 1 5 0.0 21.240999 0.0000000 33.985599 0 0 0
294 1 5 0.0 21.240999 4.2481999 0.0000000 0 0 0
295 1 5 0.0 21.240999 4.2481999 4.2481999 0 0 0
296 1 5 0.0 21.240999 4.2481999 8.4963998 0 0 0
297 1 5 0.0 21.240999 4.2481999 12.744600 0 0 0
298 1 5 0.0 21.240999 4.2481999 29.737400 0 0 0
299 1 5 0.0 21.240999 4.2481999 33.985599 0 0 0
300 1 5 0.0 21.240999 8.4963998 0.0000000 0 0 0
301 1 5 0.0 21.240999 8.4963998 4.2481999 0 0 0
302 1 5 0.0 21.240999 8.4963998 8.4963998 0 0 0
303 1 5 0.0 21.240999 8.4963998 12.744600 0 0 0
304 1 5 0.0 21.240999 8.4963998 16.992799 0 0 0
305 1 5 0.0 21.240999 8.4963998 21.240999 0 0 0
306 1 5 0.0 21.240999 8.4963998 25.489200 0 0 0
307 1 5 0.0 21.240999 8.4963998 29.737400 0 0 0
308 1 5 0.0 21.240999 8.4963998 33.985599 0 0 0
309 1 5 0.0 21.240999 12.744600 4.2481999 0 0 0
310 1 5 0.0 21.240999 12.744600 8.4963998 0 0 0
311 1 5 0.0 21.240999 12.744600 12.744600 0 0 0
312 1 5 0.0 21.240999 12.744600 16.992799 0 0 0
313 1 5 0.0 21.240999 12.744600 21.240999 0 0 0
314 1 5 0.0 21.240999 12.744600 25.489200 0 0 0
315 1 5 0.0 21.240999 12.744600 29.737400 0 0 0
316 1 5 0.0 21.240999 16.992799 8.4963998 0 0 0
317 1 5 0.0 21.240999 16.992799 12.744600 0 0 0
318 1 5 0.0 21.240999 16.992799 16.992799 0 0 0
319 1 5 0.0 21.240999 16.992799 21.240999 0 0 0
320 1 5 0.0 21.240999 16.992799 25.489200 0 0 0
321 1 5 0.0 21.240999 16.992799 29.737400 0 0 0
322 1 5 0.0 21.240999 21.240999 12.744600 0 0 0
323 1 5 0.0 21.240999 21.240999 16.992799 0 0 0
324 1 5 0.0 21.240999 21.240999 21.240999 0 0 0
325 1 5 0.0 21.240999 21.240999 25.489200 0 0 0
326 1 5 0.0 21.240999 21.240999 29.737400 0 0 0
327 1 5 0.0 21.240999 25.489200 12.744600 0 0 0
328 1 5 0.0 21.240999 25.489200 16.992799 0 0 0
329 1 5 0.0 21.240999 25.489200 21.240999 0 0 0
330 1 5 0.0 21.240999 25.489200 25.489200 0 0 0
331 1 5 0.0 21.240999 25.489200 29.737400 0 0 0
332 1 5 0.0 21.240999 25.489200 33.985599 0 0 0
333 1 5 0.0 21.240999 29.737400 0.0000000 0 0 0
334 1 5 0.0 21.240999 29.737400 4.2481999 0 0 0
335 1 5 0.0 21.240999 29.737400 16.992799 0 0 0
336 1 5 0.0 21.240999 29.737400 21.240999 0 0 0
337 1 5 0.0 21.240999 29.737400 25.489200 0 0 0
338 1 5 0.0 21.240999 29.737400 29.737400 0 0 0
339 1 5 0.0 21.240999 29.737400 33.985599 0 0 0
340 1 5 0.0 21.240999 33.985599 0.0000000 0 0 0
341 1 5 0.0 21.240999 33.985599 4.2481999 0 0 0
342 1 5 0.0 21.240999 33.985599 8.4963998 0 0 0
343 1 5 0.0 21.240999 33.985599 21.240999 0 0 0
344 1 5 0.0 21.240999 33.985599 25.489200 0 0 0
345 1 5 0.0 21.240999 33.985599 29.737400 0 0 0
346 1 5 0.0 21.240999 33.985599 33.985599 0 0 0
347 1 5 0.0 25.489200 0.0000000 0.0000000 0 0 0
348 1 5 0.0 25.489200 0.0000000 4.2481999 0 0 0
349 1 5 0.0 25.489200 0.0000000 8.4963998 0 0 0
350 1 5 0.0 25.489200 0.0000000 12.744600 0 0 0
351 1 5 0.0 25.489200 0.0000000 25.489200 0 0 0
352 1 5 0.0 25.489200 0.0000000 29.737400 0 0 0
353 1 5 0.0 25.489200 0.0000000 33.985599 0 0 0
354 1 5 0.0 25.489200 4.2481999 0.0000000 0 0 0
355 1 5 0.0 25.489200 4.2481999 4.2481999 0 0 0
356 1 5 0.0 25.489200 4.2481999 8.4963998 0 0 0
357 1 5 0.0 25.489200 4.2481999 12.744600 0 0 0
358 1 5 0.0 25.489200 4.2481999 16.992799 0 0 0
359 1 5 0.0 25.489200 4.2481999 29.737400 0 0 0
360 1 5 0.0 25.489200 4.2481999 33.985599 0 0 0
361 1 5 0.0 25.489200 8.4963998 0.0000000 0 0 0
362 1 5 0.0 25.489200 8.4963998 4.2481999 0 0 0
363 1 5 0.0 25.489200 8.4963998 8.4963998 0 0 0
364 1 5 0.0 25.489200 8.4963998 12.744600 0 0 0
365 1 5 0.0 25.489200 8.4963998 16.992799 0 0 0
366 1 5 0.0 25.489200 12.744600 4.2481999 0 0 0
367 1 5 0.0 25.489200 12.744600 8.4963998 0 0 0
368 1 5 0.0 25.489200 12.744600 12.744600 0 0 0
369 1 5 0.0 25.489200 12.744600 16.992799 0 0 0
370 1 5 0.0 25.489200 12.744600 21.240999 0 0 0
371 1 5 0.0 25.489200 12.744600 25.489200 0 0 0
372 1 5 0.0 25.489200 16.992799 8.4963998 0 0 0
373 1 5 0.0 25.489200 16.992799 12.744600 0 0 0
374 1 5 0.0 25.489200 16.992799 16.992799 0 0 0
375 1 5 0.0 25.489200 16.992799 21.240999 0 0 0
376 1 5 0.0 25.489200 16.992799 25.489200 0 0 0
377 1 5 0.0 25.489200 16.992799 29.737400 0 0 0
378 1 5 0.0 25.489200 16.992799 33.985599 0 0 0
379 1 5 0.0 25.489200 21.240999 0.0000000 0 0 0
380 1 5 0.0 25.489200 21.240999 12.744600 0 0 0
381 1 5 0.0 25.489200 21.240999 16.992799 0 0 0
382 1 5 0.0 25.489200 21.240999 21.240999 0 0 0
383 1 5 0.0 25.489200 21.240999 25.489200 0 0 0
384 1 5 0.0 25.489200 21.240999 29.737400 0 0 0
385 1 5 0.0 25.489200 21.240999 33.985599 0 0 0
386 1 5 0.0 25.489200 25.489200 0.0000000 0 0 0
387 1 5 0.0 25.489200 25.489200 16.992799 0 0 0
388 1 5 0.0 25.489200 25.489200 21.240999 0 0 0
389 1 5 0.0 25.489200 25.489200 25.489200 0 0 0
390 1 5 0.0 25.489200 25.489200 29.737400 0 0 0
391 1 5 0.0 25.489200 25.489200 33.985599 0 0 0
392 1 5 0.0 25.489200 29.737400 0.0000000 0 0 0
393 1 5 0.0 25.489200 29.737400 16.992799 0 0 0
394 1 5 0.0 25.489200 29.737400 21.240999 0 0 0
395 1 5 0.0 25.489200 29.737400 25.489200 0 0 0
396 1 5 0.0 25.489200 29.737400 29.737400 0 0 0
397 1 5 0.0 25.489200 29.737400 33.985599 0 0 0
398 1 5 0.0 25.489200 33.985599 0.0000000 0 0 0
399 1 5 0.0 25.489200 33.985599 4.2481999 0 0 0
400 1 5 0.0 25.489200 33.985599 16.992799 0 0 0
401 1 5 0.0 25.489200 33.985599 21.240999 0 0 0
402 1 5 0.0 25.489200 33.985599 25.489200 0 0 0
403 1 5 0.0 25.489200 33.985599 29.737400 0 0 0
404 1 5 0.0 25.489200 33.985599 33.985599 0 0 0
405 1 5 0.0 29.737400 0.0000000 0.0000000 0 0 0
406 1 5 0.0 29.737400 0.0000000 4.2481999 0 0 0
407 1 5 0.0 29.737400 0.0000000 8.4963998 0 0 0
408 1 5 0.0 29.737400 0.0000000 12.744600 0 0 0
409 1 5 0.0 29.737400 0.0000000 16.992799 0 0 0
410 1 5 0.0 29.737400 0.0000000 21.240999 0 0 0
411 1 5 0.0 29.737400 0.0000000 25.489200 0 0 0
412 1 5 0.0 29.737400 0.0000000 29.737400 0 0 0
413 1 5 0.0 29.737400 0.0000000 33.985599 0 0 0
414 1 5 0.0 29.737400 4.2481999 0.0000000 0 0 0
415 1 5 0.0 29.737400 4.2481999 4.2481999 0 0 0
416 1 5 0.0 29.737400 4.2481999 8.4963998 0 0 0
417 1 5 0.0 29.737400 4.2481999 12.744600 0 0 0
418 1 5 0.0 29.737400 4.2481999 16.992799 0 0 0
419 1 5 0.0 29.737400 4.2481999 21.240999 0 0 0
420 1 5 0.0 29.737400 4.2481999 33.985599 0 0 0
421 1 5 0.0 29.737400 8.4963998 0.0000000 0 0 0
422 1 5 0.0 29.737400 8.4963998 4.2481999 0 0 0
423 1 5 0.0 29.737400 8.4963998 8.4963998 0 0 0
424 1 5 0.0 29.737400 8.4963998 12.744600 0 0 0
425 1 5 0.0 29.737400 8.4963998 16.992799 0 0 0
426 1 5 0.0 29.737400 12.744600 0.0000000 0 0 0
427 1 5 0.0 29.737400 12.744600 4.2481999 0 0 0
428 1 5 0.0 29.737400 12.744600 8.4963998 0 0 0
429 1 5 0.0 29.737400 12.744600 12.744600 0 0 0
430 1 5 0.0 29.737400 12.744600 16.992799 0 0 0
431 1 5 0.0 29.737400 12.744600 21.240999 0 0 0
432 1 5 0.0 29.737400 16.992799 0.0000000 0 0 0
433 1 5 0.0 29.737400 16.992799 4.2481999 0 0 0
434 1 5 0.0 29.737400 16.992799 8.4963998 0 0 0
435 1 5 0.0 29.737400 16.992799 12.744600 0 0 0
436 1 5 0.0 29.737400 16.992799 16.992799 0 0 0
437 1 5 0.0 29.737400 16.992799 21.240999 0 0 0
438 1 5 0.0 29.737400 16.992799 33.985599 0 0 0
439 1 5 0.0 29.737400 21.240999 0.0000000 0 0 0
440 1 5 0.0 29.737400 21.240999 4.2481999 0 0 0
441 1 5 0.0 29.737400 21.240999 8.4963998 0 0 0
442 1 5 0.0 29.737400 21.240999 12.744600 0 0 0
443 1 5 0.0 29.737400 21.240999 16.992799 0 0 0
444 1 5 0.0 29.737400 21.240999 21.240999 0 0 0
445 1 5 0.0 29.737400 21.240999 25.489200 0 0 0
446 1 5 0.0 29.737400 21.240999 29.737400 0 0 0
447 1 5 0.0 29.737400 21.240999 33.985599 0 0 0
448 1 5 0.0 29.737400 25.489200 0.0000000 0 0 0
449 1 5 0.0 29.737400 25.489200 21.240999 0 0 0
450 1 5 0.0 29.737400 25.489200 25.489200 0 0 0
451 1 5 0.0 29.737400 25.489200 29.737400 0 0 0
452 1 5 0.0 29.737400 25.489200 33.985599 0 0 0
453 1 5 0.0 29.737400 29.737400 0.0000000 0 0 0
454 1 5 0.0 29.737400 29.737400 21.240999 0 0 0
455 1 5 0.0 29.737400 29.737400 25.489200 0 0 0
456 1 5 0.0 29.737400 29.737400 29.737400 0 0 0
457 1 5 0.0 29.737400 29.737400 33.985599 0 0 0
458 1 5 0.0 29.737400 33.985599 0.0000000 0 0 0
459 1 5 0.0 29.737400 33.985599 12.744600 0 0 0
460 1 5 0.0 29.737400 33.985599 16.992799 0 0 0
461 1 5 0.0 29.737400 33.985599 21.240999 0 0 0
462 1 5 0.0 29.737400 33.985599 25.489200 0 0 0
463 1 5 0.0 29.737400 33.985599 29.737400 0 0 0
464 1 5 0.0 29.737400 33.985599 33.985599 0 0 0
465 1 5 0.0 33.985599 0.0000000 8.4963998 0 0 0
466 1 5 0.0 33.985599 0.0000000 12.744600 0 0 0
467 1 5 0.0 33.985599 0.0000000 16.992799 0 0 0
468 1 5 0.0 33.985599 0.0000000 21.240999 0 0 0
469 1 5 0.0 33.985599 0.0000000 25.489200 0 0 0
470 1 5 0.0 33.985599 0.0000000 29.737400 0 0 0
471 1 5 0.0 33.985599 4.2481999 4.2481999 0 0 0
472 1 5 0.0 33.985599 4.2481999 8.4963998 0 0 0
473 1 5 0.0 33.985599 4.2481999 12.744600 0 0 0
474 1 5 0.0 33.985599 4.2481999 16.992799 0 0 0
475 1 5 0.0 33.985599 4.2481999 21.240999 0 0 0
476 1 5 0.0 33.985599 4.2481999 25.489200 0 0 0
477 1 5 0.0 33.985599 8.4963998 0.0000000 0 0 0
478 1 5 0.0 33.985599 8.4963998 4.2481999 0 0 0
479 1 5 0.0 33.985599 8.4963998 8.4963998 0 0 0
480 1 5 0.0 33.985599 8.4963998 12.744600 0 0 0
481 1 5 0.0 33.985599 8.4963998 16.992799 0 0 0
482 1 5 0.0 33.985599 8.4963998 21.240999 0 0 0
483 1 5 0.0 33.985599 12.744600 0.0000000 0 0 0
484 1 5 0.0 33.985599 12.744600 4.2481999 0 0 0
485 1 5 0.0 33.985599 12.744600 8.4963998 0 0 0
486 1 5 0.0 33.985599 12.744600 12.744600 0 0 0
487 1 5 0.0 33.985599 12.744600 16.992799 0 0 0
488 1 5 0.0 33.985599 12.744600 33.985599 0 0 0
489 1 5 0.0 33.985599 16.992799 0.0000000 0 0 0
490 1 5 0.0 33.985599 16.992799 4.2481999 0 0 0
491 1 5 0.0 33.985599 16.992799 8.4963998 0 0 0
492 1 5 0.0 33.985599 16.992799 12.744600 0 0 0
493 1 5 0.0 33.985599 16.992799 29.737400 0 0 0
494 1 5 0.0 33.985599 16.992799 33.985599 0 0 0
495 1 5 0.0 33.985599 21.240999 0.0000000 0 0 0
496 1 5 0.0 33.985599 21.240999 4.2481999 0 0 0
497 1 5 0.0 33.985599 21.240999 8.4963998 0 0 0
498 1 5 0.0 33.985599 21.240999 25.489200 0 0 0
499 1 5 0.0 33.985599 21.240999 29.737400 0 0 0
500 1 5 0.0 33.985599 21.240999 33.985599 0 0 0
501 1 5 0.0 33.985599 25.489200 0.0000000 0 0 0
502 1 5 0.0 33.985599 25.489200 4.2481999 0 0 0
503 1 5 0.0 33.985599 25.489200 8.4963998 0 0 0
504 1 5 0.0 33.985599 25.489200 21.240999 0 0 0
505 1 5 0.0 33.985599 25.489200 25.489200 0 0 0
506 1 5 0.0 33.985599 25.489200 29.737400 0 0 0
507 1 5 0.0 33.985599 25.489200 33.985599 0 0 0
508 1 5 0.0 33.985599 29.737400 0.0000000 0 0 0
509 1 5 0.0 33.985599 29.737400 4.2481999 0 0 0
510 1 5 0.0 33.985599 29.737400 16.992799 0 0 0
511 1 5 0.0 33.985599 29.737400 21.240999 0 0 0
512 1 5 0.0 33.985599 29.737400 25.489200 0 0 0
513 1 5 0.0 33.985599 29.737400 29.737400 0 0 0
514 1 5 0.0 33.985599 29.737400 33.985599 0 0 0
515 1 5 0.0 33.985599 33.985599 8.4963998 0 0 0
516 1 5 0.0 33.985599 33.985599 12.744600 0 0 0
517 1 5 0.0 33.985599 33.985599 16.992799 0 0 0
518 1 5 0.0 33.985599 33.985599 21.240999 0 0 0
519 1 5 0.0 33.985599 33.985599 25.489200 0 0 0
520 1 5 0.0 33.985599 33.985599 29.737400 0 0 0
521 1 5 0.0 33.985599 33.985599 33.985599 0 0 0
522 1 5 0.0 0.0000000 2.1240999 10.620499 0 0 0
523 1 5 0.0 0.0000000 2.1240999 14.868700 0 0 0
524 1 5 0.0 0.0000000 2.1240999 19.116899 0 0 0
525 1 5 0.0 0.0000000 2.1240999 23.365100 0 0 0
526 1 5 0.0 0.0000000 2.1240999 27.613300 0 0 0
527 1 5 0.0 0.0000000 6.3723001 2.1240999 0 0 0
528 1 5 0.0 0.0000000 6.3723001 6.3723001 0 0 0
529 1 5 0.0 0.0000000 6.3723001 10.620499 0 0 0
530 1 5 0.0 0.0000000 6.3723001 14.868700 0 0 0
531 1 5 0.0 0.0000000 6.3723001 19.116899 0 0 0
532 1 5 0.0 0.0000000 6.3723001 23.365100 0 0 0
533 1 5 0.0 0.0000000 6.3723001 27.613300 0 0 0
534 1 5 0.0 0.0000000 10.620499 2.1240999 0 0 0
535 1 5 0.0 0.0000000 10.620499 6.3723001 0 0 0
536 1 5 0.0 0.0000000 10.620499 10.620499 0 0 0
537 1 5 0.0 0.0000000 10.620499 14.868700 0 0 0
538 1 5 0.0 0.0000000 10.620499 19.116899 0 0 0
539 1 5 0.0 0.0000000 10.620499 23.365100 0 0 0
540 1 5 0.0 0.0000000 10.620499 27.613300 0 0 0
541 1 5 0.0 0.0000000 10.620499 31.861499 0 0 0
542 1 5 0.0 0.0000000 10.620499 36.109699 0 0 0
543 1 5 0.0 0.0000000 14.868700 2.1240999 0 0 0
544 1 5 0.0 0.0000000 14.868700 6.3723001 0 0 0
545 1 5 0.0 0.0000000 14.868700 10.620499 0 0 0
546 1 5 0.0 0.0000000 14.868700 27.613300 0 0 0
547 1 5 0.0 0.0000000 14.868700 31.861499 0 0 0
548 1 5 0.0 0.0000000 14.868700 36.109699 0 0 0
549 1 5 0.0 0.0000000 19.116899 2.1240999 0 0 0
550 1 5 0.0 0.0000000 19.116899 6.3723001 0 0 0
551 1 5 0.0 0.0000000 19.116899 10.620499 0 0 0
552 1 5 0.0 0.0000000 19.116899 27.613300 0 0 0
553 1 5 0.0 0.0000000 19.116899 31.861499 0 0 0
554 1 5 0.0 0.0000000 19.116899 36.109699 0 0 0
555 1 5 0.0 0.0000000 23.365100 2.1240999 0 0 0
556 1 5 0.0 0.0000000 23.365100 6.3723001 0 0 0
557 1 5 0.0 0.0000000 23.365100 10.620499 0 0 0
558 1 5 0.0 0.0000000 23.365100 27.613300 0 0 0
559 1 5 0.0 0.0000000 23.365100 31.861499 0 0 0
560 1 5 0.0 0.0000000 23.365100 36.109699 0 0 0
561 1 5 0.0 0.0000000 27.613300 2.1240999 0 0 0
562 1 5 0.0 0.0000000 27.613300 6.3723001 0 0 0
563 1 5 0.0 0.0000000 27.613300 10.620499 0 0 0
564 1 5 0.0 0.0000000 27.613300 14.868700 0 0 0
565 1 5 0.0 0.0000000 27.613300 23.365100 0 0 0
566 1 5 0.0 0.0000000 27.613300 27.613300 0 0 0
567 1 5 0.0 0.0000000 27.613300 31.861499 0 0 0
568 1 5 0.0 0.0000000 27.613300 36.109699 0 0 0
569 1 5 0.0 0.0000000 31.861499 6.3723001 0 0 0
570 1 5 0.0 0.0000000 31.861499 10.620499 0 0 0
571 1 5 0.0 0.0000000 31.861499 14.868700 0 0 0
572 1 5 0.0 0.0000000 31.861499 19.116899 0 0 0
573 1 5 0.0 0.0000000 31.861499 23.365100 0 0 0
574 1 5 0.0 0.0000000 31.861499 27.613300 0 0 0
575 1 5 0.0 0.0000000 31.861499 31.861499 0 0 0
576 1 5 0.0 0.0000000 36.109699 10.620499 0 0 0
577 1 5 0.0 0.0000000 36.109699 14.868700 0 0 0
578 1 5 0.0 0.0000000 36.109699 19.116899 0 0 0
579 1 5 0.0 0.0000000 36.109699 23.365100 0 0 0
580 1 5 0.0 0.0000000 36.109699 27.613300 0 0 0
581 1 5 0.0 4.2481999 2.1240999 10.620499 0 0 0
582 1 5 0.0 4.2481999 2.1240999 14.868700 0 0 0
583 1 5 0.0 4.2481999 2.1240999 19.116899 0 0 0
584 1 5 0.0 4.2481999 2.1240999 23.365100 0 0 0
585 1 5 0.0 4.2481999 2.1240999 27.613300 0 0 0
586 1 5 0.0 4.2481999 2.1240999 31.861499 0 0 0
587 1 5 0.0 4.2481999 6.3723001 14.868700 0 0 0
588 1 5 0.0 4.2481999 6.3723001 19.116899 0 0 0
589 1 5 0.0 4.2481999 6.3723001 23.365100 0 0 0
590 1 5 0.0 4.2481999 6.3723001 27.613300 0 0 0
591 1 5 0.0 4.2481999 6.3723001 31.861499 0 0 0
592 1 5 0.0 4.2481999 6.3723001 36.109699 0 0 0
593 1 5 0.0 4.2481999 10.620499 2.1240999 0 0 0
594 1 5 0.0 4.2481999 10.620499 19.116899 0 0 0
595 1 5 0.0 4.2481999 10.620499 23.365100 0 0 0
596 1 5 0.0 4.2481999 10.620499 27.613300 0 0 0
597 1 5 0.0 4.2481999 10.620499 31.861499 0 0 0
598 1 5 0.0 4.2481999 10.620499 36.109699 0 0 0
599 1 5 0.0 4.2481999 14.868700 2.1240999 0 0 0
600 1 5 0.0 4.2481999 14.868700 6.3723001 0 0 0
601 1 5 0.0 4.2481999 14.868700 23.365100 0 0 0
602 1 5 0.0 4.2481999 14.868700 27.613300 0 0 0
603 1 5 0.0 4.2481999 14.868700 31.861499 0 0 0
604 1 5 0.0 4.2481999 14.868700 36.109699 0 0 0
605 1 5 0.0 4.2481999 19.116899 2.1240999 0 0 0
606 1 5 0.0 4.2481999 19.116899 6.3723001 0 0 0
607 1 5 0.0 4.2481999 19.116899 10.620499 0 0 0
608 1 5 0.0 4.2481999 19.116899 27.613300 0 0 0
609 1 5 0.0 4.2481999 19.116899 31.861499 0 0 0
610 1 5 0.0 4.2481999 19.116899 36.109699 0 0 0
611 1 5 0.0 4.2481999 23.365100 2.1240999 0 0 0
612 1 5 0.0 4.2481999 23.365100 6.3723001 0 0 0
613 1 5 0.0 4.2481999 23.365100 10.620499 0 0 0
614 1 5 0.0 4.2481999 23.365100 14.868700 0 0 0
615 1 5 0.0 4.2481999 23.365100 27.613300 0 0 0
616 1 5 0.0 4.2481999 23.365100 31.861499 0 0 0
617 1 5 0.0 4.2481999 23.365100 36.109699 0 0 0
618 1 5 0.0 4.2481999 27.613300 2.1240999 0 0 0
619 1 5 0.0 4.2481999 27.613300 6.3723001 0 0 0
620 1 5 0.0 4.2481999 27.613300 10.620499 0 0 0
621 1 5 0.0 4.2481999 27.613300 14.868700 0 0 0
622 1 5 0.0 4.2481999 27.613300 19.116899 0 0 0
623 1 5 0.0 4.2481999 27.613300 23.365100 0 0 0
624 1 5 0.0 4.2481999 27.613300 36.109699 0 0 0