ITEM: TIMESTEP
0
ITEM: NUMBER OF ATOMS
18000
ITEM: BOX BOUNDS pp pp pp
8.7839819756892368e-02 2.7253160180243228e+01
9.2326856372146437e-02 2.7248673143627556e+01
1.0495156481275956e+00 3.2704248435187026e+02
ITEM: ATOMS id type x y z c_peratom fx fy fz 
362 3 5.57881 5.616 6.5788 -28.7202 -0.989793 -0.609765 -2.00934 
1801 2 5.36914 3.07223 3.81917 -25.2839 0.4214 -1.6103 -1.34032 
3061 3 2.58262 5.70185 3.76482 -28.8537 1.76344 0.416035 -1.42232 
4502 2 2.68613 2.93149 6.17858 -24.5221 1.70655 -0.992151 2.32169 
6001 1 1.1722 1.7159 2.13682 -8.11311 0.511418 -0.078473 2.86901 
7501 1 4.13504 4.43698 5.14781 -7.4177 -1.96397 -1.05671 -0.198538 
9001 1 3.98944 4.19208 2.47764 -7.73046 -0.306041 -0.109429 -0.343593 
10501 1 1.35357 1.59877 4.93676 -8.51102 -0.310781 0.73992 -0.797046 
12001 1 4.30074 1.53563 4.99539 -7.45457 -2.88835 1.4617 0.503762 
13501 1 1.34569 4.39395 2.15319 -8.21799 0.483536 -1.02304 1.69868 
15001 1 1.36437 4.28335 4.97844 -8.61876 0.542564 -1.17549 -1.73527 
16501 1 3.79863 1.58611 2.25945 -7.22697 -0.124965 -0.30979 0.455716 
9002 1 4.17554 4.3493 7.72539 -7.48307 -0.383018 -1.89373 0.253469 
10561 1 1.15181 6.82597 4.89519 -7.52793 1.03903 -0.382093 0.542994 
15301 1 6.65665 4.27627 5.06615 -7.25251 1.96386 0.231592 0.0907573 
13801 1 6.81111 4.23921 2.30226 -7.90725 -0.00519252 0.458509 2.10118 
16502 1 3.98331 1.38757 7.83643 -7.60862 1.89489 0.70924 -0.712259 
16561 1 4.02265 6.77487 2.22328 -7.14319 -0.837411 1.38343 -0.308374 
3001 2 2.48562 0.21154 3.52536 -24.7282 2.23266 -0.461601 1.3081 
6301 1 6.58317 1.5881 2.23473 -7.61881 0.107032 0.18924 1.38291 
10801 1 6.80053 1.56698 5.26253 -7.75003 1.62144 -0.82093 -0.746891 
10861 1 6.72354 6.8551 4.8446 -7.44983 0.387537 0.778374 3.86579 
13502 1 1.33532 4.08161 7.66008 -8.05336 1.57975 0.777475 -0.234525 
6002 1 1.48559 1.25646 7.77675 -7.16086 -1.93558 1.06432 -1.50043 
16562 1 4.14874 6.86802 7.72009 -8.3312 -0.343089 1.71076 -0.327254 
361 2 5.38432 5.45321 1.0615 -25.3847 1.10315 2.24962 0.849 
4801 3 7.98624 2.95706 1.18587 -29.0521 0.791677 -0.442534 -1.9709 
662 2 10.9364 5.48107 6.31033 -24.6151 -1.37948 -0.125613 -0.14539 
2101 2 10.7725 2.88909 3.7805 -24.9254 1.93115 -0.535977 -0.281585 
3361 2 8.23634 5.54346 3.82435 -24.9896 -1.78673 0.782277 -1.88351 
4802 2 8.14479 2.86151 6.52798 -25.0839 -1.57539 -1.24327 0.223794 
6601 1 12.1624 1.48139 2.65566 -7.92046 -1.18904 0.610243 -2.15399 
7801 1 9.32994 3.9355 5.09674 -8.61659 1.7348 3.01545 -0.511662 
9301 1 9.56486 4.52044 2.31831 -7.84339 0.830648 0.329237 0.182328 
11101 1 12.1596 1.41657 5.35371 -6.82164 0.727728 0.273379 -1.27407 
12301 1 9.62467 1.31265 5.01959 -7.46197 -1.76485 1.07735 0.408384 
14101 1 12.3905 4.26574 2.36459 -7.57681 -1.30337 -0.290487 -0.17985 
15601 1 12.2554 4.14057 4.97866 -8.08776 -0.186619 1.05019 -0.507179 
16801 1 9.18994 2.0292 2.58189 -7.53977 0.0947095 -1.97964 -0.819564 
3661 3 13.5656 5.62168 3.69624 -28.9097 0.37123 0.429888 -0.916319 
602 3 10.6536 0.212179 6.44989 -29.2926 2.9876 0.200666 1.78333 
3301 3 8.1273 0.240762 3.97695 -28.4622 -0.0748594 -0.231429 -2.05618 
3601 2 13.5452 0.184472 3.80803 -25.507 -0.697757 -0.389553 -0.490005 
16802 1 9.3788 1.5066 7.74435 -7.40997 1.12153 -0.0395659 -0.337041 
601 2 10.8046 0.248251 1.08815 -24.9095 -0.417372 -0.481737 0.195113 
13802 1 6.8834 4.25514 7.60646 -7.49653 -1.96578 1.2653 1.47929 
14102 1 12.2741 4.07568 7.55217 -7.52649 -1.78276 0.051987 2.46293 
16862 1 9.68252 6.86264 7.71115 -7.83269 -1.14876 0.386732 0.592204 
6662 1 12.3163 6.60925 7.48305 -7.28564 -0.859517 1.13117 1.7602 
661 3 10.9399 5.70844 1.07023 -28.7957 -0.496268 -0.307296 -0.681002 
5102 2 13.6968 2.84955 6.39492 -25.1323 -2.0508 -0.0446417 -1.04528 
962 2 16.2263 5.5071 6.4531 -24.8364 0.638749 0.540058 -0.691746 
2401 2 16.3069 2.9901 3.57979 -25.5822 -1.05605 -1.60658 -1.06995 
3961 3 18.929 5.60029 3.38289 -29.1826 0.175771 -0.0971918 2.05089 
5402 2 19.0288 2.79255 6.38278 -25.7894 -0.538452 0.871601 -1.35205 
6901 1 17.6777 1.59973 2.19032 -7.52206 -0.844999 -0.660443 -0.516458 
8101 1 15.0687 4.41084 4.91931 -8.33462 -1.34702 -0.712744 0.207416 
9601 1 14.978 4.48079 2.13541 -7.18444 -1.01802 -0.979701 0.908944 
11401 1 17.538 1.48786 4.78312 -6.7536 -0.978799 -1.77196 0.980117 
12601 1 14.8354 1.46469 5.04683 -7.97273 0.885578 1.37232 -0.484953 
14401 1 17.4663 4.26908 2.20346 -7.59809 2.46046 -1.0193 0.255653 
15901 1 17.7294 3.91717 4.87239 -6.79751 0.769819 2.83624 0.961635 
17101 1 14.9355 1.75399 2.18641 -6.96705 0.130819 1.30143 1.1502 
17401 1 20.2981 1.64157 2.20307 -6.92079 1.14559 0.352581 0.422952 
9901 1 20.2647 4.32787 2.29548 -8.06963 0.622869 0.342663 -1.77202 
12901 1 20.1355 1.48149 5.00567 -7.30419 1.74248 -0.662516 -0.00949178 
3901 3 18.7111 0.19749 3.62634 -29.1977 1.8439 0.751261 -0.400654 
902 2 16.1361 0.145667 6.40585 -25.0858 2.03057 -0.749887 -1.7989 
17102 1 14.8367 1.47129 7.71973 -8.0815 0.677491 0.162204 0.431184 
9902 1 20.283 4.34429 7.59388 -7.62318 0.172215 -0.402583 0.392116 
14402 1 17.5621 4.10479 7.67849 -7.63685 0.529959 0.737815 0.508082 
6902 1 17.4625 1.50508 7.55327 -7.68525 1.90419 -0.704538 0.760145 
8401 1 20.4444 4.23466 4.8779 -6.69786 -0.0331064 -0.609654 0.394952 
12961 1 20.4508 6.8432 4.94933 -7.22843 -0.907619 1.33979 -0.152148 
6961 1 17.4835 6.75047 2.28959 -7.1543 0.202835 1.33525 0.394804 
11461 1 17.7575 6.66082 4.95156 -7.38091 -1.1233 0.464804 0.450229 
9602 1 14.8525 4.14666 7.81407 -7.79856 0.999822 0.763391 0.10294 
6962 1 17.5618 6.83723 7.71125 -8.15589 0.0070442 -0.628622 0.620153 
1501 3 27.223 2.9347 3.58371 -27.9921 -1.58087 0.116184 0.151284 
2 2 27.0455 0.231107 6.4033 -25.2763 1.66259 0.600495 0.11447 
62 2 27.2223 5.4531 6.32937 -25.304 -2.18431 1.74267 1.27134 
1262 2 21.6749 5.69911 6.33059 -25.9484 1.2147 -1.21608 1.02416 
2701 2 21.8398 2.96135 3.61787 -24.9622 -1.87434 -0.916609 -0.0472847 
4261 2 24.4041 5.65756 3.66151 -25.186 1.35686 0.218859 1.91546 
5702 2 24.3914 2.83214 6.3772 -25.8414 0.549086 1.45085 1.52445 
7201 1 23.167 1.51583 2.219 -7.25506 -1.71421 1.16408 1.91301 
8701 1 25.7936 4.2743 4.99439 -7.55861 0.578758 -0.0135859 -0.187978 
10201 1 25.729 4.03477 2.35071 -7.53466 3.09205 2.26098 1.33305 
11701 1 23.0855 1.33534 5.16225 -7.72245 -1.32424 2.50452 -1.77285 
13201 1 25.7146 1.56222 5.06201 -7.89098 1.728 0.424103 0.378759 
14701 1 23.2102 4.39817 2.35658 -8.42835 -2.41266 -0.648287 -1.45762 
16201 1 23.0848 4.29237 5.11551 -7.52651 0.144738 -1.41947 -1.19704 
17701 1 25.7001 1.44863 2.43367 -7.12626 2.36502 0.142242 -0.280303 
14702 1 23.1294 4.33321 7.77007 -6.81137 -0.647227 -1.01881 0.429159 
4201 2 24.4779 0.218975 3.81791 -25.7061 -0.885057 -2.22662 -2.41551 
10202 1 25.8765 4.15738 7.74773 -6.98846 -0.406582 1.15508 0.0932902 
17761 1 25.8565 6.8043 2.34626 -8.06443 -0.803159 0.569142 0.227926 
17402 1 20.4717 1.51526 7.819 -8.22082 -1.04334 -0.0364191 -0.710797 
7202 1 23.1758 1.43258 7.72557 -7.29605 -0.248245 0.303358 1.59819 
6061 1 1.34483 7.10598 2.25259 -7.53468 0.430005 -0.20688 0.280907 
6361 1 6.73061 7.072 2.39818 -6.78093 -0.270958 -0.948002 -1.01878 
12061 1 3.87439 7.01331 4.90583 -7.31193 0.185469 0.892032 1.04431 
422 2 5.44387 10.9631 6.22094 -25.3567 -1.88586 -0.0871557 4.23367 
1861 2 5.47444 8.46557 3.88639 -25.5669 -1.54678 -2.34625 -3.36566 
3121 2 2.4699 11.1598 3.78367 -25.2675 2.06305 -1.10637 -0.096766 
4562 2 2.70439 8.28837 6.45659 -25.1204 -0.300862 -0.0110716 -0.951049 
6121 1 1.25509 12.4196 2.29083 -7.51406 -0.445254 -0.90542 0.900211 
7561 1 3.93017 9.65209 5.08918 -7.79862 0.491374 0.807486 -0.522137 
9061 1 4.16513 9.74688 2.40479 -7.40507 -0.495174 -0.98386 -0.892993 
10621 1 1.18322 12.2654 5.23337 -7.75335 0.45295 1.24809 -1.27697 
12121 1 3.89966 12.4278 5.1983 -7.79588 0.323382 0.41922 -1.09234 
13561 1 1.47345 9.72661 2.41801 -7.69533 -0.766134 -0.11798 -0.873285 
15061 1 1.1657 9.42562 5.16962 -7.4585 1.13877 1.53551 0.159531 
16621 1 3.95389 12.4308 2.42637 -7.48365 0.513647 -0.932904 0.0737452 
9062 1 4.10476 9.64743 7.67044 -7.73025 0.507053 -1.19633 1.24356 
6421 1 6.66082 12.5232 2.41583 -8.14701 0.31832 0.601483 -0.527126 
13861 1 6.82164 9.77913 2.4318 -6.9936 -0.157912 0.468372 -0.764012 
15361 1 6.85035 9.65203 5.02577 -7.96453 0.657397 -0.230452 1.49072 
10921 1 6.58158 12.2528 5.04438 -8.11219 1.57454 2.95964 -1.59309 
6062 1 1.29223 7.01563 7.68757 -8.03194 1.95093 -0.302759 0.284178 
6362 1 6.82655 7.11344 7.70557 -8.49163 0.0944006 -1.73173 0.353644 
13562 1 1.50259 9.7797 7.76504 -7.84134 -0.949949 -0.693568 0.914195 
13862 1 6.81635 9.68952 7.73142 -7.21922 -0.28249 -0.662754 -0.935516 
6422 1 6.94461 12.2997 7.65049 -7.24238 -0.0363453 0.700872 -0.000490248 
6661 1 12.1431 6.9107 2.22473 -7.51963 -0.112441 0.163693 0.276439 
16861 1 9.52257 7.18906 2.37355 -7.48285 0.0911055 -1.19317 0.135015 
11161 1 12.2725 7.00941 4.85771 -7.59191 -0.824326 -1.19272 -0.141834 
12361 1 9.54188 6.97724 5.03587 -8.28075 -0.163851 -1.20331 0.56817 
722 2 10.849 11.0945 6.43234 -26.0182 0.262594 -0.430748 -0.630018 
2161 2 10.8214 8.45277 3.71508 -25.5033 0.0855978 -0.769869 -0.0784665 
3421 2 8.09694 11.2157 3.69753 -25.4338 0.7953 -1.56226 0.432567 
4862 2 8.22984 8.28318 6.43421 -24.9599 0.633482 1.16357 0.136456 
6721 1 12.275 12.5652 2.38096 -7.73181 -0.428501 -1.42094 -0.188106 
7861 1 9.55871 9.78696 5.09741 -7.44411 -1.65835 -0.136165 -0.14153 
9361 1 9.53282 9.8659 2.33342 -7.39994 0.0020805 -0.0131992 0.399838 
11221 1 12.2508 12.3699 4.97953 -6.80733 -1.22649 1.07025 0.398221 
12421 1 9.48241 12.5989 5.10223 -7.15707 -1.08628 -0.537916 0.657751 
14161 1 12.2601 9.59352 2.3584 -8.3599 -0.261971 1.19695 -0.0846716 
15661 1 12.0922 9.6871 5.14413 -7.25487 0.856716 -0.111643 -0.509935 
16921 1 9.48587 12.5598 2.61111 -7.6036 -0.27873 -0.098349 -3.10214 
16922 1 9.63594 12.4331 7.6566 -7.41267 -0.935151 1.14927 1.1759 
5162 2 13.3733 8.25267 6.47754 -26.0635 1.3811 1.55255 -1.03488 
3721 2 13.5139 11.0157 3.63956 -25.7297 0.69464 0.0619031 2.13267 
6722 1 12.2996 12.2743 7.70455 -7.63997 -0.793824 -0.195461 0.608152 
721 2 10.8438 11.141 1.08035 -25.0117 0.015115 -0.515318 0.0450769 
5161 3 13.4727 8.33599 1.15871 -29.1624 1.69115 -0.680361 -0.666413 
4861 2 8.08044 8.21364 1.07207 -26.1764 0.48507 1.68145 -0.40112 
17461 1 20.2853 7.07046 2.23721 -8.03928 -0.369198 -0.840167 -0.937362 
12661 1 14.8735 7.13632 5.10769 -7.54978 0.775676 -2.05317 1.19965 
17161 1 14.775 7.01866 2.45598 -7.26696 -0.281365 -0.31258 -0.00496266 
1022 2 16.1852 10.9952 6.47175 -25.6975 -0.630008 -0.168118 -0.284957 
2461 2 16.1766 8.23874 3.73361 -25.6605 1.43293 0.260891 -0.669223 
4021 2 19.075 11.0414 3.69164 -24.9592 -0.305342 -1.1274 -0.00623762 
5462 2 18.8778 8.22091 6.43184 -25.3026 1.66667 -0.716749 -0.866951 
7021 1 17.7962 12.3895 2.54726 -7.93439 -0.555996 -0.137523 -1.73657 
8161 1 14.7593 9.74916 5.16276 -6.73598 0.619394 -0.510151 -2.0158 
9661 1 14.9614 9.55823 2.30233 -7.34541 0.0928697 0.114336 0.959233 
11521 1 17.5815 12.3875 5.20972 -7.6916 0.411616 -0.883704 -0.859201 
12721 1 14.8095 12.3662 5.29456 -6.80445 1.22743 0.992864 -1.32226 
14461 1 17.8058 9.47091 2.43986 -7.59732 -0.558269 0.849276 -0.311163 
15961 1 17.5264 9.4255 5.22692 -7.55277 -0.842829 1.45618 -1.33506 
17221 1 15.1218 12.0912 2.51146 -7.30854 -0.276699 1.45225 0.365523 
9662 1 14.7225 9.74922 7.70217 -7.19279 0.253351 -0.603015 1.0198 
9961 1 20.4571 9.77922 2.28626 -7.79974 -0.15012 0.515718 -0.384428 
17522 1 20.2813 12.5323 7.6175 -7.85128 0.434242 -0.373162 -0.321545 
17521 1 20.3551 12.4706 2.34871 -7.33851 0.775724 -2.08627 -0.223233 
2521 2 16.4208 13.6491 3.75891 -25.5175 -0.39976 0.73906 0.451946 
8461 1 20.2534 9.55781 4.96742 -7.78355 0.430488 1.15896 0.339284 
13021 1 20.2133 12.4957 4.99554 -8.29227 1.66769 -1.04007 0.161565 
14462 1 17.6068 9.5261 7.81959 -7.60765 -0.271519 1.41409 -1.67408 
9962 1 20.4362 9.82286 7.67109 -7.68473 -0.172752 0.0983933 -0.759931 
7022 1 17.4998 12.5221 7.66897 -7.90108 1.16167 -1.85367 0.0670004 
122 2 27.1809 10.9797 6.53423 -25.3774 -0.705348 -0.286848 -0.582749 
11761 1 23.1242 6.93691 5.0592 -7.18803 -0.422443 0.781262 -1.23753 
7261 1 23.0764 7.17966 2.17965 -8.14711 -0.115805 -2.27287 1.55503 
13261 1 25.7065 7.10483 5.07207 -7.41861 0.199299 -0.116064 0.0951687 
1561 2 27.1643 8.34041 3.67187 -25.4706 -0.604289 -0.671227 -0.341134 
1322 2 21.7113 11.1158 6.25678 -24.7543 0.589782 -0.518951 0.534863 
2761 2 21.629 8.29667 3.51232 -25.5039 0.566413 0.555917 1.56471 
4321 2 24.4397 10.8908 3.64925 -25.2676 -0.233016 1.62878 -0.0811876 
5762 3 24.5109 8.33856 6.39705 -28.89 -0.445079 -0.3626 -0.640539 
7321 1 23.0568 12.3481 2.4562 -7.99052 -0.603254 -0.812411 -1.02978 
8761 1 25.7652 9.84055 4.97072 -7.30081 0.330618 -2.61393 0.610746 
10261 1 25.8667 9.58048 2.18021 -8.28406 -0.733002 -1.57814 0.345154 
11821 1 23.0571 12.5116 4.99146 -7.87844 -1.18367 -1.21691 0.15074 
13321 1 25.6579 12.2828 5.09641 -7.33457 0.446521 2.31314 -0.566339 
14761 1 23.1424 9.71996 2.3203 -7.30565 -0.101565 0.0278934 -0.983266 
16261 1 23.0546 9.61855 4.87132 -7.63175 -0.74295 0.551591 1.58431 
17821 1 25.7657 12.2114 2.2384 -7.73687 -0.634583 1.06 2.22264 
7322 1 23.2001 12.3922 7.61972 -7.23281 -1.90511 -1.47429 0.517133 
7262 1 23.2174 7.00765 7.68463 -7.29777 -0.0940426 0.888932 -0.292459 
2821 3 21.7883 13.6615 3.68556 -29.3188 -1.49707 1.50914 -0.939156 
14762 1 23.2042 9.73933 7.67361 -7.87671 -0.518319 -0.488044 -0.736167 
10262 1 25.8773 9.50779 7.68322 -8.03974 0.235938 -0.346216 0.198451 
5821 2 24.32 13.5819 1.1195 -25.0442 1.53831 0.292755 -1.85302 
5761 3 24.4401 8.22487 1.11773 -28.485 -0.0228051 1.12074 -2.14229 
4622 2 2.76203 13.8647 6.47613 -24.9473 0.0402867 -1.78626 0.0461399 
1921 3 5.43041 13.7779 3.74073 -28.5959 -0.501819 0.261979 0.341375 
482 3 5.47345 16.3272 6.59325 -29.0338 1.39833 1.31204 -0.479922 
1981 2 5.39891 19.0264 3.67026 -25.5578 0.303388 2.25974 1.6843 
3181 2 2.68966 16.3279 3.80037 -25.4359 0.532505 1.20776 -0.627496 
4682 3 2.70694 19.1781 6.55624 -28.6595 0.888599 -0.352475 -1.46326 
6181 1 1.52813 17.6943 2.31323 -7.23459 -0.990342 0.858956 0.301425 
7621 1 4.22223 15.2188 5.16172 -8.12264 -1.01431 -0.00736672 -1.0409 
9121 1 4.03825 14.9443 2.50529 -7.45215 0.834743 0.867337 -0.173419 
10681 1 1.37254 17.7024 5.10429 -7.66591 -0.947079 -0.260442 -0.0238527 
12181 1 3.96774 18.1653 5.14295 -6.58977 -0.830277 -2.30179 0.518136 
13621 1 1.40474 14.981 2.35974 -7.13282 -0.799838 1.50647 0.093673 
15121 1 1.20186 15.0112 4.93299 -8.04033 2.06455 -0.141992 1.45669 
16681 1 4.14192 17.6322 2.5573 -8.01068 -0.211724 0.665358 -1.71722 
13921 1 6.6884 15.2636 2.46238 -7.94456 0.543033 -1.64552 -1.37165 
16682 1 4.20561 17.7231 7.81323 -7.76628 -0.216089 0.494056 0.276044 
9122 1 4.29083 15.0666 7.61857 -7.81016 -1.64315 -0.566118 2.09856 
6182 1 1.44018 17.8514 7.7633 -7.93644 1.49493 0.133377 -0.82329 
10981 1 6.53992 17.65 5.30758 -7.6866 0.932925 -0.098806 -0.986071 
6481 1 6.85367 17.7273 2.54793 -7.87473 -0.719587 1.11631 -1.13349 
1681 2 0.101839 19.0884 3.69449 -25.3409 0.674513 0.531089 0.232304 
15181 1 1.46429 20.4166 5.08417 -7.96925 0.312262 0.959827 1.0912 
13982 1 6.83527 20.4451 7.80585 -7.34243 -0.480166 -0.892793 -1.07757 
13981 1 6.74284 20.3554 2.0557 -6.85212 -1.01842 -0.171254 1.40384 
13622 1 1.36117 15.1337 7.69055 -7.75471 1.98706 -0.0913353 0.559493 
13922 1 6.84179 14.8902 7.79466 -7.32746 -0.349621 0.308754 -0.192966 
9182 1 4.05956 20.4175 7.8266 -8.0539 -0.450054 -0.0395331 0.0188607 
4621 2 2.65235 13.7343 1.07052 -25.7646 -0.379794 -0.038386 -1.11806 
481 2 5.38206 16.5079 1.14628 -24.2859 -0.381882 -1.55133 -0.953856 
15421 1 6.93082 14.9795 5.03879 -7.60209 -1.0107 -0.432341 0.50186 
15481 1 7.0054 20.3407 4.81869 -7.8342 -1.5081 -0.225799 0.583423 
5222 2 13.5324 13.8422 6.47858 -25.3048 0.425565 -1.95784 -0.509031 
2221 2 10.8291 14.0263 3.73288 -25.6851 0.754215 -2.31946 0.0642435 
4922 3 8.06006 13.7755 6.29226 -29.1364 0.920302 0.143845 1.0541 
782 2 10.8369 16.5697 6.45678 -25.0774 0.0620256 -0.501674 -0.79481 
2281 2 10.6783 19.1693 3.60558 -25.8463 2.22031 0.598243 0.158042 
3481 3 8.07046 16.5949 3.69793 -28.858 0.30632 -2.05839 0.720003 
4982 2 8.05376 19.079 6.30483 -25.2814 0.4786 0.38467 2.9881 
6781 1 12.1717 17.759 2.39897 -6.75987 0.00274336 0.929791 -1.32159 
7921 1 9.47466 15.2113 4.86236 -7.25746 -0.53274 1.49798 0.999064 
9421 1 9.46401 15.1513 2.18551 -7.80477 -0.57462 0.777623 -0.173415 
11281 1 12.231 17.7295 4.94545 -7.14015 -0.776799 0.337757 2.29018 
12481 1 9.26869 17.8468 4.93716 -8.19914 0.792533 -0.00598006 0.703908 
14221 1 12.2295 15.2145 2.40697 -7.70012 0.707094 -0.604575 -0.105109 
15721 1 12.1574 15.1828 5.24936 -7.84161 1.27968 -0.740868 -0.474268 
16981 1 9.3885 17.9067 2.30948 -7.94609 0.608533 -0.75428 -1.44336 
9422 1 9.34854 15.3528 7.55443 -7.45754 -0.00896776 -0.63301 -0.306686 
15781 1 12.3348 20.3943 4.79336 -6.37054 -0.1588 -0.507438 -0.233977 
16982 1 9.78239 17.9822 7.75816 -7.54236 -1.52986 -0.392871 -0.735274 
5282 2 13.5843 19.1146 6.31057 -26.1912 -0.0285788 0.175677 0.658537 
14282 1 12.0511 20.4382 7.31137 -6.61226 0.65973 0.0193147 1.94431 
5221 2 13.5981 13.795 1.10043 -25.4263 0.897875 -0.417495 -1.66358 
3781 2 13.7784 16.3915 3.76432 -25.4653 -2.54678 0.332456 0.145279 
5522 3 19.0438 13.6926 6.36122 -28.3682 -0.368904 0.99926 -0.69031 
1082 2 16.479 16.2926 6.52216 -25.2996 0.0852341 2.3578 -2.40252 
2581 2 16.3988 19.1399 3.64379 -25.1535 -0.0761297 -0.261123 1.71556 
4081 3 19.1298 16.536 3.65928 -29.5761 0.860698 -0.885691 0.109628 
5582 2 18.9701 19.1715 6.40789 -25.2431 1.05401 -0.607053 -0.0482123 
7081 1 17.9455 17.8488 2.34199 -8.01603 -1.93977 -0.426265 -0.203809 
8221 1 15.0878 15.0773 5.02238 -7.74706 -0.591597 -0.677219 1.54916 
9721 1 15.0519 14.8522 2.42689 -7.87362 -0.2617 1.18227 -0.783125 
11581 1 17.7217 17.7485 5.05119 -7.68288 0.249277 1.03375 0.336732 
12781 1 14.9839 17.7422 5.14672 -7.12839 0.341194 0.325629 -0.574926 
14521 1 17.7781 15.1873 2.35832 -7.6222 0.520116 -0.356698 -0.4054 
16021 1 17.7865 15.156 4.99949 -7.4155 -0.00568009 -1.31107 0.769931 
17281 1 14.9872 17.674 2.48503 -8.26313 1.52124 0.996103 -2.13564 
8521 1 20.3866 15.1591 4.92206 -7.45207 0.242483 -1.21164 1.10985 
10081 1 20.3319 20.4279 2.22985 -7.71619 1.64651 -0.161821 0.38555 
8581 1 20.428 20.3982 4.94137 -7.37913 0.396524 0.443038 0.662634 
14522 1 17.8347 15.0813 7.71271 -8.38402 1.31194 -0.700288 0.447402 
17282 1 15.2238 17.7334 7.69553 -7.12147 -0.909581 -0.121006 1.1339 
9722 1 15.0949 15.1438 7.8205 -8.29596 -0.672962 -1.81968 -1.09617 
1081 2 16.3853 16.4688 1.05653 -24.7638 -0.295721 -1.92808 -0.580501 
1621 2 27.0218 13.792 3.62992 -24.7202 1.24566 -2.58204 -0.795221 
182 2 27.1673 16.3081 6.39279 -24.9943 0.092692 2.0466 0.120953 
10021 1 20.673 14.8879 2.27097 -6.42981 -1.58165 1.66045 0.155992 
17581 1 20.5772 17.6121 2.29798 -6.78371 -0.152225 0.366861 0.14129 
5822 3 24.4642 13.673 6.21633 -28.7367 -0.297742 -0.9939 1.31375 
13081 1 20.512 17.7121 4.97614 -6.70204 -2.32784 0.776457 -0.149013 
1382 2 21.7723 16.3436 6.26714 -25.7754 -0.651655 1.01212 0.89745 
2881 2 21.8676 19.2114 3.60545 -25.8276 -1.40724 -1.78857 0.710377 
4381 2 24.4358 16.2768 3.68293 -24.268 0.0696366 1.92597 -0.0931241 
5882 3 24.5149 18.9656 6.35186 -28.6792 -0.310061 1.25079 0.390047 
7381 1 23.1482 17.6364 2.51628 -7.70195 1.0567 0.577804 -1.48535 
8821 1 25.8043 15.0267 4.99617 -8.78406 -1.45789 0.313692 0.204719 
10321 1 25.9295 15.0807 2.09075 -8.25879 -2.09427 -0.330813 2.05156 
11881 1 22.982 17.7676 5.08673 -7.06227 2.84091 1.07472 -0.178234 
13381 1 25.7266 17.8522 5.04899 -8.22464 0.351336 -1.35718 -0.836871 
14821 1 23.142 14.934 2.40837 -7.51813 1.74858 1.05422 1.21396 
16321 1 23.1091 15.0956 5.00106 -7.87575 0.267588 -0.826111 -0.0828904 
17881 1 25.9258 17.9262 2.08777 -8.15366 0.591784 -1.22395 1.63471 
17882 1 25.9544 17.6562 7.82595 -7.58504 -1.47465 0.609572 -0.829695 
14822 1 23.3367 14.7912 7.58114 -7.36207 -0.278812 2.10036 0.762263 
14882 1 23.265 20.3925 7.52392 -7.65999 -0.543357 -0.262437 0.498717 
14881 1 23.2177 20.3815 2.15694 -8.09581 -0.230774 0.658077 0.323908 
17582 1 20.4694 17.9657 7.67702 -7.16639 -0.220619 -1.01724 0.612282 
7382 1 23.1251 17.5699 7.67225 -7.6694 1.12033 0.157871 1.57381 
10322 1 25.9719 15.077 7.81607 -7.75094 -0.986477 -2.13407 -0.531453 
10382 1 25.9381 20.4323 7.78333 -7.40623 -0.267874 0.218972 0.0442956 
302 2 5.30407 27.2445 6.47325 -25.2392 0.958096 0.896283 -0.24287 
7681 1 4.26397 20.6141 5.07905 -7.17021 -0.327534 1.48265 0.348697 
9181 1 4.01173 20.5903 2.3825 -7.49164 1.63238 -0.822282 -1.01147 
13681 1 1.49188 20.5718 2.32712 -7.37486 -0.97644 -0.283282 -0.688261 
542 2 5.36473 21.7695 6.61427 -25.0384 0.392787 1.16936 -0.693387 
2041 2 5.39945 24.6907 3.86923 -25.4664 0.273551 -0.230871 -2.69917 
3241 2 2.76037 21.9046 3.71639 -25.8423 0.287769 0.339826 -0.560175 
4742 3 2.65335 24.6261 6.38857 -29.2573 0.446989 -0.49392 -0.634548 
6241 1 1.54725 23.4171 2.30287 -7.19558 -1.56317 -1.5807 0.179532 
7741 1 4.09806 26.1208 4.99446 -7.29975 -1.42422 -0.875612 0.494918 
9241 1 4.0808 25.989 2.41815 -7.37064 -1.01088 0.965149 0.135699 
10741 1 1.50072 23.3185 4.95959 -7.79891 -1.27433 -0.180955 1.22416 
12241 1 4.02829 23.3671 4.92975 -7.31363 0.253116 -0.453828 1.39106 
13741 1 1.1673 25.906 2.39823 -8.21164 1.13835 1.94571 0.52178 
15241 1 1.30804 26.1297 5.20724 -7.54896 0.642287 -0.898422 -0.896598 
16741 1 4.12321 23.4215 2.24987 -6.96674 0.740724 -1.41107 -0.120478 
6541 1 6.75358 23.1048 2.23552 -7.58594 -1.94011 1.41674 -0.73175 
14041 1 6.87473 25.9378 2.31286 -7.23206 -0.896145 -0.011292 -0.66023 
6242 1 1.16002 22.9998 7.80967 -6.99757 1.64699 2.31453 -0.403773 
11041 1 6.71677 23.2257 5.22926 -7.77685 -1.1445 -0.147046 -0.106629 
15541 1 6.86011 25.9442 4.97044 -8.27305 0.794549 0.890456 1.76484 
9242 1 4.12599 25.6184 7.608 -7.25185 0.49688 2.33474 0.567758 
16742 1 3.76731 23.1779 7.65867 -7.30007 0.859251 -2.07143 0.204931 
14042 1 6.66781 25.8828 7.8228 -8.04685 1.12819 -0.104046 -0.584064 
4741 3 2.84931 24.6992 1.13636 -29.3341 -0.511639 -0.910303 -1.03452 
9481 1 9.40342 20.6394 2.06401 -7.0583 -0.916462 -1.00616 3.05503 
7981 1 9.62294 20.5865 5.05996 -7.25902 -1.02701 -0.678438 -0.517364 
14281 1 12.1713 20.5088 2.19759 -7.27162 0.930493 -0.64384 -0.653749 
842 2 10.6731 21.9336 6.48194 -26.0283 0.539559 -0.319489 0.608555 
2341 2 10.9015 24.7031 3.93077 -25.4246 -2.15256 -1.36123 -1.6696 
3541 2 7.83522 21.9893 3.67146 -25.3224 3.29042 -1.19377 0.250029 
5042 2 8.11907 24.6884 6.51604 -24.8718 -0.114086 -0.645497 0.793695 
6841 1 12.1718 23.2004 2.43164 -7.47178 -0.960985 0.876141 -0.894624 
8041 1 9.69564 26.0301 5.33601 -7.66825 -2.56166 -1.77803 0.0625527 
9541 1 9.44023 26.2905 2.65291 -7.08862 0.682627 0.549003 -0.557431 
11341 1 12.0283 23.0877 5.09526 -7.50242 1.45448 0.80934 0.681867 
12541 1 9.29849 23.2943 5.29825 -7.33258 0.804522 0.216368 -0.31979 
14341 1 12.0305 25.963 2.32896 -7.92308 0.845604 -0.419035 0.820322 
15841 1 12.2405 25.83 5.18874 -7.39706 1.64571 0.528646 -0.0246707 
17041 1 9.20266 23.4419 2.57699 -7.12637 2.35089 0.52221 -0.785489 
3841 2 13.5858 21.8694 3.76111 -25.7087 -0.825689 -0.577943 -1.59498 
5342 2 13.6579 24.4725 6.55719 -25.0091 -2.44307 0.467356 -0.967937 
16081 1 17.7572 20.5754 4.96819 -7.81585 -0.364678 -0.433304 0.94895 
9781 1 15.1352 20.5589 2.40216 -7.88295 -2.04348 -0.722723 -0.534214 
14581 1 17.731 20.4797 2.27638 -7.64045 -1.30685 0.15069 -0.633459 
8281 1 15.0177 20.5144 5.12223 -7.55769 0.405788 -0.235429 0.390878 
1142 2 16.3755 21.8975 6.34782 -24.7773 -0.0333651 -1.29439 -0.767812 
2641 2 16.3169 24.5039 3.62618 -24.9326 -0.674116 1.52742 -0.393006 
4141 2 19.0182 21.8716 3.45365 -25.1863 -0.275764 -1.49666 2.61243 
5642 2 19.1567 24.512 6.29706 -25.137 -0.545331 0.837457 0.718241 
7141 1 17.549 23.177 2.24595 -7.74686 -0.498001 0.468578 -0.480726 
8341 1 14.9433 25.9125 4.94931 -7.69213 -0.109671 -0.66492 0.414093 
9841 1 14.7923 26.4384 2.19115 -7.05445 0.0662367 -2.76999 0.704858 
11641 1 17.7941 23.2938 4.80859 -7.84801 0.263814 -0.186737 1.61119 
12841 1 14.9707 23.1756 4.87237 -8.05644 0.146974 0.732364 1.77205 
14641 1 17.5677 25.9604 2.2336 -8.34286 -0.821859 0.00491641 -0.807587 
16141 1 17.6114 25.9694 4.88197 -7.40591 0.246139 -0.2065 0.756841 
17341 1 14.7952 23.3676 2.21074 -7.6272 0.697742 0.524232 -0.131531 
8641 1 20.3915 25.9254 5.07824 -7.78379 -1.38475 -1.28626 -1.07062 
9842 1 14.9999 25.8355 7.72383 -8.10133 0.819271 0.0346573 -0.957732 
17641 1 20.2804 23.119 2.26197 -7.99828 0.395698 2.37325 0.113883 
10141 1 20.2293 26.0813 2.38514 -7.33722 -0.32293 -1.26177 0.25071 
10142 1 20.4344 25.8934 7.83359 -7.06206 1.74413 1.27918 -1.01126 
14582 1 17.348 20.4895 7.82069 -7.66659 1.32918 -0.915209 -0.546361 
14642 1 17.8858 25.9273 7.67838 -7.49598 -1.99921 -0.453207 -0.253763 
7142 1 17.86 23.0848 7.58563 -8.25738 -1.04237 1.17192 0.0751454 
17342 1 14.9359 22.9676 7.62661 -8.15124 0.00985248 1.04764 0.0898198 
1202 2 21.6559 27.1647 6.29386 -25.4971 1.57833 1.10475 1.57381 
10381 1 26.0813 20.6593 2.52887 -8.01329 -1.59874 0.147784 -1.16747 
242 2 27.238 21.9325 6.32349 -24.9407 -0.405126 -1.55937 0.31106 
1741 3 27.0783 24.5562 3.59873 -28.7287 1.18673 1.11618 0.114888 
16381 1 23.3107 20.5523 4.76282 -7.51908 -0.524113 -0.662398 0.704088 
13141 1 20.5963 23.0782 5.01144 -8.00371 -1.80662 1.0911 -0.156294 
8881 1 25.9599 20.5147 5.18015 -7.32701 -0.451475 -0.037538 -0.721853 
1442 2 21.8143 21.7974 6.30457 -25.2205 1.81934 -0.45394 -0.0885787 
2941 2 21.607 24.5396 3.58339 -25.5308 2.27648 0.829563 -0.415794 
4441 3 24.6137 21.8115 3.57149 -28.5489 -1.10379 0.707053 1.02304 
5942 2 24.6302 24.4519 6.36117 -25.1384 -1.29294 1.17235 -0.278592 
7441 1 22.9877 23.0752 2.34564 -7.01072 0.959703 0.408119 1.08001 
8941 1 25.8421 25.9558 5.13989 -7.89298 -0.543324 -0.403189 -0.841262 
10441 1 25.684 25.9105 2.36006 -6.7274 0.40862 0.321846 1.483 
11941 1 23.2569 23.1906 4.93111 -7.0933 0.950774 0.19556 0.970926 
13441 1 26.0581 23.2652 4.91528 -8.23532 -1.12021 -0.549431 1.38958 
14941 1 22.9641 25.9442 2.03077 -6.70092 -0.252088 -1.35946 1.11564 
16441 1 23.0301 25.928 4.9086 -7.10019 0.536871 -1.11099 -0.686676 
17941 1 25.8637 23.3614 2.37014 -8.14636 0.122281 -2.22477 -0.672202 
14942 1 23.3046 25.9051 7.61393 -7.42378 -0.40939 -0.647655 1.07291 
7442 1 23.1954 23.1575 7.70515 -7.75187 0.67632 -0.819822 -0.685255 
10082 1 20.4824 20.6215 7.75278 -8.06202 -0.738341 0.254054 -0.306696 
363 2 5.50371 5.69617 11.7575 -25.2779 1.07136 0.190785 -0.200478 
1802 2 5.46576 2.91823 9.14351 -25.0366 -0.673842 -0.556415 -1.11552 
3062 2 2.74971 5.60647 9.04821 -25.0518 0.127377 -0.133901 -0.630026 
4503 3 2.67878 2.95025 11.7121 -28.5373 -0.170635 -0.333063 0.265073 
6003 1 1.36207 1.47254 13.0847 -7.95002 -0.415785 -0.602274 1.04341 
7502 1 4.1918 4.49978 10.3374 -7.94356 0.333923 -2.02168 1.62855 
9003 1 4.20396 4.40356 13.3974 -7.33079 -1.13621 -1.33853 -2.26867 
10502 1 1.29108 1.56929 10.446 -7.20662 1.61278 -1.19452 0.334151 
12002 1 4.07319 1.7076 10.5209 -7.89283 -0.121079 -0.359022 -0.613664 
13503 1 1.38421 4.22878 12.9981 -7.52197 1.33276 -2.4357 0.600746 
15002 1 1.45727 4.22289 10.3798 -7.62958 0.890396 -0.534967 -0.212422 
16503 1 3.9261 1.7554 13.0679 -7.5573 -0.239301 -1.0397 0.933596 
6303 1 6.54662 1.67555 13.2331 -7.25598 0.748485 -0.0690337 -0.775485 
10802 1 6.83494 1.33369 10.6133 -7.43515 -2.21412 0.88368 0.185557 
303 2 5.28312 0.187418 11.8395 -25.5847 1.17974 0.562781 0.968528 
6302 1 6.80583 1.39554 8.0014 -7.56894 -2.44314 1.79778 -2.15629 
13803 1 6.72901 4.28781 12.9803 -7.59868 0.980412 -0.093181 -1.21655 
1502 2 0.115636 2.89843 9.15487 -25.8072 -1.35321 -1.24064 -0.691316 
6063 1 1.49148 6.72703 13.1301 -6.93828 0.987897 2.32685 0.248989 
10562 1 1.498 6.75785 10.4632 -7.72996 -0.329646 2.74227 -0.772336 
16563 1 4.25831 6.86103 13.0884 -7.35831 -0.874828 2.77691 0.46743 
3063 2 2.75748 5.57848 14.5457 -25.5121 0.213158 1.30395 -1.11283 
1803 3 5.30632 3.05573 14.417 -29.4566 0.177501 -2.06532 0.0545911 
3003 2 2.69851 0.275356 14.6091 -24.4025 0.350366 -0.515869 -1.07049 
6602 1 12.0742 1.46647 7.85576 -7.15067 0.0261958 -0.0101916 0.937077 
9302 1 9.34605 4.19257 7.85868 -7.53728 2.75772 0.765103 -0.141585 
3303 3 7.92668 0.274833 14.4961 -29.5857 1.67422 -1.39694 -0.159517 
15302 1 6.9617 4.0736 10.2355 -7.94468 -0.421158 1.70619 0.94152 
663 3 10.7259 5.5202 11.7713 -28.8009 1.10032 1.4894 1.0488 
2102 2 10.8751 2.91918 9.14118 -24.9565 -1.11394 0.468082 -0.960927 
3362 3 8.30015 5.66174 9.20473 -28.589 -0.532885 0.161172 -0.535864 
4803 2 8.04777 2.74494 11.7603 -25.1256 -0.474771 1.94096 2.34687 
6603 1 12.2573 1.63833 12.9831 -7.6694 0.293688 -1.50767 1.74016 
7802 1 9.54991 4.58652 10.4414 -7.54705 0.499424 -1.62263 0.0554576 
9303 1 9.4802 3.99886 13.0972 -7.74503 -0.074414 -0.105031 -1.12237 
11102 1 12.1417 1.62875 10.5314 -7.9563 1.09813 0.23136 -1.72468 
12302 1 9.34554 1.75905 10.4033 -7.94223 2.72679 -1.40291 -0.333211 
14103 1 12.2964 4.22129 13.3684 -7.52099 -0.58349 0.765373 -1.08631 
15602 1 12.1893 4.38988 10.5273 -8.44517 0.910707 -1.43888 -0.513962 
16803 1 9.3744 1.30207 13.1713 -7.71312 0.0639434 0.999005 -0.651332 
16863 1 9.61241 6.63821 13.014 -6.45977 0.854738 0.134873 0.391864 
3662 2 13.5338 5.58617 9.11121 -25.1984 -0.222705 -1.02084 0.959451 
3302 2 8.03773 0.163361 9.19277 -25.3961 1.40489 -1.63482 1.47864 
3602 2 13.5918 0.284377 9.01284 -25.0929 -0.927831 -2.44352 1.99253 
603 2 10.8533 0.253353 11.7739 -25.0662 -1.30422 -1.14117 1.34962 
3363 2 8.05501 5.39484 14.4698 -25.9021 1.23014 3.03429 -1.39688 
2103 2 10.8773 2.87366 14.4065 -25.2241 0.16226 -1.46684 1.07098 
3963 2 19.0529 5.56977 14.5107 -25.3161 -0.967653 -0.320365 -1.04658 
5103 2 13.68 2.9729 11.7136 -24.9037 0.3486 -0.049847 1.28754 
963 3 16.328 5.59293 11.9462 -30.0431 -0.507078 1.27155 -0.968242 
2402 2 16.4226 2.7284 9.18765 -25.2982 -0.902134 2.22427 -1.28949 