ITEM: TIMESTEP
0
ITEM: NUMBER OF ATOMS
18000
ITEM: BOX BOUNDS pp pp pp
-2.2994656813087921e-01 2.7570946568130928e+01
-2.0486019815283463e-01 2.7545860198152660e+01
-2.8022268360428200e+00 3.3089422683604477e+02
ITEM: ATOMS id type x y z c_peratom fx fy fz 
362 3 5.54809 5.33998 2.80612 -29.0791 -0.122818 -1.18457 -1.16622 
1801 2 5.26504 2.98292 -0.204691 -23.8369 2.31743 -0.308961 2.18108 
3061 3 2.67691 5.29017 0.202562 -27.8408 1.06467 1.8909 1.95805 
4502 2 2.6067 2.57147 2.76921 -23.6266 2.90681 -0.0893489 -0.221958 
7501 1 3.95404 4.21544 1.59947 -7.5909 -1.09904 -3.08393 -0.35773 
9001 1 0.992617 5.12797 -0.65355 -7.12588 -0.990911 0.674164 1.18335 
12001 1 3.85055 1.58237 0.972436 -8.43796 -1.25233 -0.544551 0.0576481 
13501 1 0.898458 3.415 1.60115 -8.35324 2.84105 0.476798 0.0856187 
10801 1 3.22858 0.795414 -2.08815 -7.702 2.4725 0.203444 -0.591306 
62 2 0.119135 5.25149 2.87738 -24.8684 0.16696 -0.0404246 -1.08106 
1501 3 -0.0724675 3.17991 -0.14913 -28.6933 -1.88245 -1.46956 -1.36631 
6062 1 4.42939 6.72415 4.04294 -8.39497 -1.35023 1.26996 0.668286 
13741 1 0.94104 1.2948 -1.01943 -7.37589 0.515115 1.71539 1.50985 
10561 1 1.79083 6.35546 2.01668 -7.20647 -0.056806 -0.511493 -0.145783 
16502 1 3.88088 0.805032 4.03133 -7.49937 2.58339 2.81936 -1.93052 
6302 1 6.70655 3.40193 -1.98542 -7.42753 -2.89567 1.02858 0.24601 
13802 1 6.66043 1.99315 1.45307 -6.89805 -0.551157 0.624425 -1.1291 
15301 1 6.64858 4.64683 0.971415 -7.34528 -1.05794 -0.338997 -0.888557 
9061 1 3.41709 3.71599 -1.17843 -8.42188 1.88734 0.361971 0.558662 
15362 1 4.35049 6.54262 1.25596 -6.80754 3.67713 2.76742 -0.515897 
13260 1 1.06504 3.7315 -2.69005 -6.93035 -0.164983 -1.97543 -0.503709 
302 2 5.92598 0.231484 2.7915 -25.0934 -3.40823 -1.60587 -2.7254 
3001 2 2.80578 -0.115356 -0.115434 -24.4202 -0.461346 -1.314 -0.702129 
15001 1 1.39976 1.07336 3.93564 -7.73608 -0.730327 0.298024 -1.84784 
1 2 0.0448629 -0.0449704 -2.41301 -24.9675 -1.79792 1.06905 -2.62286 
9301 1 12.4919 4.04808 -1.53421 -7.89308 -2.30119 0.362394 1.08481 
13801 1 9.58564 4.29021 -2.25387 -6.33664 1.71102 0.852291 0.457015 
662 2 11.6446 5.07366 2.92213 -24.219 -1.66468 -1.27919 0.897788 
2101 2 11.0954 2.88735 -0.0855747 -23.6393 -1.33056 -1.5125 -1.90689 
3361 2 8.39515 5.21115 -0.22268 -25.0264 -0.847693 -1.42898 -0.522567 
4802 2 8.69826 2.62949 2.71925 -24.2516 0.254845 0.423218 0.597626 
6601 1 12.0469 1.27928 -1.58455 -7.32341 1.56588 2.31757 1.25828 
7801 1 9.8181 4.55392 1.56329 -8.20104 -0.127278 -2.19481 -1.53754 
14101 1 8.79968 2.74116 -0.546869 -7.32088 1.83037 -1.43299 2.98796 
8101 1 12.3455 3.27441 1.61233 -8.11111 1.03769 1.59543 -0.456149 
12301 1 9.75675 0.470652 -1.84288 -7.56291 -3.2025 -0.510962 0.91304 
16801 1 6.95379 0.755981 -1.4852 -7.58206 -0.619561 -0.51668 -0.578775 
15601 1 12.2825 6.5749 -1.95162 -8.08782 -0.357664 0.593739 -0.292512 
8041 1 10.4772 1.28484 3.93804 -6.52934 0.356426 -0.791246 -1.20984 
6602 1 13.0492 0.77188 2.45224 -7.44528 -0.361764 -2.46863 -0.358042 
10560 1 6.7304 6.41537 -1.4503 -8.056 -0.772733 -1.2832 -1.44639 
6662 1 11.9486 6.5095 1.37486 -8.32955 0.183545 1.32511 -0.875384 
3301 3 8.41385 0.152221 0.0290511 -27.749 -0.821601 -0.332881 0.756801 
15841 1 10.5427 1.00342 1.12491 -7.85684 -2.07202 0.610361 -0.957812 
14042 1 8.03992 0.490153 2.79916 -6.46235 6.1316 1.56821 -1.17314 
9302 1 7.04674 3.61566 3.85677 -7.57224 0.483736 -0.8883 -0.0478557 
6362 1 6.98922 6.43213 3.594 -6.75618 -1.58223 0.836326 2.56547 
4801 3 8.34718 1.90839 -2.71326 -27.9642 -0.808582 1.80985 0.343816 
11101 1 15.5551 0.856706 0.925698 -7.71146 -2.17233 0.32045 -0.318966 
3661 3 14.2945 5.60188 -0.329267 -27.4968 -0.887208 0.412925 2.3572 
5102 2 14.2339 2.46284 2.64201 -23.6087 -1.70609 5.05977 -2.25366 
15660 1 14.5688 0.838502 -1.67472 -7.30589 1.28281 2.71701 -1.86143 
17101 1 17.8808 1.22026 -1.29549 -7.51515 -0.615348 -3.60915 -5.38158 
962 2 16.8238 5.54442 2.78392 -26.097 -4.2978 -2.83542 -1.39839 
2401 2 16.9869 2.45258 0.00563049 -24.9049 -2.63653 2.78931 1.04793 
3961 3 19.5572 4.93673 -0.415586 -28.2358 -2.35259 -1.17037 1.97967 
5402 2 19.5281 2.54813 2.51571 -24.3779 -2.27861 1.23675 0.647087 
9601 1 14.3909 5.66932 2.23309 -6.16984 -4.1242 -3.20728 -0.149375 
11401 1 18.1775 0.48316 1.42495 -6.90187 0.742148 1.48487 1.68543 
12601 1 16.2166 3.09521 1.9912 -7.6052 1.13998 2.03959 0.290192 
15901 1 18.0718 3.9191 -1.56661 -7.21916 2.16298 2.36979 -0.226321 
17161 1 14.835 3.6944 -0.628414 -7.29206 1.19496 -0.84113 0.903786 
6902 1 15.2467 1.2117 3.87782 -8.49531 1.55105 -1.57632 3.41797 
15661 1 15.6475 6.09106 -1.62482 -7.82026 -0.466803 1.13139 -0.191878 
6961 1 18.3251 6.7269 -0.727089 -6.8015 -1.30649 2.20461 -1.61702 
17103 1 18.4609 4.98443 1.24138 -6.52128 -0.894816 -0.786712 2.06209 
6962 1 18.218 6.68169 3.68024 -6.86028 2.19998 2.3446 0.750362 
14641 1 20.4368 1.22751 -1.52305 -7.26622 2.05264 -0.660663 -2.00177 
17402 1 19.1626 2.68344 0.309631 -6.90595 0.87471 -0.857714 2.06839 
901 3 16.3415 0.00860799 -2.68233 -28.3324 -0.161456 -0.059608 1.85704 
3901 3 19.3237 0.112619 -0.175784 -29.8027 0.532858 -2.26919 0.00872646 
14402 1 18.0621 1.06931 4.08108 -7.53888 0.668175 -0.503132 -1.51858 
8402 1 18.0411 4.024 4.14525 -7.40232 2.84229 -0.771266 -2.31236 
5101 2 13.808 2.78982 -2.7048 -24.4571 2.3164 -3.30147 2.05498 
6001 1 26.9871 1.22095 1.31572 -6.37112 0.619815 -0.536231 2.57771 
6901 1 20.9757 3.73851 -1.696 -8.82125 -0.935533 0.923135 0.36359 
11520 1 20.7489 6.43524 -1.00172 -8.80285 3.06309 -0.408308 -1.23395 
9901 1 23.7249 4.07436 -1.38874 -7.7995 -3.06047 2.9228 1.84711 
8401 1 21.1252 3.7244 1.39417 -8.27377 0.804844 2.25196 0.0683086 
12901 1 21.5465 0.497606 0.597693 -7.35596 0.852592 0.80383 2.48822 
6061 1 26.2285 4.71118 -1.6145 -8.00248 0.183697 -0.951145 -0.508515 
1262 2 22.3136 4.97206 2.88041 -24.9467 0.538602 2.78157 0.310139 
2701 2 22.2239 2.66845 -0.131229 -24.6447 0.440069 -2.80048 -2.08987 
4261 2 25.2932 5.92128 0.0825824 -23.8138 -1.45821 -5.12776 1.24794 
5702 2 25.3518 2.56588 2.79444 -25.5585 0.444692 -2.16009 0.472574 
8701 1 26.272 4.1351 1.118 -7.39222 -0.85305 0.122601 1.27693 
14701 1 23.6876 2.67893 1.48578 -7.3379 -1.40932 0.823309 0.30247 
8760 1 23.5227 1.24357 -1.32388 -7.03251 -2.17908 -1.37339 -0.926733 
15241 1 24.6673 0.299771 2.35408 -7.14156 -1.2191 -0.923737 -1.09977 
8941 1 25.887 1.86832 -0.897717 -6.36911 2.36518 0.2589 -1.12109 
12902 1 21.0207 1.40473 3.43764 -6.95853 -0.0526595 -1.10132 0.384709 
16202 1 26.6271 3.77747 4.04074 -7.71668 1.12708 2.43923 -0.258589 
16201 1 23.7624 6.17531 1.48923 -7.45062 -0.948398 -1.11944 0.243292 
1202 2 22.3394 -0.00819677 2.65308 -24.6535 2.45088 -2.69309 1.00607 
1261 2 22.0182 5.33929 -2.68314 -23.5402 1.23017 -1.89904 -0.960328 
5701 2 25.0997 2.98071 -2.54579 -25.058 -0.698738 -2.18247 -2.60447 
16562 1 2.75561 7.39079 -0.436839 -7.69636 -1.70666 1.35682 -3.31884 
4561 3 2.75822 8.45601 -2.48992 -26.8204 2.03068 -1.34222 -2.34024 
16621 1 2.48654 12.5316 -1.21196 -7.08595 -1.22426 0.661297 -1.80657 
12061 1 3.37491 11.0164 2.06163 -7.34022 0.749642 -0.57712 -1.51573 
422 2 5.6221 10.9717 2.77418 -26.2969 1.26554 0.339215 0.8946 
1861 2 5.78646 7.78206 -0.156757 -24.0722 -0.254563 1.0764 0.674582 
3121 2 3.09302 10.9075 -0.142082 -23.2494 1.5721 -0.431617 1.95014 
4562 2 2.77883 8.19707 3.08981 -23.6782 -0.21958 -1.87481 -1.68835 
12121 1 3.95831 13.6122 0.872323 -6.9479 -0.810833 2.0054 0.729102 
13561 1 1.37369 9.08442 1.51142 -8.23272 -0.857139 1.35276 -0.45364 
13321 1 1.06182 12.4716 1.48872 -7.40717 0.157171 -1.22868 -0.0743254 
15480 1 5.17623 11.8048 -0.5557 -7.39545 -0.0187825 -1.29733 -2.51899 
12662 1 6.22224 9.51095 1.01752 -6.73374 -1.73162 -0.58098 3.20789 
1621 2 0.219522 13.6468 -0.355695 -24.9448 2.45545 1.58404 2.40126 
10921 1 6.48837 12.7112 1.75762 -7.53041 0.489299 1.71004 -0.731828 
122 2 0.0726543 10.8988 2.96461 -24.1123 -1.92283 3.70567 -0.749789 
1561 2 0.452468 8.21043 -0.26484 -22.9877 -0.136919 -3.35655 0.886909 
8820 1 1.54582 9.79759 -1.53049 -9.73877 -1.49215 -0.622287 1.73426 
4622 2 2.82746 13.5025 2.65663 -25.2998 -1.37694 0.135911 -0.00805857 
7561 1 4.47012 9.55354 4.01944 -7.8602 -4.12976 -1.97927 -0.408788 
13861 1 4.62032 9.1755 -1.68246 -7.71705 -0.581311 -0.736255 3.52606 
421 2 5.84351 10.8244 -2.63582 -24.8139 -2.06236 -1.33688 2.26671 
9062 1 1.41137 9.76441 4.1187 -8.81333 1.97268 -3.43839 -0.0642991 
12122 1 4.03356 12.575 4.11899 -6.75233 -0.447924 -1.4156 -0.923312 
8761 1 0.707148 7.38437 -2.7748 -8.49025 1.0146 1.04306 0.475954 
10861 1 7.95374 7.07761 1.25277 -6.67656 -0.964964 0.217316 -3.31704 
12361 1 9.36053 6.79223 3.89835 -6.92192 3.56807 -1.33253 2.49411 
16861 1 9.32477 6.92688 -1.23927 -7.96751 1.09464 -2.00553 -0.9146 
6421 1 7.30641 9.64346 -1.16137 -6.99818 0.783086 -0.564048 -2.81716 
15719 1 12.5908 9.63241 -2.15158 -7.12775 -0.996887 -1.08391 1.05963 
722 2 11.2831 10.7465 2.84956 -24.4367 -1.65441 0.475897 1.3409 
2161 2 11.094 7.75795 -0.357008 -23.774 3.99375 0.800155 2.13257 
3421 2 8.89192 10.4649 0.380672 -24.6907 -2.1192 1.54553 -0.370808 
4862 2 8.42868 8.3309 2.88691 -25.005 -3.30894 1.08565 1.83846 
7861 1 9.83184 9.29608 -1.20751 -8.14016 2.41909 1.09 -1.92798 
16921 1 9.63238 11.9084 -1.32003 -6.79004 0.0121053 0.740229 0.308993 
6721 1 12.4901 12.3229 -0.864332 -7.02939 -1.72184 0.874819 -1.29505 
12481 1 12.4087 9.68813 1.26029 -7.44317 2.10751 0.054661 -0.444016 
14102 1 10.0377 9.00592 1.73207 -8.02657 0.787306 0.463835 -1.43994 
8221 1 8.08723 10.8328 2.47797 -6.59435 2.30712 0.580718 -1.69712 
4922 3 8.1355 13.5198 2.73991 -28.8485 1.98713 -0.340637 0.758926 
9422 1 9.86626 12.2588 4.14519 -7.14408 -0.384658 -2.42629 0.962579 
13862 1 6.88184 9.46061 4.04123 -6.62583 0.949691 -3.50408 1.60119 
9662 1 12.5158 9.21441 4.08793 -8.62351 1.78358 0.163062 -2.18384 
17222 1 10.4342 11.9322 1.22971 -7.22661 -0.395995 -0.568912 0.183966 
5162 2 13.6439 7.85055 2.57897 -24.3625 1.45059 -0.665873 -2.18002 
11461 1 15.9914 6.88095 1.20815 -6.55931 1.79888 0.95958 -1.83564 
3721 2 13.8897 10.8932 -0.275942 -25.318 0.447141 -3.22461 0.837831 
12661 1 13.8025 7.62271 -0.347731 -6.88605 0.190284 0.0901154 0.28501 
11221 1 15.0311 12.2414 -1.67252 -8.19068 4.0213 0.549293 0.919913 
1022 2 16.6841 11.1666 2.94876 -24.2988 2.64321 0.293396 -2.87946 
2461 2 16.7827 8.37527 -0.0462563 -24.5275 0.578156 0.628249 -0.742789 
4021 2 19.6257 10.9904 -0.1166 -24.9642 -1.14925 1.00313 0.265423 
5462 2 19.6434 8.22173 3.02367 -24.7111 0.906051 -0.964179 0.426389 
8161 1 14.6632 12.462 1.28283 -7.76605 0.994646 -0.56487 0.36784 
11521 1 18.4383 12.7358 -1.45634 -7.33243 -1.2565 -1.1831 -1.08772 
15961 1 18.6061 8.8825 1.29717 -7.28822 -1.80253 0.556931 -1.89604 
7321 1 18.2105 9.89429 -1.56736 -7.79115 -0.600298 -0.571612 1.5379 
7021 1 17.9261 11.7029 1.12939 -7.21606 -2.28917 -0.866845 -0.555378 
9661 1 15.2996 9.76335 1.23866 -7.39316 1.30913 -0.0594011 0.598921 
14461 1 15.2688 9.65036 -1.60769 -7.6679 2.56505 -2.04125 0.664884 
7022 1 18.3643 12.3736 3.90755 -7.70323 1.75016 1.89722 -0.585045 
12961 1 20.4654 12.7938 1.22266 -7.24375 1.59441 -1.39503 -1.17699 
2521 2 16.4616 13.5296 0.033795 -24.7264 2.54358 -0.0625596 1.15465 
5161 3 14.0688 7.93534 -2.76446 -28.6355 0.285764 2.30883 0.476242 
17162 1 15.323 7.27372 3.94708 -6.86196 -0.155197 0.899053 0.76191 
11522 1 15.9002 12.8451 4.0578 -7.0706 -2.93294 -2.13006 -2.03075 
5461 3 19.5834 7.69089 -2.52609 -27.562 0.282407 2.59436 0.684741 
7620 1 26.3139 7.27996 -0.948287 -7.73926 1.09935 5.00158 -5.37763 
12960 1 23.5594 7.56528 -1.29634 -8.13418 -3.13283 -2.3163 4.44449 
17761 1 26.9109 6.73839 1.26793 -7.17981 0.707338 2.08427 2.56569 
17520 1 20.8808 9.11433 -1.37078 -8.43851 -1.46391 1.10734 -0.179645 
17762 1 26.9135 6.82854 3.92851 -7.95705 -1.51867 1.40726 1.15009 
14401 1 21.0152 6.96892 1.97324 -7.38313 0.646531 -1.47504 -1.71027 
11881 1 21.0609 12.2654 -1.44371 -8.59598 -0.209739 0.474271 0.323627 
17461 1 21.0348 9.92853 1.34284 -8.10105 -1.91375 0.376394 -1.42501 
7261 1 25.9008 10.0046 -1.55506 -7.46246 0.593884 -1.19994 0.824769 
9961 1 23.3638 8.86239 1.81393 -7.08097 1.47896 0.43249 -0.547146 
1322 2 22.235 10.864 2.78865 -24.2192 2.57697 0.833124 -1.90281 
2761 2 21.8495 8.17904 0.290919 -24.4336 2.1328 -1.643 0.561699 
4321 2 24.8805 11.5304 0.106271 -24.9126 1.04831 -0.630205 -1.53185 
5762 3 25.4325 8.62649 2.79544 -26.4127 -2.16357 -0.656165 1.31348 
11821 1 23.4267 12.3494 1.49823 -7.80756 -0.619706 0.103958 0.263723 
8821 1 26.6457 12.4587 -1.39604 -8.03919 -0.132342 -1.40473 -2.57524 
10262 1 26.1631 10.1898 1.6495 -8.5529 1.13807 -1.27283 -0.728992 
14761 1 24.0464 13.5302 -0.824723 -7.77314 -0.248989 -1.45299 -1.11051 
11761 1 23.1633 10.5469 -1.17037 -7.30585 1.79287 -0.213984 2.11139 
7322 1 21.0666 12.2196 3.89607 -8.12562 0.0440766 3.64593 0.0569536 
14762 1 23.4102 13.4609 4.02856 -7.86401 2.52192 -0.221803 0.104428 
13322 1 26.2701 12.5546 4.00082 -6.84557 -1.60888 0.457046 0.133908 
8762 1 26.1664 13.0655 1.08537 -6.87512 -0.279793 -0.383497 0.248471 
5761 3 24.6875 8.0757 -2.44317 -26.8903 3.10046 3.16257 -4.58715 
13262 1 24.1898 10.5196 3.60145 -7.67251 -0.570499 -0.974959 0.396487 
1321 3 21.9199 10.7798 -2.5492 -27.818 1.20144 -1.31456 -3.0696 
9121 1 4.90609 14.7574 -1.63944 -7.92236 -0.786933 1.98107 0.371617 
1921 3 5.59666 13.7535 -0.13421 -28.1496 2.31334 -0.77216 1.4958 
10621 1 1.81493 17.9173 -1.38664 -8.62345 -1.95547 0.416616 -1.83309 
482 3 5.80546 16.4206 2.81592 -29.0651 2.09722 0.210462 -1.47729 
1981 2 5.68961 18.9235 0.14803 -24.9803 -2.10011 0.666575 -1.55475 
3181 2 2.98069 16.6146 -0.211423 -23.4378 -0.330669 -2.04345 1.91757 
4682 3 2.89602 19.2484 3.06805 -27.7951 -2.23766 -2.29047 -0.680643 
12181 1 4.52808 17.8363 -1.60993 -8.7337 -0.320863 -0.493963 0.496819 
15121 1 1.342 15.193 0.957893 -7.65127 -0.00288887 1.09789 1.05544 
7921 1 6.57369 15.5045 1.17894 -7.33591 -0.581436 -1.94506 -2.39113 
9122 1 4.03155 19.9655 1.72633 -7.04255 1.17474 0.902778 1.15982 
10682 1 1.50179 18.0294 1.31387 -7.64228 0.436187 -0.370309 -0.114416 
14821 1 1.7234 14.9283 -1.59897 -7.32126 -0.000378754 2.23363 -1.54833 
1681 2 0.130237 19.4636 0.0337234 -24.8565 -1.20061 -1.43918 -0.634386 
182 2 0.255317 16.4655 2.49369 -24.7769 -0.269545 0.113342 0.304039 
10981 1 4.51495 17.3239 1.33178 -7.88677 -1.45995 -0.977114 -1.80397 
15181 1 1.2244 17.8335 4.00784 -7.17319 -0.806639 -0.890762 -1.44035 
7621 1 2.14796 15.2693 3.78662 -7.09633 -2.04805 -0.607036 0.472285 
12182 1 4.07803 17.2828 4.06357 -8.43598 1.74851 4.23858 0.842494 
15422 1 4.80797 14.9302 3.52265 -6.67332 0.277277 -1.42038 0.303052 
9181 1 4.02356 20.4998 -0.957891 -8.03429 0.63384 -0.327286 -1.57259 
4681 2 2.9082 19.496 -2.65385 -24.5082 -0.75752 -1.24293 -1.41587 
2221 2 10.9788 13.7575 -0.188874 -25.5415 0.468811 -0.511108 0.71837 
14521 1 12.1079 14.2769 1.78211 -7.46523 2.06702 -0.0352368 -0.651554 
10982 1 8.49431 16.7128 2.31526 -5.54046 2.43695 -0.747079 -0.825454 
11040 1 7.26653 17.2754 -1.3699 -8.3202 -0.783593 -1.1387 -0.342212 
6481 1 6.87015 18.4952 1.82012 -6.49451 -3.43225 -1.48357 0.0280396 
7740 1 6.88473 19.979 -1.66397 -8.64126 -0.0794788 0.714265 1.61925 
8040 1 9.92673 17.9102 -2.21152 -6.83012 -2.96771 1.92202 1.97293 
10980 1 7.61319 14.2066 -1.1723 -7.73673 -1.53421 0.445333 0.0188892 
9421 1 12.9737 15.1428 -1.15077 -6.72351 -0.140355 -4.47446 -1.25106 
15421 1 9.41727 14.4216 1.23406 -7.6062 -2.18377 -0.787762 -0.432365 
16981 1 10.5649 16.4405 0.306411 -7.63185 -0.91686 0.43919 0.881239 
12421 1 9.95878 14.8507 -1.90906 -8.07247 1.34363 0.67786 2.29052 
782 2 10.9572 15.8919 2.65772 -25.7704 -1.0127 1.10526 1.1733 
2281 2 11.2148 18.5466 0.191036 -24.6757 -0.196254 0.754079 -1.19304 
3481 3 8.45843 15.8827 -0.195025 -28.0475 0.0540195 0.845582 1.95273 
4982 2 8.63177 18.986 2.74122 -24.7563 -0.469954 -1.10543 1.07996 
6781 1 12.8354 17.314 1.9504 -7.67725 -1.15502 -1.95741 -2.60054 
7980 1 12.5351 17.3893 -1.16034 -7.17728 0.463683 4.0109 -1.87471 
7922 1 9.80933 14.6411 4.01481 -6.45732 0.536401 2.38303 -0.131703 
14281 1 12.1858 20.0074 -1.2773 -8.15947 3.10146 1.87129 -0.263125 
16982 1 10.1724 17.8075 3.81779 -7.45919 -1.93112 0.714557 -0.744282 
12422 1 7.32493 14.6608 4.09324 -7.28209 -1.38933 -0.0553397 0.536499 
11281 1 11.7118 19.8675 1.9495 -7.7914 -1.44804 0.00416852 -0.315838 
5282 2 13.4624 18.9858 3.19512 -25.4728 1.4182 0.954026 0.171745 
11341 1 9.1669 19.2678 0.657915 -7.61904 0.334329 0.731393 -0.891395 
5281 2 13.6461 19.1754 -2.80152 -24.0095 -0.133459 -1.38633 -1.9125 
13982 1 6.88223 20.2267 3.89645 -7.11989 -2.02277 0.0851761 0.489887 
9423 1 9.33203 20.5434 4.08529 -8.21059 3.80465 -0.879474 0.638574 
5222 2 14.135 14.0331 2.91301 -24.313 -2.78369 -2.07647 3.63012 
12781 1 14.3528 19.3047 0.751782 -7.669 1.10925 1.02032 -0.967264 
17221 1 15.7943 14.9919 -1.43065 -7.99023 -1.29099 0.334522 -1.35003 
5522 3 19.8913 13.9833 2.5412 -27.8324 -3.43679 -0.401917 0.0856088 
14221 1 15.2419 17.7363 -1.83807 -8.4597 -0.193849 0.820514 2.06626 
3781 2 14.1314 16.5287 0.0189669 -24.1154 1.47482 0.0476854 0.86735 
1082 2 16.9081 16.1729 2.79975 -24.9669 -0.044744 0.621375 1.21545 
2581 2 16.6107 19.2935 -0.247602 -23.646 -2.06438 -3.47179 0.621238 
4081 3 19.2957 16.7338 -0.0731281 -27.9878 0.353546 1.04181 1.93562 
5582 2 19.3523 19.2656 2.88445 -24.9294 -1.47958 1.75419 2.39935 
7081 1 19.5331 16.2188 2.2993 -6.98265 -3.03498 -0.334894 -0.761487 
17281 1 15.1053 17.4798 3.67505 -6.91755 1.12844 1.34733 -0.115115 
8521 1 17.6271 14.2624 1.94966 -7.1443 1.27376 0.388219 0.167325 
13081 1 18.2165 18.2173 -1.80975 -8.89345 -4.4636 -2.32734 2.65038 
11880 1 18.4017 15.3015 -0.819663 -6.93936 -0.0852135 0.279152 -1.50091 
10022 1 15.2696 14.9999 1.53006 -8.23189 -0.0935812 3.60543 -3.07034 
16081 1 16.8655 17.2406 0.803138 -7.83695 0.0906159 -0.0602453 -0.737555 
17881 1 19.9981 18.4857 1.13229 -6.86817 0.530628 -2.66236 -2.9251 
8581 1 17.4442 19.7443 1.66259 -7.29145 0.0614593 1.77959 0.674563 
13082 1 20.6029 17.742 4.06535 -7.6495 1.89813 1.44543 0.70452 
1081 2 16.7497 16.6091 -2.79988 -23.2308 1.84934 -2.49093 -0.731171 
9781 1 15.3615 20.429 -1.80393 -8.45236 -3.56267 0.160614 1.14467 
5521 3 19.6925 13.7397 -2.7783 -27.8924 -1.13128 0.807761 -0.981414 
5822 3 24.8614 14.0012 2.57932 -27.6527 0.136822 -2.12909 -0.374296 
11581 1 22.6427 18.1414 1.84427 -7.42209 -0.233792 0.931497 0.444449 
10021 1 24.1248 15.6546 -2.05486 -7.5054 -1.74005 0.217792 -1.26116 
13021 1 20.8223 15.2255 0.585491 -8.10709 0.724466 0.940695 -0.284578 
7381 1 26.663 15.2646 -1.44093 -8.05813 1.47381 0.00233303 0.442863 
2821 3 22.1097 14.1461 -0.387167 -26.9382 1.03407 -2.89204 1.32757 
16322 1 21.4126 14.9462 -2.09483 -8.73176 -0.781807 -1.06843 1.47105 
17582 1 26.5044 17.7084 0.854212 -7.40922 0.670783 0.0323829 0.483043 
10681 1 26.6771 18.4644 -2.01006 -7.1644 3.16423 -2.7199 1.87361 
1382 2 21.7557 16.2952 2.43719 -24.3744 -0.404258 1.75653 2.01947 
2881 2 21.9988 19.3365 -0.0727673 -26.2011 -0.22179 -0.59009 0.238392 
4381 2 25.0128 16.2148 -0.279338 -23.9825 1.94791 0.59682 2.73015 
5882 3 24.6725 18.6468 2.02978 -27.1794 1.1563 0.928626 0.0746038 
16321 1 23.3142 15.391 1.14805 -8.75205 0.986713 -0.581814 -0.412786 
8881 1 24.1664 18.2736 -0.0558249 -7.35836 0.773974 -0.305772 -0.557921 
13621 1 25.9752 15.4702 1.86339 -7.55146 -0.104399 1.4426 0.387524 
14881 1 23.0212 18.1552 -2.3449 -6.78524 -0.695809 0.930181 0.52374 
7382 1 26.6448 20.323 1.54762 -7.39694 -1.53733 -0.485789 1.76127 
17822 1 20.9163 14.9696 4.00567 -7.99618 0.643283 -1.49813 1.28412 
11882 1 23.5513 16.6784 3.8551 -7.03648 0.692178 -0.829974 -2.31849 
13622 1 26.0617 18.3563 3.95536 -7.50447 0.10351 -1.21642 -1.16782 
5881 2 24.8637 19.3216 -2.50781 -25.7319 -0.455781 1.67707 -1.81393 
8640 1 20.8272 20.2351 -1.7776 -7.7136 1.28937 4.42422 1.74827 
16381 1 20.6848 17.7792 -1.20753 -7.12448 0.716822 -2.78548 -1.18123 
14040 1 3.88026 22.983 -2.11209 -7.81479 0.801045 1.59478 -0.354228 
13681 1 1.21976 20.6602 -1.5213 -8.33635 0.206535 1.61724 2.18499 
6182 1 1.59044 20.7968 1.53553 -8.43768 -0.898239 0.667976 -0.386465 
13921 1 6.30978 20.9089 0.924277 -7.23665 1.97402 0.790229 -1.18107 
542 2 5.52797 21.8244 2.70978 -25.2801 0.748624 1.40618 0.000361772 
2041 2 5.84976 24.8892 -0.143429 -25.2788 -0.781867 0.0138014 2.93517 
3241 2 2.63578 21.9342 0.00992099 -23.9704 1.72856 1.53229 -0.742058 
4742 3 2.77539 24.4893 2.85795 -26.7291 2.20922 2.82525 -0.338642 
6241 1 1.42401 26.3549 -1.68572 -8.30072 2.0086 -3.2526 1.18723 
9241 1 4.46406 26.135 -1.58302 -8.37872 -0.830936 -0.955957 -1.41355 
12241 1 1.3112 23.9577 2.0186 -6.87086 0.840203 -2.36235 -1.98533 
16741 1 4.24617 23.226 1.10252 -7.23446 -1.93112 -0.188192 -1.62757 
15541 1 4.15682 26.2951 1.13398 -6.74505 -1.89613 -0.55725 0.283254 
10501 1 1.57374 23.6483 -1.03855 -8.21496 -0.967988 -0.156853 0.615407 
10441 1 1.0617 26.5837 0.938357 -7.21301 1.77397 1.18092 0.666825 
1741 3 -0.0256264 24.911 -0.253342 -28.6139 -0.418266 -0.624618 1.98104 
7681 1 3.89262 23.1008 3.6143 -8.15782 -0.193502 -1.75043 2.33079 
242 2 0.0948915 21.7844 2.83217 -24.8532 -1.92093 1.65041 -0.418913 
2 2 -0.0080227 27.516 2.91147 -24.6057 -2.40973 -1.04424 -2.12544 
12541 1 6.69526 26.9292 1.14708 -6.50663 0.972641 -2.20142 -3.88543 
541 2 5.54664 21.7021 -2.65842 -24.0921 0.863464 0.520555 0.751428 
15002 1 1.38731 26.0262 3.90525 -8.68346 1.78035 0.0960716 1.00136 
4741 3 2.82819 24.9028 -2.74372 -26.6971 -0.016827 0.579434 1.11543 
9481 1 9.81514 20.8937 -1.6555 -7.01097 -3.82781 -1.07933 1.3091 
5341 2 13.4739 24.7648 -2.7687 -23.9424 3.43727 1.23643 0.337054 
16682 1 6.84624 23.6351 1.66579 -6.65629 0.834081 0.970427 0.00308102 
15481 1 9.4779 26.046 0.632168 -8.18903 0.487377 -0.546056 0.373873 
6541 1 6.93325 23.0488 -1.20106 -7.64056 -1.44045 -1.79077 -0.948783 
602 3 11.235 27.3146 2.61184 -28.0649 -0.372826 2.52545 0.216865 
17041 1 12.7549 22.8835 -1.65922 -7.69616 -2.73223 -1.83159 0.0639978 
15900 1 12.3437 26.1677 -1.52692 -8.80871 -1.81621 -0.0781128 -0.375641 
15781 1 13.4563 21.6357 2.84023 -6.46783 1.12784 0.600465 -1.55983 
842 2 11.243 21.8457 3.11409 -25.1983 -0.88426 0.534479 -0.27646 
2341 2 11.1282 24.7515 -0.186234 -23.7458 1.26143 -0.250121 2.23554 
3541 2 8.11528 21.3879 -0.304415 -24.6466 1.74923 0.871278 1.92322 
5042 2 8.84777 24.4406 2.53271 -25.7042 -2.18346 0.927134 -0.655773 
6841 1 9.38947 22.2846 1.41559 -6.84765 0.0546183 -0.480267 -0.75533 
9541 1 9.85943 23.6749 -1.5287 -7.51994 0.316171 0.33425 -1.00735 
17341 1 11.0246 24.0448 2.4597 -7.01582 1.0795 0.944632 -0.946591 
14342 1 12.3724 26.2451 1.33176 -8.24836 -0.68977 0.473603 -1.1168 
5342 2 13.6424 24.7831 2.62502 -23.9758 -2.7241 -2.16124 2.86942 
12841 1 13.0331 23.7995 0.801786 -6.83815 -0.310095 -1.39715 -1.2935 
14041 1 7.26505 25.5381 -1.66162 -7.04599 -0.457733 3.10565 1.36085 
9242 1 7.52725 25.7614 3.862 -5.66564 -1.64757 -1.33897 -0.406539 
17042 1 9.96487 26.2436 3.6966 -7.72229 1.90801 -1.38743 0.0220698 
14581 1 17.5252 21.0679 -0.866047 -8.26203 2.43892 0.990703 -1.46324 
14582 1 17.863 20.7988 4.04107 -6.89607 1.14542 -0.0607129 -0.233902 
902 2 16.3083 27.3389 2.57143 -24.8004 3.31493 1.13874 0.538533 
12900 1 17.931 23.7455 -0.978896 -8.33863 -0.628702 0.370146 -3.47007 
14282 1 15.4888 22.6509 0.624273 -7.72099 1.13844 -0.925309 1.75028 
3601 2 13.7449 27.5393 0.00494714 -24.3829 -0.559682 -0.637976 0.106971 
3841 2 13.8017 21.4936 -0.185647 -23.6417 -0.394096 0.943099 1.11463 
9841 1 17.3471 26.4482 -0.367992 -6.27703 1.91117 0.628511 -0.374678 
14341 1 15.0597 23.6507 -1.86908 -7.45399 3.80636 -0.710578 0.284217 
8341 1 15.0074 26.221 -1.34434 -7.2002 -0.768478 -1.16362 -1.26564 
1142 2 16.5643 22.0604 2.78173 -24.0681 0.938666 -2.18793 -0.766094 
2641 2 16.1444 24.7686 -0.138385 -24.5917 -0.705265 -1.8365 0.825099 
4141 2 19.1548 22.1977 -0.076729 -23.6322 1.25254 -0.537468 4.13516 
5642 2 19.6383 24.6398 2.61105 -24.9081 0.116844 0.639078 0.620085 
7141 1 17.8855 25.8873 3.41713 -7.62495 0.0247026 1.2887 1.58883 
11641 1 18.0116 23.4689 1.73377 -7.531 -0.219704 -1.56987 -2.55901 
17102 1 15.0319 25.8899 1.56194 -8.67394 1.76686 0.406995 -2.27831 
10081 1 20.3901 20.9267 1.25017 -6.88475 -0.272291 0.283438 0.986048 
14941 1 20.1024 25.8911 0.682018 -6.66976 -0.266815 -1.01769 3.7651 
8700 1 20.5444 26.3126 -1.59562 -7.22724 -0.201492 -1.16809 -1.74698 
6842 1 15.4543 23.559 3.7966 -9.16499 -1.85806 0.170581 1.83195 
5641 2 18.9554 24.8608 -2.74111 -24.0716 4.5514 1.90716 2.20775 
1141 2 16.4922 22.1343 -2.68176 -24.0748 -0.502464 -0.136674 -2.20231 
5941 2 24.7536 24.7855 -2.75638 -25.2734 1.64232 1.3478 -0.687242 
8940 1 23.3684 20.9493 -1.07771 -7.16162 0.00120798 -1.12205 -3.49331 
7741 1 25.9094 20.8849 -1.09949 -6.72081 1.93012 -1.14586 -1.38559 
10381 1 23.2624 20.676 1.24167 -7.24485 1.64557 -1.04813 3.51397 
1201 2 22.0697 27.5104 -2.64383 -24.8219 0.973511 -0.228344 0.498782 
7142 1 24.1098 23.1283 4.05317 -7.70998 -1.27653 -0.0282232 0.437201 
16141 1 20.7151 26.4338 3.86397 -7.48679 -1.71642 -1.15825 -0.435862 
13441 1 21.2045 23.4129 1.34063 -7.3576 0.0173894 0.849723 3.09974 
11941 1 20.6209 23.2078 -1.12921 -7.8713 1.12111 0.549335 -4.38012 
4201 2 24.969 27.4276 0.139369 -25.1544 -0.987215 2.2797 1.41881 
6242 1 27.0451 22.7895 0.760714 -5.79881 0.494288 0.0168855 0.34638 
11701 1 23.4395 25.7471 1.28365 -7.38036 -0.421629 1.79309 0.576741 
13740 1 26.3833 23.7908 -1.55272 -7.47096 0.671851 -0.0439136 -0.35504 
10741 1 23.3821 23.5726 -1.21137 -7.714 1.20525 -1.83843 -3.12536 
9000 1 26.4071 25.8235 1.06823 -7.54698 -1.68664 -0.159613 1.31195 
1442 2 22.4808 21.9426 2.79926 -24.3006 -1.02798 1.39628 -0.51313 
2941 2 21.9028 24.8211 -0.260984 -25.3978 0.00776819 1.83362 1.82792 
4441 3 24.9243 22.0328 0.000698635 -29.0682 1.00827 0.0687752 -0.34649 
5942 2 25.1634 24.8052 2.76764 -25.3881 -1.27343 -0.718017 -1.11758 
17941 1 26.1072 26.7043 -1.42405 -7.14508 1.61376 -1.02412 0.183204 
7442 1 24.2945 23.1283 1.27414 -6.67845 -0.560878 1.67624 3.77321 
16441 1 23.4344 26.0318 -1.55249 -7.52487 -1.21595 2.07373 1.48976 
1441 2 22.2959 22.0262 -2.59094 -24.2576 -2.05098 0.264766 -2.35476 
17702 1 27.0231 23.7546 3.49606 -6.93275 -0.86391 -1.87735 0.88715 
13502 1 1.61875 3.8614 4.19735 -8.23889 0.102361 1.41798 0.396119 
15061 1 4.34417 4.05205 4.3353 -8.23071 0.640916 -1.58873 0.392094 
13503 1 4.51718 1.86042 9.72736 -7.5797 0.484558 -2.12095 0.134874 
6002 1 1.51269 4.34669 6.92125 -8.1908 1.80747 0.313902 0.227453 
363 2 5.68495 5.38205 8.01032 -23.0412 -0.28168 -1.54773 -0.51606 
1802 2 5.77423 2.70166 5.6462 -23.7059 0.0299387 -0.212524 -4.45003 
3062 2 3.14126 5.23625 5.69877 -23.3882 -2.46364 1.3433 -2.18943 
4503 3 3.05857 2.66445 8.1828 -27.627 -1.4879 -3.26309 1.22912 
7502 1 4.46043 4.28019 9.68885 -7.69859 -0.725299 1.31162 -2.378 
10502 1 4.17934 0.850091 7.32606 -6.80465 -1.59683 3.12457 -3.33302 
10563 1 1.55468 3.50778 9.46187 -8.36006 1.42721 1.02607 -0.414595 
17703 1 1.5155 1.39154 6.43411 -7.09884 3.21046 -2.48867 3.15962 
10442 1 1.76708 0.639202 8.95347 -7.43038 0.00451417 1.39702 3.56364 
12062 1 4.44236 3.60059 7.10552 -9.41377 -1.50404 2.85248 -0.844508 
1502 2 0.298739 2.60375 5.47127 -24.6678 -3.98344 1.35282 -2.42374 
16802 1 6.6464 0.469203 4.67503 -6.75815 -1.67967 2.8656 5.80671 
15302 1 6.1194 6.25402 9.84503 -8.2183 1.36589 2.91713 1.79228 
1503 2 0.321439 2.49117 10.8746 -23.4338 -5.02596 -2.86193 -2.31279 
7562 1 1.65142 6.70682 4.67908 -7.50621 0.931432 1.07342 -1.39578 
303 2 5.72823 0.382472 8.60149 -23.9676 -0.206234 0.952163 -0.839298 
3063 2 2.89405 5.03858 10.919 -24.3161 -1.58975 1.48945 1.82522 
1803 3 5.85051 3.15835 10.8128 -28.5251 -0.330067 -3.07118 0.501027 
16862 1 10.008 3.97764 4.36186 -7.97028 -0.705358 1.44187 -1.87947 
11102 1 12.9536 1.22278 9.33824 -6.79396 -1.13059 -2.53894 2.65293 
15602 1 12.9133 3.76132 4.28904 -8.18561 -0.530824 -1.07444 0.513939 
14043 1 7.18786 3.96225 9.29497 -8.343 0.415229 0.87592 -0.805396 
12002 1 6.82279 4.64779 6.24343 -7.88913 -0.191242 -1.69168 0.382745 
7503 1 7.77958 1.40628 9.69886 -7.51463 -0.893468 -1.48684 -2.16648 
6663 1 12.3636 5.2229 9.77066 -6.76435 -1.9685 0.306717 0.608082 
10862 1 9.84193 4.33641 9.92459 -7.91012 -2.06986 1.61082 -2.84286 
663 3 10.4686 5.99381 8.24463 -26.6571 4.39806 -2.74147 -1.23377 
2102 2 11.022 2.95848 5.97601 -23.6547 2.54868 -0.23299 -2.1887 
3362 3 8.43819 5.54735 5.34614 -27.8672 0.0648307 0.0153107 -1.97834 
4803 2 8.76066 2.61725 8.11654 -23.8495 -2.00883 1.43986 1.14674 
16803 1 10.5612 1.92233 9.01742 -7.53568 -0.368377 -0.556834 -1.07118 
8102 1 12.3212 1.25772 6.74375 -8.35699 -0.348149 1.61277 -1.65841 
14343 1 9.62408 4.41565 6.88922 -9.18715 -0.87181 0.443694 2.17866 
14163 1 12.4672 4.31598 7.15776 -7.5845 -0.341997 -2.64094 -1.45397 
9542 1 9.34883 1.65697 6.09123 -7.58242 -1.48282 -1.54529 2.78801 
15662 1 12.1885 6.5092 4.56444 -8.41902 1.30371 -0.176592 -0.874367 
3363 2 8.11663 5.58312 10.7454 -24.6167 1.07788 1.39122 1.53222 
9243 1 6.88354 1.85757 7.13674 -7.86366 0.598591 -1.58599 3.04609 
603 2 11.374 -0.121577 8.31967 -24.6624 0.88326 0.927743 0.158917 
3303 3 8.46019 -0.154737 10.8355 -28.3152 -0.612496 1.55706 2.27902 
9602 1 15.5409 4.41016 4.55219 -7.06554 1.65247 -1.90315 -1.96928 
3662 2 14.0027 5.27979 5.57785 -25.2313 -1.2612 2.5958 3.64543 
5103 2 13.8672 2.71571 8.33164 -24.5702 2.32954 2.74152 -4.00083 
11402 1 18.2238 3.99362 6.79621 -6.81108 0.459196 -0.688689 -0.0314782 
9843 1 14.3208 3.48878 10.3083 -7.74386 1.92797 -3.81742 -0.620376 
6903 1 17.9926 1.49046 9.79073 -7.39127 1.8181 -0.512843 -2.44672 
963 3 17.267 5.67723 7.95077 -28.6312 -0.522069 -0.459507 -0.659105 
2402 2 16.7904 2.54215 5.07267 -25.2846 -0.304289 0.668981 3.36848 
3962 2 19.6426 5.13572 5.43476 -26.1901 -1.10615 0.168027 1.52221 
5403 3 19.5728 2.47836 8.26623 -26.9935 -3.94879 2.61542 0.906722 
12602 1 15.3863 4.31549 7.32618 -6.41445 -0.544137 0.55429 1.3354 