ITEM: TIMESTEP
0
ITEM: NUMBER OF ATOMS
18000
ITEM: BOX BOUNDS pp pp pp
1.1428118784177066e-01 2.7226718812158531e+01
1.3666899097345109e-01 2.7204331009026976e+01
1.5560058319443897e+00 3.2653599416805548e+02
ITEM: ATOMS id type x y z c_peratom fx fy fz 
362 3 5.57993 6.01831 6.9535 -28.3064 -1.28577 -0.848983 0.833195 
1801 2 5.24353 2.9512 4.23277 -24.5341 0.682062 0.433946 -0.197451 
3061 3 2.7035 6.1525 4.78358 -28.6523 -0.172927 -0.524681 -2.17519 
4502 2 2.55349 3.29814 7.09664 -24.386 -1.935 -2.543 1.37311 
6001 1 1.26278 1.65525 3.20656 -8.13075 -0.036668 0.140678 0.473927 
7501 1 3.65814 4.73184 6.14292 -7.71891 1.60066 2.21287 -2.16634 
9001 1 3.79901 4.46195 3.24064 -8.08373 1.27189 -0.121902 0.538152 
10501 1 1.15351 1.66495 6.31313 -6.37548 2.10306 1.37562 -3.6084 
12001 1 3.78508 1.64904 5.80455 -8.17796 0.302159 2.1921 -2.4707 
13501 1 1.01359 4.24126 2.76855 -7.84769 0.578154 0.65331 -0.777538 
15001 1 1.17509 4.67644 5.49319 -8.47896 -1.22814 -0.0847679 1.18625 
16501 1 4.13144 1.8537 2.56545 -8.20065 0.137954 -0.607939 1.11245 
6301 1 6.88778 1.44221 2.76993 -6.20209 -1.46841 -0.645336 1.75766 
302 2 5.26897 0.706368 7.13009 -24.3473 1.29497 -3.31945 -4.34275 
15301 1 6.21304 4.5502 5.57762 -7.48963 1.45258 -0.123032 -0.866422 
3001 3 2.35061 0.274681 4.41074 -28.537 -1.72361 0.363156 1.58728 
10801 1 6.68949 1.78847 5.43223 -7.91259 -0.327324 2.02581 2.34584 
13801 1 6.83606 4.10071 2.9694 -8.04642 -1.11095 2.07016 2.9085 
4501 2 2.71289 3.27826 1.75402 -24.7559 -0.307483 -0.992621 -2.34947 
13802 1 6.67545 4.47699 8.17896 -7.50813 0.141332 -0.308044 -0.800317 
361 2 5.53844 5.7897 1.74973 -24.369 -6.10038 3.82588 2.55037 
1 3 0.128469 0.359963 1.69171 -28.033 -2.32161 1.56714 -0.763972 
662 2 10.8139 5.97177 7.20302 -24.5229 0.52741 -2.22045 1.05805 
2101 3 10.7429 3.18548 4.44248 -27.8144 0.894628 -0.318458 -1.17492 
3361 3 8.22813 5.6219 4.21647 -27.0148 0.0862262 -0.927322 2.34396 
4802 2 8.20507 2.97958 6.84028 -23.7911 -3.4768 -0.872688 2.3482 
6601 1 11.9922 1.85792 2.96686 -8.7408 0.238046 0.149528 1.42138 
7801 1 9.30993 4.10064 5.5106 -8.33878 -0.0316219 1.30745 -2.2683 
9301 1 9.89291 4.72717 3.03258 -7.86025 -3.38084 0.103826 0.837755 
11101 1 11.9153 1.75626 5.81406 -8.10738 -0.470007 2.75474 -0.319804 
12301 1 9.29663 1.26444 5.7436 -7.97474 0.132377 1.44989 1.65418 
14101 1 12.3166 4.66164 3.00953 -8.36638 2.56576 -2.01888 -0.501842 
15601 1 12.0996 4.66164 5.6711 -7.47091 -0.0545685 -1.82001 -1.12185 
16801 1 9.2701 2.08007 3.15581 -7.57727 2.3129 0.943709 -0.712593 
3601 2 13.146 0.484019 4.30021 -23.9268 1.96168 0.297001 -3.2914 
5102 2 13.407 3.11331 7.00353 -24.8837 0.387571 0.728277 0.890316 
602 2 10.6867 0.355046 7.25608 -24.6893 1.91237 -0.957766 -1.30482 
3661 2 13.6665 5.92787 4.18218 -24.5389 0.641273 -0.558732 3.84115 
5101 2 13.4362 3.07724 1.57023 -24.4264 0.367951 -0.242151 0.484669 
6361 1 7.06873 6.73833 3.04374 -8.96896 0.923536 0.835025 -0.447369 
12361 1 9.12123 6.7456 6.11216 -8.08324 0.923281 1.2769 -1.00143 
3301 2 7.88215 0.195482 4.36205 -25.6613 -0.382599 0.827904 -1.43414 
14102 1 12.3083 4.55774 8.21342 -7.33504 -2.27343 0.279286 1.06133 
9302 1 9.38572 4.43819 8.03353 -7.95567 0.533512 -0.277865 2.11562 
601 3 10.2778 0.88236 1.67399 -28.3761 1.2093 -2.24443 -0.757931 
661 2 11.1483 5.80876 1.65424 -24.0287 -2.93066 2.27443 -0.374361 
962 2 15.9937 5.85754 7.03696 -25.1504 0.901325 1.75511 1.05196 
2401 3 16.1964 3.15384 4.36749 -27.8781 0.184401 -0.400814 -0.683397 
3961 3 18.8215 5.97957 4.43721 -29.0898 -0.644763 1.11284 -1.48194 
5402 2 19.0857 3.07215 6.88209 -23.2949 -1.54193 0.696632 1.4176 
6901 1 17.6718 1.59585 2.98823 -7.53309 0.632783 0.536313 0.708807 
8101 1 15.0203 4.38293 5.65754 -8.24687 -2.7613 -0.075525 -1.27972 
9601 1 15.0462 4.76744 2.86355 -8.44905 -1.09946 -2.16378 1.26302 
11401 1 17.2031 1.82708 5.74718 -8.42094 2.2591 0.71353 -2.58232 
12601 1 14.4965 1.61796 5.59773 -8.55049 0.342057 1.82794 -0.349912 
14401 1 17.6488 4.25849 3.32722 -7.74485 -1.14236 0.186141 1.55197 
15901 1 17.4191 4.5233 6.14649 -7.6515 3.74155 -0.585643 -1.44915 
17101 1 15.0985 1.8658 2.80904 -7.72881 -1.35122 1.74697 1.381 
6902 1 17.6166 2.2285 8.27043 -7.41908 1.14648 -0.965149 -0.0190071 
9901 1 19.9124 4.86524 2.34525 -6.58088 0.0221498 -0.549637 0.345086 
12901 1 20.0945 1.39874 5.69643 -9.19069 0.386048 3.84101 1.00257 
902 2 15.8832 0.532531 6.85196 -24.1525 -0.344846 0.432312 3.24743 
3901 3 18.6912 0.45125 4.5385 -28.2012 0.247351 -1.91515 -1.64087 
8401 1 20.389 4.88013 4.88841 -7.81876 -1.51501 -1.20831 2.34306 
9902 1 20.0935 4.7665 7.78376 -7.70657 0.941752 -0.847774 -0.679231 
961 3 16.3098 5.85102 1.91905 -28.6701 2.44775 1.6132 -1.49989 
5401 2 18.7716 3.02511 1.61481 -25.3664 0.647436 0.447206 1.02389 
17401 1 20.4719 2.25794 2.90675 -7.30974 -0.908855 1.61414 0.76913 
1501 2 26.8758 3.35916 4.27746 -23.9306 1.58145 -2.65345 1.65619 
62 2 26.8654 5.9562 6.93726 -24.7513 2.24864 2.12444 0.337069 
2 3 26.9942 0.537124 7.34912 -29.3136 0.482108 -1.05721 -4.03566 
1262 3 21.5328 6.18778 6.93818 -27.6817 -0.543683 -0.925704 0.460137 
2701 3 21.5179 3.18425 4.56116 -28.2331 2.36664 -0.255936 -2.57611 
4261 3 24.1595 5.81469 4.37722 -28.4215 -0.849213 1.30117 -0.0932815 
5702 2 24.452 3.25336 7.16697 -25.2199 -2.49972 -0.875418 -2.63248 
7201 1 22.9095 1.63157 2.97995 -7.45311 0.945457 1.81982 -0.79884 
8701 1 25.3372 4.91041 5.85959 -8.25795 -0.55955 -1.32881 -1.10854 
10201 1 25.656 4.72156 3.29867 -8.06554 -1.74171 1.237 -1.87939 
11701 1 23.0874 2.00715 5.73239 -7.17343 -0.127456 -2.75048 -1.55758 
13201 1 25.8771 2.05663 5.70246 -7.47057 -1.84153 0.988502 -1.41834 
14701 1 22.8507 4.61807 3.3721 -7.25462 -0.0685451 -0.389786 -0.992462 
16201 1 22.5549 4.2357 5.97342 -6.85805 0.374758 3.41995 2.14425 
17701 1 25.4579 1.73117 2.80715 -8.47735 3.69944 1.12938 0.898724 
7202 1 22.9795 2.12865 8.3045 -7.40947 1.20803 0.443506 2.05457 
4201 2 24.4333 0.649128 4.30466 -26.0655 -4.03192 -2.48335 2.03138 
1202 2 21.8257 0.539061 7.11381 -25.3864 -1.55131 0.524664 -1.86534 
17702 1 25.843 1.88001 8.31624 -8.173 -0.932384 -1.2019 3.09049 
61 3 27.2015 5.75306 1.7703 -28.2239 -0.396837 1.52538 -0.357389 
1201 3 21.4403 0.521038 1.89392 -29.7175 1.80385 -0.548507 -0.283295 
6061 1 1.62076 6.93915 3.20688 -7.04782 -1.68832 0.463777 -0.264345 
421 3 5.52258 11.1729 1.69171 -28.4176 -1.37054 0.0890258 0.801794 
12061 1 3.97901 7.56111 5.66752 -7.76 0.503813 -1.94394 0.293336 
10561 1 1.41444 7.60173 5.78161 -7.4186 -0.831062 0.0958828 -0.779908 
16561 1 4.10063 7.10061 3.04242 -7.7368 2.65471 1.99798 -0.114047 
422 2 5.51467 11.4104 7.33111 -25.8261 -2.12969 0.0909164 -2.07196 
1861 2 5.48593 8.49294 4.34166 -23.8922 -3.84382 -0.584634 2.9457 
3121 3 2.91872 11.2167 4.36647 -27.7472 0.198256 2.11066 -0.599453 
4562 2 2.73505 9.12121 7.008 -24.7306 0.619081 -3.4491 1.8103 
6121 1 1.11155 12.4145 3.13852 -6.92499 -1.47121 0.224258 1.72939 
7561 1 4.42689 9.98215 5.85726 -7.76782 -0.973915 1.00138 -0.500416 
9061 1 4.34179 10.2554 3.08211 -7.71567 -2.24685 -2.87604 0.991089 
10621 1 1.28206 12.9187 6.17999 -6.81539 -0.116628 1.13661 -0.25856 
12121 1 4.10074 12.6686 5.91106 -7.06006 -1.68367 -1.15659 -2.25113 
13561 1 1.48119 9.68883 2.62189 -8.96409 0.840861 0.504722 0.259261 
15061 1 1.6739 10.4351 5.65031 -8.5769 -1.24087 -1.46469 -0.717038 
16621 1 3.64427 12.5492 2.97123 -7.98045 1.23834 3.01672 0.0784372 
13861 1 6.61815 9.37983 2.9905 -7.60233 3.26989 2.89528 -1.32817 
6421 1 6.40886 12.4863 3.2443 -8.72036 1.7693 -1.0142 -0.491587 
10921 1 6.6145 12.9145 6.06309 -7.39912 1.60055 0.70197 -1.13409 
10861 1 6.70559 7.26518 5.61808 -8.1214 -0.0022538 0.529416 0.46781 
122 3 0.120028 11.453 7.11483 -28.7993 -0.00791648 0.298972 -1.36666 
6362 1 6.81947 7.23206 8.30994 -8.29198 0.0468132 -0.213617 -0.256784 
16861 1 10.199 7.49087 2.9955 -7.78934 -3.12859 -0.557513 0.157053 
6661 1 12.6629 7.61611 3.44049 -7.99587 0.524421 1.10689 -2.18705 
15361 1 7.0183 10.3616 5.78777 -7.57147 0.588539 -2.45067 -0.0487551 
11161 1 12.1448 7.20602 6.13086 -7.35326 -4.21036 3.07737 -0.65239 
722 3 10.8729 10.9558 6.78609 -28.7953 1.91135 1.09714 0.490712 
2161 3 11.2417 8.56791 4.4678 -27.9812 0.770914 0.10933 -0.461823 
3421 2 8.14756 11.46 4.36422 -23.9953 -1.94965 -0.332961 2.25138 
4862 2 8.09262 8.6569 7.04986 -24.257 0.531583 -1.11807 -1.71012 
6721 1 12.0024 13.1286 2.71813 -7.89342 1.87574 -0.872791 0.38329 
7861 1 9.80034 9.52947 5.25573 -7.97914 -1.56195 -0.343881 3.05151 
9361 1 9.11167 10.5473 2.78794 -7.06973 -1.41748 -2.84677 -2.1191 
11221 1 12.1306 12.3393 5.4185 -7.64028 -1.2366 3.71142 -0.514506 
12421 1 9.49894 12.2321 5.9039 -8.11899 -0.111639 -1.65382 1.41039 
14161 1 11.6392 10.3456 3.5028 -7.45109 3.41065 -0.119647 0.604304 
15661 1 12.6276 10.0951 6.01931 -6.74568 -2.13189 -3.92108 -0.920747 
16921 1 9.41906 12.9425 3.37342 -8.27218 -0.0169979 0.0269399 -1.09155 
9362 1 9.59321 10.0062 8.00981 -8.16595 0.178885 -1.48993 0.262319 
5162 3 13.4766 8.60579 7.26446 -28.4795 0.168563 0.616482 -0.795421 
4861 2 8.14071 8.36876 1.88931 -24.8531 2.69781 1.55872 -3.7835 
6722 1 11.6977 12.5383 8.04243 -7.70281 -0.910576 0.756759 0.193724 
721 2 10.886 11.4257 1.89054 -25.5588 -0.811822 0.165324 -4.07929 
6961 1 17.9838 7.12048 2.82529 -7.286 -1.63844 -1.46367 -0.548471 
3721 3 13.6782 11.6245 4.2951 -28.8532 -0.459467 -2.2379 1.84844 
11461 1 17.2581 7.14509 5.17864 -6.66694 -2.09894 -1.35912 2.81125 
17161 1 15.2263 7.50578 3.41415 -7.81323 -0.434483 -1.3993 -3.48328 
12661 1 14.37 7.28696 5.79351 -7.12376 4.85001 0.520015 1.45108 
1022 3 16.077 11.4132 7.22077 -29.6194 -1.73854 1.36032 -1.85563 
2461 3 16.0965 8.83505 4.31745 -28.9054 1.5728 1.5529 1.55128 
4021 2 18.7138 11.2287 4.19038 -25.5151 -1.63338 0.905888 4.39817 
5462 3 18.7574 8.94658 7.20685 -28.5701 0.613007 -1.87455 -2.74779 
7021 1 17.5061 12.6713 3.17016 -7.86647 -0.791285 1.45788 -1.1146 
8161 1 14.938 10.4148 5.54523 -6.92993 2.39807 -1.51528 0.483865 
9661 1 14.7096 10.2415 2.97494 -7.49903 -1.49887 -2.15067 0.466662 
11521 1 17.2281 12.4285 5.86616 -6.33175 -0.938007 -1.57154 -1.34025 
12721 1 14.6528 12.9924 5.85666 -7.19845 -0.237656 0.435352 -2.30804 
14461 1 17.3409 9.99215 2.82473 -7.59986 -0.802346 -0.698252 0.193503 
15961 1 17.5085 9.72928 5.55463 -7.36939 0.0345956 0.200142 0.71572 
17221 1 14.8936 12.6108 2.87118 -8.461 -1.13913 3.66385 0.585012 
13021 1 19.6746 12.8464 5.99635 -6.72334 4.19075 -1.73669 -3.41352 
8461 1 20.1578 10.1903 5.76161 -7.86859 1.92472 0.891507 -1.13045 
9962 1 20.4187 9.74334 8.13146 -8.07027 0.608899 1.79304 1.51001 
9961 1 19.8488 9.77807 3.1841 -7.34127 3.26542 0.639871 0.891385 
17521 1 20.2594 12.5029 3.19811 -7.65071 0.0484131 -1.29034 -0.325754 
12961 1 19.7762 7.43696 5.68363 -7.48873 2.73764 -0.054932 0.613821 
5161 3 13.8476 8.61321 1.76074 -28.5494 -1.09846 -0.27874 0.434055 
14462 1 17.6799 10.4879 8.13352 -8.53192 0.426092 -1.87937 -0.210601 
5461 2 19.0666 8.53355 1.66969 -25.4684 -3.83279 0.831468 -2.42676 
1021 3 16.3043 11.3354 1.559 -28.9598 -1.06649 -2.02218 1.19302 
17461 1 20.6385 7.43507 2.55517 -6.8851 2.48823 -0.546856 2.758 
7261 1 23.2858 7.38607 2.94584 -7.45424 0.924959 -0.518294 2.07983 
17761 1 26.1478 7.44418 2.70442 -7.976 -1.28104 -0.245964 -1.33361 
11761 1 22.9705 7.12598 5.72671 -8.1983 -1.32034 -0.327764 0.291054 
13261 1 25.7738 7.54622 5.43083 -7.11943 -0.348981 -0.848978 0.214103 
1561 2 27.1988 8.7829 4.05541 -25.071 -1.21566 -0.383491 2.20994 
1322 3 21.3947 11.6262 6.86026 -27.5199 -0.319971 -0.093075 1.33137 
2761 2 21.6204 9.00679 4.34548 -24.0257 -2.70264 -4.41863 -0.9272 
4321 3 24.2164 11.3686 4.60375 -28.3223 3.86704 -1.13 -1.09914 
5762 2 24.4183 8.82313 7.09064 -24.8379 0.305426 -2.13007 -4.32797 
7321 1 22.2165 13.5424 1.88126 -6.4392 0.306844 -1.76541 1.93986 
8761 1 25.8887 10.1842 5.46243 -7.02897 0.59423 -0.109961 0.440061 
10261 1 25.8172 10.2038 2.78598 -7.44724 0.35733 -0.876957 -0.91415 
11821 1 22.7041 12.5393 5.19057 -8.7632 -1.59683 -0.952299 2.0174 
13321 1 25.7706 12.7699 5.68219 -7.85357 -1.47163 0.0901398 2.34093 
14761 1 22.938 10.146 3.01118 -8.66664 0.220078 1.07811 -1.30536 
16261 1 23.1527 9.87186 5.44711 -8.00708 -0.170714 0.094774 2.0589 
17821 1 24.7032 12.8637 3.36751 -7.31038 0.113366 0.475432 -1.31434 
5761 3 24.3423 8.41329 1.77771 -27.627 1.34017 1.683 -1.36838 
14762 1 23.4264 10.5504 7.81866 -7.71443 -3.23783 1.65157 1.21898 
17762 1 25.4967 7.20534 8.17672 -8.12107 0.658184 0.769156 -1.49978 
10262 1 25.794 10.0417 8.12002 -8.05675 3.15177 -0.309304 2.82063 
7322 1 22.8571 13.0811 8.14919 -7.64587 -2.79178 -2.71854 0.172148 
4622 3 2.71323 14.2531 7.41385 -29.3078 -0.389538 -2.70458 -3.17005 
16681 1 3.88653 18.2764 3.33288 -7.58882 0.951056 0.0418375 1.70555 
1921 2 5.14584 13.8654 4.36591 -25.0188 -0.0890684 2.08529 2.06496 
482 2 5.28357 16.9428 7.02177 -24.3309 -1.18979 -2.81199 0.633417 
1981 3 5.28426 19.4874 4.61074 -28.1284 -0.71381 -0.904176 -3.9586 
3181 3 2.76426 16.824 4.40809 -28.6265 -1.96324 -0.810728 0.484002 
4682 3 2.58535 19.4439 7.06312 -28.3444 -0.808738 1.13257 0.690569 
6181 1 1.31265 18.3253 3.38147 -7.41547 -0.365443 -1.98798 0.310392 
7621 1 3.79738 15.2857 5.92477 -7.38506 0.874886 1.19371 -2.67995 
9121 1 3.92852 15.3725 2.94073 -8.4142 -0.783225 -0.311171 0.960832 
10681 1 1.10279 18.2942 5.91754 -8.01801 0.343795 2.46169 1.47143 
12181 1 3.7317 18.0826 5.95427 -8.54634 1.08674 -0.388552 -1.13034 
13621 1 1.09816 15.3117 3.17369 -7.79759 1.94531 0.182137 -3.38358 
15121 1 1.14578 15.7592 5.5978 -6.30837 0.571317 -0.187798 -1.22414 
13921 1 6.546 15.195 3.2743 -6.76262 -0.467106 -1.95227 -0.87822 
15421 1 6.57017 15.717 5.80333 -6.91812 0.446107 -1.60185 0.539135 
10981 1 6.5678 18.2234 5.83655 -8.56857 0.749946 3.81866 -0.313898 
13622 1 1.28287 15.3681 8.02297 -6.90284 0.104741 0.542305 3.1571 
6481 1 6.5996 17.7556 3.09948 -6.76137 0.961729 0.374389 -1.26193 
13981 1 6.43807 20.2746 2.78791 -7.29038 0.908406 0.731075 0.962779 
4681 2 2.53901 19.3662 1.97564 -25.0638 1.3523 -0.0699063 -1.55721 
4621 3 2.63935 14.05 1.79376 -28.1863 -0.220318 -0.206757 -0.0662914 
781 3 10.8092 16.2737 1.86195 -29.2576 -0.7638 0.158633 2.04621 
4921 2 8.06306 13.7591 1.88228 -25.0226 -0.377587 2.02144 -1.75044 
4922 3 8.0394 13.7596 7.2922 -29.0366 -0.395599 0.582444 -0.103622 
5222 2 13.1403 13.9539 7.23284 -25.0223 2.65232 -1.20648 -0.727869 
2221 3 10.6177 13.6866 4.77734 -28.3882 3.10237 2.76142 -1.26659 
782 3 10.8146 16.504 7.46879 -28.1669 -0.217057 3.84827 -1.76045 
2281 2 10.713 19.3822 4.37227 -24.1879 0.38711 -1.81171 -0.529805 
3481 3 8.1694 16.3544 4.60851 -29.3128 -1.6557 0.0272396 -1.4103 
4982 3 8.04146 19.3987 6.96844 -26.8354 0.418995 -2.84324 2.52129 
6781 1 12.2232 17.9573 2.68907 -7.69122 1.61618 0.0801303 2.79858 
7921 1 9.14285 14.5505 5.71843 -7.68519 -0.656108 2.9149 0.524871 
9421 1 9.05539 15.4928 3.00057 -7.10758 1.3085 -0.915883 -0.798483 
11281 1 12.0786 18.2063 5.82201 -8.37026 1.72266 0.348993 -1.217 
12481 1 9.53711 17.3399 5.67316 -7.67442 -1.0985 1.23946 0.35996 
14221 1 11.6983 15.6735 3.70518 -5.914 -0.872741 -0.680184 -0.813567 
15721 1 11.8961 15.3322 6.26517 -7.47126 -1.00769 -0.830275 -1.37398 
16981 1 9.46759 17.991 2.73761 -7.41387 -0.0515338 1.86869 0.835392 
5282 2 13.5043 19.4582 6.91694 -24.1859 -1.05789 1.60681 3.17782 
7981 1 9.20439 20.3501 5.80904 -8.70083 0.614367 -0.63859 0.0887374 
16982 1 9.45339 18.4339 8.31284 -7.16656 -0.0456174 -0.770178 -1.06249 
4981 2 7.83189 19.1037 1.64225 -25.1183 0.652968 0.271583 -0.560241 
3781 3 13.784 17.1162 4.29725 -27.5205 -3.15084 -2.90506 1.24564 
2521 2 15.9965 14.0524 4.24669 -25.1551 1.05637 0.230626 2.66024 
5522 3 18.4805 13.9015 7.06046 -30.3443 1.32817 1.16287 0.616618 
1082 2 16.1231 16.7924 7.21155 -24.6442 1.55016 -2.52617 -1.88389 
2581 3 16.4584 19.4465 4.37128 -29.3003 -0.32591 -0.361379 -0.713597 
4081 3 18.8368 16.8412 4.21355 -29.3824 -0.537996 -0.923419 1.5007 
5582 3 18.7653 19.4507 7.00621 -29.0334 2.20262 -0.907991 0.1983 
7081 1 17.6576 17.9718 2.60674 -6.96847 -1.29389 1.04991 1.37597 
8221 1 14.8267 15.6494 5.51379 -7.14244 0.212526 0.895239 -2.4563 
9721 1 14.1655 15.5844 2.76737 -8.10012 1.09886 -0.592408 -0.139539 
11581 1 17.6689 17.9393 5.50662 -7.5139 -0.185383 -1.25367 -1.65916 
12781 1 15.1022 18.2116 6.06879 -8.12682 -2.63696 -0.0535486 -0.812974 
14521 1 16.9673 15.5042 2.84647 -7.24741 -1.63452 -1.17236 2.24032 
16021 1 17.6244 14.9218 5.70613 -6.36687 -3.43003 2.93676 -2.33538 
17281 1 15.2299 18.0552 3.36524 -8.3101 -1.70207 -0.438892 0.472367 
10021 1 19.5803 15.3171 3.21752 -7.1421 1.83804 -0.497206 0.655017 
17581 1 19.9782 18.1578 3.17565 -7.24575 1.67349 1.55727 0.365734 
8521 1 20.0312 15.5505 5.88589 -6.33487 1.11564 0.701103 -0.159379 
13081 1 20.2832 18.4507 6.10035 -6.24806 -2.12711 0.739424 -3.01235 
7082 1 17.4249 18.2829 8.03082 -8.16358 -0.954797 0.850616 3.08065 
9722 1 14.8256 15.2744 7.99132 -7.77174 -1.07046 -0.256021 2.2834 
17582 1 19.846 17.6529 8.28897 -7.67849 0.0685161 2.84257 4.43445 
5521 2 18.7195 14.0878 1.69386 -25.1725 2.05138 -2.42904 2.80644 
1081 3 15.7435 16.866 1.77316 -28.5986 4.37565 -1.45031 -0.598326 
5821 2 24.4125 14.145 1.6466 -24.0826 -0.462093 -2.40667 0.961049 
1621 2 26.8841 14.1928 4.47724 -25.3786 1.86038 -0.730898 0.951129 
2821 2 21.4163 13.9933 4.2441 -25.4421 -0.928671 4.38836 -0.558767 
182 2 26.9259 16.9449 6.96872 -25.3255 0.184596 -1.88066 2.32239 
1681 3 27.1013 19.5844 4.58617 -29.2994 -0.361331 -0.979166 -1.63398 
5822 2 24.3757 14.0005 7.19715 -24.4316 1.8846 3.25423 -2.38163 
10321 1 25.6401 15.4607 3.08069 -8.33563 -1.0952 -0.662735 -1.55638 
1382 2 21.3629 16.7322 7.19034 -26.4397 1.6659 -2.01281 -2.17745 
2881 2 21.5657 19.7232 4.61971 -25.0568 -0.0565952 -2.40988 -0.104007 
4381 2 24.1145 16.815 4.40521 -25.5798 -0.518757 -0.0187329 0.19682 
5882 3 24.2693 19.3503 7.1865 -28.9877 -1.12809 0.792529 0.22826 
7381 1 22.6587 18.2085 3.17097 -7.51253 1.77946 1.88394 -1.53218 
8821 1 25.6145 15.5582 5.92813 -7.75379 -2.19774 -0.919587 -1.85751 
11881 1 22.5584 18.0754 5.94007 -6.53331 4.72275 0.17194 -2.47158 
13381 1 25.4702 18.2439 5.59933 -8.0848 -0.488512 0.0789277 1.61783 
14821 1 22.507 15.821 3.08932 -6.12847 0.272091 -1.64972 2.11942 
16321 1 22.7062 15.2572 5.67558 -6.71224 1.37512 -0.699304 -0.67619 
17881 1 25.7324 18.0301 3.00484 -7.04877 -1.91665 0.0211467 -0.968442 
14822 1 22.9883 15.5763 8.1855 -6.86334 0.817844 0.563112 1.99106 
181 3 26.9971 16.7042 1.66543 -28.1025 -0.883601 0.367029 2.45469 
5881 3 24.1367 19.348 1.79088 -27.7544 2.99587 -0.678137 -0.709247 
15481 1 6.58303 21.0147 5.33439 -9.11875 0.0464153 -1.27711 2.11932 
13681 1 1.4617 20.899 3.0524 -7.68056 -0.951211 1.22601 -1.94228 
9181 1 4.07276 21.1757 3.26623 -7.02282 -0.201982 -0.49268 1.09213 
15181 1 1.4026 21.0454 5.53104 -7.84286 -1.04587 -0.782524 1.80695 
7681 1 3.9988 20.6703 5.9175 -8.32951 -0.873981 -2.68694 -1.43654 
13741 1 0.709727 26.1197 3.01286 -7.6929 0.535607 0.411208 -0.805541 
542 2 5.23158 22.0697 6.75711 -23.642 -0.113033 5.14694 -0.378377 
2041 3 4.86475 24.8751 4.241 -29.223 1.17409 1.7786 1.69476 
3241 3 2.50348 22.1796 4.28371 -29.1223 0.379207 0.688456 -0.162766 
4742 3 2.549 24.8683 7.01266 -28.7579 -1.41546 0.20345 -2.56181 
6241 1 1.03013 23.6582 3.2152 -7.98854 0.801083 -2.75212 -2.02274 
7741 1 3.52819 26.096 5.52842 -7.62807 -0.502392 -1.0242 1.70332 
9241 1 3.29232 26.2197 3.02791 -7.35495 1.0663 1.40742 0.388766 
10741 1 0.979434 23.6479 5.69919 -7.35355 0.214423 -0.820673 1.16261 
12241 1 3.61535 23.387 5.3955 -7.59221 0.827741 0.0367677 1.8309 
15241 1 0.756322 26.2467 5.65775 -6.40515 1.72923 -0.256206 -0.0396211 
16741 1 3.89223 23.7461 2.97607 -7.70707 1.04643 -1.99789 -1.376 
15541 1 6.18848 26.4222 5.44424 -6.85088 0.0332766 -0.636325 1.53244 
14041 1 6.09002 25.8119 2.89033 -7.02195 0.794703 -0.858906 -0.477357 
11041 1 6.33217 23.8065 5.37145 -7.52339 0.288785 -1.52974 0.564156 
16742 1 3.90653 23.7816 8.00551 -7.7784 2.33813 0.262018 1.09306 
13682 1 1.65057 20.8166 8.28262 -7.54711 -2.2148 0.247544 -0.285928 
541 3 5.39427 22.0185 1.69088 -29.2543 -0.55879 -1.35545 -0.320951 
14042 1 6.74196 25.792 8.25122 -8.0123 0.660447 0.297428 -0.514297 
13742 1 1.47494 26.2327 8.28961 -8.73031 -1.06122 0.128125 0.78107 
4741 2 2.47355 24.7388 1.74657 -24.1941 0.589017 2.79608 -0.256264 
5341 3 13.1106 24.9253 1.63692 -28.8005 0.613397 -0.648159 -1.42003 
6542 1 6.89364 22.7753 7.9872 -8.8776 -0.0499619 0.726692 0.00181502 
6541 1 7.01238 22.8585 2.60793 -8.23809 -0.0448039 0.477243 1.83035 
14281 1 12.5718 20.4894 3.14216 -8.11453 -1.38239 -0.0195291 1.23018 
841 3 10.7521 21.9486 1.8314 -28.5533 -0.998315 2.029 -0.824219 
9481 1 9.38865 20.8246 3.23817 -8.5505 0.761374 -0.492778 -0.768398 
15781 1 11.8918 20.9917 5.84746 -8.28621 1.65839 -1.87565 -1.57213 
842 3 10.6663 21.9266 7.05526 -28.8313 1.07617 2.74925 -0.680087 
2341 3 10.9217 24.9967 4.40108 -27.9467 -1.91461 -2.52145 -1.41272 
3541 3 7.96779 21.9868 4.27205 -28.0761 0.901467 0.975578 -0.682024 
5042 2 8.04746 24.518 7.0271 -24.3813 -0.0129794 0.673836 -1.68171 
6841 1 12.2949 23.3114 2.95013 -7.58686 -2.07836 -0.0811149 -0.979437 
8041 1 9.31786 25.7571 5.44703 -8.09771 -1.25574 -0.706997 0.856132 
9541 1 8.96403 26.5322 2.63025 -7.69364 0.247299 -1.92824 -0.483403 
11341 1 11.9208 23.6051 5.56543 -7.66722 0.572792 0.171004 -1.03974 
12541 1 8.92563 22.9618 5.77827 -7.55756 0.552149 -0.61157 0.103748 
14341 1 11.5354 26.02 2.74485 -7.93468 1.56508 0.609696 1.48341 
15841 1 11.9723 26.3516 5.54828 -8.33953 -0.740526 -2.43949 1.09259 
17041 1 9.7251 23.5584 3.27222 -7.65801 -1.46959 0.520801 -1.5174 
3841 2 13.5781 22.1038 4.24565 -24.3666 -0.132923 -0.876442 0.202615 
5342 2 13.4237 24.7295 6.7662 -25.1874 -0.581389 0.337168 1.85273 
17042 1 9.70639 23.4383 8.17174 -7.28417 -5.65279 1.86501 1.35039 
5041 2 8.11486 24.5251 1.66399 -25.3875 1.44058 2.99664 0.215288 
14342 1 12.289 26.071 8.25502 -7.4494 -1.11354 0.142738 1.10482 
6842 1 11.9252 23.5052 8.1102 -6.43902 4.7564 -1.10322 1.29826 
9781 1 15.2959 20.6497 3.00654 -6.67626 -2.05987 2.7768 -1.95942 
8581 1 20.2336 21.0229 5.89172 -8.05095 0.660139 1.16764 -1.03736 
8281 1 15.0333 20.5692 5.53036 -7.81898 -2.01579 2.45204 0.899557 
16081 1 17.6911 20.4663 5.73179 -7.98223 -0.579941 2.83955 -0.581511 
10081 1 20.4414 21.161 3.07577 -8.32755 1.20757 -1.03016 1.04912 
14581 1 17.6759 20.7229 3.17947 -7.36673 2.80313 -0.194453 -1.22995 
1142 2 16.3583 22.0223 6.89068 -24.9792 0.0325933 0.798741 0.518473 
2641 2 16.2488 24.6251 4.25931 -23.9317 -1.97123 2.49472 1.03782 
4141 3 19.0418 22.1265 4.28861 -28.5746 -0.408239 0.913985 0.479697 
5642 3 18.9681 24.8509 6.98227 -28.945 -0.885422 0.124495 0.693316 
7141 1 17.6525 23.3333 3.11644 -8.414 -0.802771 0.666229 -1.18491 
8341 1 14.6001 25.9848 5.01018 -7.77904 0.0693991 -0.482878 1.38245 
9841 1 14.3702 26.3356 2.42768 -7.00184 -0.708708 0.956162 1.56641 
11641 1 17.5135 23.557 5.59158 -7.7601 0.6125 -1.78692 0.166285 
12841 1 14.8008 23.2911 5.74811 -8.551 0.0782913 -0.479165 -1.79622 
14641 1 17.3625 26.0486 3.04395 -8.26707 -0.200899 -0.628885 0.0114094 
16141 1 17.2407 26.2635 6.08404 -7.99766 3.10435 -1.85337 -2.38949 
17341 1 14.6402 23.7044 2.85125 -8.13978 3.64334 -0.999865 1.34462 
10141 1 19.9796 26.8771 3.03681 -6.9243 -2.17015 -1.85735 -1.8354 
17641 1 20.0347 23.9081 3.24135 -7.23138 1.13901 0.570961 -1.69521 
7142 1 17.7475 23.4663 8.06577 -7.43104 0.40875 1.45178 1.24233 
13141 1 20.1443 23.6288 5.75384 -7.22994 0.899354 -4.78887 2.20309 
8641 1 20.0777 25.8688 5.55456 -6.61031 -1.24825 2.87438 0.197979 
10142 1 20.2739 26.1924 8.23436 -7.88144 0.614054 0.364122 0.933597 
5641 3 18.8799 24.9464 1.67357 -27.8899 1.18742 -0.544543 1.20162 
1141 2 16.2866 22.4699 1.77032 -23.8389 -1.91617 -3.99869 -2.30005 
14582 1 17.7164 20.9671 8.31509 -7.98444 1.73351 -2.18604 0.793578 
9842 1 14.9045 25.9664 7.92321 -7.3744 0.0197805 1.37165 0.873511 
1441 3 21.9633 21.8145 1.69722 -27.9933 -2.33383 2.89971 -0.512929 
8881 1 25.9197 20.8246 5.95162 -8.04531 -0.552228 1.47483 0.290957 
5941 3 24.164 24.7367 1.71069 -29.5823 -0.595586 1.03212 0.581473 
14881 1 23.1542 20.6007 3.04725 -8.77551 0.230928 1.51958 0.0301598 
242 3 27.019 22.3185 6.83235 -27.9298 0.971111 0.338809 1.98675 
1741 3 26.8027 24.6876 4.11698 -29.1009 -0.675922 3.16325 2.7496 
10381 1 26.0007 20.7193 3.37894 -7.58743 -1.47747 1.82446 -0.744562 
16381 1 23.0998 20.7257 6.06042 -8.12763 0.01663 0.471826 -2.3474 
1442 2 21.8216 22.1716 7.21811 -24.9045 -0.549371 -1.09475 0.424437 
2941 3 21.4673 24.5516 4.66274 -29.6636 2.17669 3.70267 -2.45211 
4441 3 24.4743 22.3324 4.35286 -27.5901 -1.54356 -1.49532 -0.139015 
5942 3 24.5211 24.8401 7.10476 -29.3923 -0.133684 2.41098 -1.52707 
7441 1 22.8406 23.2016 3.10596 -7.54744 -0.42007 0.263285 -0.331725 
8941 1 25.3128 26.4926 5.72674 -5.85158 2.6038 -1.09393 2.95963 
10441 1 25.1986 25.9241 3.26268 -7.16506 0.305156 -0.704149 -1.91406 
11941 1 22.9636 23.3658 5.5677 -7.78835 -0.685175 -0.448115 0.878924 
13441 1 25.5449 23.7447 5.47627 -8.75761 0.111791 -2.1272 0.968773 
14941 1 22.4393 26.2111 3.49754 -5.51747 -0.00475686 -1.81661 -2.99697 
16441 1 22.9385 26.2336 5.82487 -5.72859 -1.78833 -1.47673 1.8518 
17941 1 25.4155 23.3 2.78962 -8.0667 1.45558 -0.369236 3.01825 
7442 1 23.34 23.5528 8.10424 -7.88169 -0.0119189 -0.216551 2.02782 
241 3 26.8334 22.063 1.59413 -28.2342 0.0861663 -1.26248 1.34467 
13502 1 1.07109 4.85364 8.47798 -8.23776 1.45516 -1.1426 -0.817694 
16502 1 4.07878 1.86821 8.4173 -8.3089 -1.03791 3.66556 1.25419 
6302 1 6.72592 1.60809 8.33465 -8.52838 2.81721 1.36409 0.799537 
6002 1 1.37786 1.94742 8.59082 -7.50869 -0.826792 1.33631 1.45659 
9002 1 4.00037 4.73815 8.60109 -7.88278 1.19015 -2.05525 -1.02411 
363 2 5.49068 5.70694 12.3774 -25.7053 0.622114 -0.173066 0.510643 
1802 3 5.22454 3.28095 9.67902 -28.4648 0.312542 -0.573504 0.453476 
3062 2 2.67968 6.07497 9.44601 -25.0939 -1.19846 1.612 2.12319 
4503 2 2.6013 3.22058 12.6028 -25.389 1.6028 0.861548 -2.32815 
6003 1 1.71169 1.59909 13.9176 -8.82134 -2.56603 0.75748 0.456158 
7502 1 4.11745 4.14771 11.2177 -6.7393 1.98487 -0.570541 -0.363327 
9003 1 3.79297 5.06737 13.7941 -6.84104 0.216952 -1.31041 -2.48193 
10502 1 1.40716 2.09566 11.0497 -7.85725 -2.04133 0.0688289 1.80481 
12002 1 3.79257 1.43513 11.1855 -6.31221 0.968953 0.0897211 -0.672095 
13503 1 0.994587 4.08877 13.9592 -9.05716 0.557319 1.92353 0.113806 
15002 1 1.64697 4.87156 11.3319 -7.65664 -1.5982 -0.874614 0.0966439 
16503 1 4.23156 2.46771 13.621 -6.46319 2.78881 -0.894707 2.1579 
10802 1 6.48337 1.96265 11.168 -7.83742 -1.52018 -1.01015 -1.9807 
303 2 5.38877 0.567702 12.6023 -25.8609 1.10124 1.78848 -3.17426 
6303 1 6.80318 1.67519 14.1065 -7.29369 -0.462942 0.137023 -0.402646 
13803 1 6.83275 4.54708 13.7029 -7.63666 -0.630725 -1.88292 -1.24819 
63 3 0.263872 5.73884 12.6019 -27.5645 -2.38645 0.239908 -1.39116 
6063 1 1.67793 6.81487 13.8035 -8.93676 -1.74473 -0.202693 0.168777 
12062 1 4.30016 6.71877 10.9489 -7.1681 -1.68845 2.89525 -1.23233 
3002 2 2.67265 0.493571 9.50598 -24.6344 0.805545 0.39809 3.78728 
3 2 0.301906 0.633095 12.5151 -24.4958 -3.29759 -0.624084 -1.00755 
3003 3 2.66278 0.263204 15.0202 -27.9478 -0.666725 0.900824 4.90753 
6602 1 12.0758 1.58032 8.61311 -7.52212 0.783643 1.66844 -0.808937 
2103 3 10.9746 3.27725 15.0889 -29.5627 -3.186 -0.938583 -0.31839 
15302 1 6.942 4.4405 10.6391 -8.28951 -2.91034 1.1506 0.955833 
16802 1 9.58358 1.55 8.74494 -8.26963 -2.77974 2.33173 -0.861922 
663 2 10.9855 5.73278 12.4886 -26.2328 -1.64442 1.66474 0.137259 
2102 2 10.7398 3.05041 9.93716 -24.755 1.82136 0.863305 -1.02189 
3362 3 7.97679 5.78983 9.57372 -28.6863 1.04003 0.941794 -0.0188637 
4803 2 7.93 3.13177 11.938 -23.3889 3.75343 2.07925 6.43597 
6603 1 12.4371 1.75385 13.869 -7.64439 -1.31258 1.72699 -1.36113 
7802 1 9.44987 4.5963 10.8282 -7.71081 -1.03293 -1.4895 0.318362 
9303 1 9.65736 4.50245 13.6375 -6.35798 -0.0241383 -3.86244 -3.64344 
11102 1 12.1206 1.9977 11.2689 -7.51278 0.556065 -0.738044 0.570381 
12302 1 9.39188 1.59779 11.3923 -8.45865 -1.03758 0.780393 -1.17482 
14103 1 12.4316 4.46796 13.7927 -7.91857 -1.07046 0.0848526 -0.0888234 
15602 1 11.9922 4.74629 10.8644 -6.72641 1.81168 -1.77096 -0.795744 
16803 1 9.64608 1.61622 14.199 -6.3034 0.892695 -1.14355 -3.13433 
603 2 10.7338 0.272055 12.5255 -25.2105 2.54062 0.863926 0.552102 
3662 3 13.4918 6.05893 9.57641 -29.0508 -0.397072 -2.22324 3.10035 
3602 2 13.4679 0.307566 9.8101 -25.0347 1.31252 1.10595 -0.894232 
3302 3 8.07475 0.279942 9.59656 -27.7342 -1.24507 -0.410013 1.53563 
16863 1 9.50142 6.88602 14.0422 -6.37693 2.01829 2.62559 -0.417967 
3363 3 8.047 5.72895 14.8424 -30.2987 1.26248 -0.148287 0.32059 
9602 1 14.7719 4.61595 8.47256 -7.4148 0.946326 0.127724 0.405243 
5103 3 13.7517 2.77995 12.6354 -28.756 0.155522 1.77096 -1.32193 
14402 1 17.363 5.13509 8.91718 -6.81432 -0.362473 -1.43075 -1.16723 
17102 1 14.808 1.96445 8.45931 -7.70255 0.111287 -1.58383 -0.849376 
963 3 16.3849 5.92234 12.428 -28.8573 -1.73652 -0.110497 0.174618 
2402 2 16.3747 3.26082 9.75959 -25.324 -3.2124 2.32456 -0.604065 
3962 3 18.9122 6.12729 9.76744 -29.2584 -0.804125 -1.1603 -0.481362 
5403 2 18.8706 3.09796 12.3577 -25.2642 0.80194 1.77184 2.76286 
6903 1 17.7956 1.49924 13.5379 -7.82754 -1.67881 2.0372 0.185028 
8102 1 14.8764 4.56882 11.5545 -6.62279 0.520854 -1.10735 -2.49275 
9603 1 14.9741 3.95762 13.9298 -6.90846 1.47786 -2.10277 0.986506 
11402 1 17.5506 1.88401 10.8567 -8.10283 0.338952 -1.97975 2.21971 
12602 1 14.8999 1.49287 11.178 -7.4556 -0.593378 1.72027 -0.412154 
14403 1 17.8319 4.52168 14.0721 -7.40974 -1.98581 -0.588993 -1.10768 
15902 1 17.5857 4.56031 11.4046 -7.64228 -0.795275 0.207784 0.215497 
17103 1 15.0909 1.1081 13.6901 -7.86582 -0.119952 2.43487 2.23026 
8402 1 20.18 4.54079 10.742 -7.47803 0.782111 0.135042 -1.29191 
12902 1 20.173 1.76771 11.3528 -8.161 3.40905 -0.324516 -0.172718 