# LAMMPS data file written by OVITO Basic 3.8.4

3000 atoms
3 atom types

0.0 27.2000007629 xlo xhi
0.0 47.3369598389 ylo yhi
0.0 23.598110199 zlo zhi

Masses

1 6.941    # Li
2 28.0855  # Si
3 15.9994  # O

Atoms  # charge

1 1 1.0 1.872611313 1.645101294 4.692720301
2 1 1.0 1.872611313 1.645101294 9.412342412
3 1 1.0 1.872611313 1.645101294 14.131964873
4 1 1.0 1.872611313 1.645101294 18.851586632
5 1 1.0 1.872611313 1.645101294 23.57120839
6 1 1.0 1.872611313 11.112493227 4.692720301
7 1 1.0 1.872611313 11.112493227 9.412342412
8 1 1.0 1.872611313 11.112493227 14.131964873
9 1 1.0 1.872611313 11.112493227 18.851586632
10 1 1.0 1.872611313 11.112493227 23.57120839
11 1 1.0 1.872611313 20.579885336 4.692720301
12 1 1.0 1.872611313 20.579885336 9.412342412
13 1 1.0 1.872611313 20.579885336 14.131964873
14 1 1.0 1.872611313 20.579885336 18.851586632
15 1 1.0 1.872611313 20.579885336 23.57120839
16 1 1.0 1.872611313 30.047276739 4.692720301
17 1 1.0 1.872611313 30.047276739 9.412342412
18 1 1.0 1.872611313 30.047276739 14.131964873
19 1 1.0 1.872611313 30.047276739 18.851586632
20 1 1.0 1.872611313 30.047276739 23.57120839
21 1 1.0 1.872611313 39.514668143 4.692720301
22 1 1.0 1.872611313 39.514668143 9.412342412
23 1 1.0 1.872611313 39.514668143 14.131964873
24 1 1.0 1.872611313 39.514668143 18.851586632
25 1 1.0 1.872611313 39.514668143 23.57120839
26 1 1.0 7.312611547 1.645101294 4.692720301
27 1 1.0 7.312611547 1.645101294 9.412342412
28 1 1.0 7.312611547 1.645101294 14.131964873
29 1 1.0 7.312611547 1.645101294 18.851586632
30 1 1.0 7.312611547 1.645101294 23.57120839
31 1 1.0 7.312611547 11.112493227 4.692720301
32 1 1.0 7.312611547 11.112493227 9.412342412
33 1 1.0 7.312611547 11.112493227 14.131964873
34 1 1.0 7.312611547 11.112493227 18.851586632
35 1 1.0 7.312611547 11.112493227 23.57120839
36 1 1.0 7.312611547 20.579885336 4.692720301
37 1 1.0 7.312611547 20.579885336 9.412342412
38 1 1.0 7.312611547 20.579885336 14.131964873
39 1 1.0 7.312611547 20.579885336 18.851586632
40 1 1.0 7.312611547 20.579885336 23.57120839
41 1 1.0 7.312611547 30.047276739 4.692720301
42 1 1.0 7.312611547 30.047276739 9.412342412
43 1 1.0 7.312611547 30.047276739 14.131964873
44 1 1.0 7.312611547 30.047276739 18.851586632
45 1 1.0 7.312611547 30.047276739 23.57120839
46 1 1.0 7.312611547 39.514668143 4.692720301
47 1 1.0 7.312611547 39.514668143 9.412342412
48 1 1.0 7.312611547 39.514668143 14.131964873
49 1 1.0 7.312611547 39.514668143 18.851586632
50 1 1.0 7.312611547 39.514668143 23.57120839
51 1 1.0 12.752611375 1.645101294 4.692720301
52 1 1.0 12.752611375 1.645101294 9.412342412
53 1 1.0 12.752611375 1.645101294 14.131964873
54 1 1.0 12.752611375 1.645101294 18.851586632
55 1 1.0 12.752611375 1.645101294 23.57120839
56 1 1.0 12.752611375 11.112493227 4.692720301
57 1 1.0 12.752611375 11.112493227 9.412342412
58 1 1.0 12.752611375 11.112493227 14.131964873
59 1 1.0 12.752611375 11.112493227 18.851586632
60 1 1.0 12.752611375 11.112493227 23.57120839
61 1 1.0 12.752611375 20.579885336 4.692720301
62 1 1.0 12.752611375 20.579885336 9.412342412
63 1 1.0 12.752611375 20.579885336 14.131964873
64 1 1.0 12.752611375 20.579885336 18.851586632
65 1 1.0 12.752611375 20.579885336 23.57120839
66 1 1.0 12.752611375 30.047276739 4.692720301
67 1 1.0 12.752611375 30.047276739 9.412342412
68 1 1.0 12.752611375 30.047276739 14.131964873
69 1 1.0 12.752611375 30.047276739 18.851586632
70 1 1.0 12.752611375 30.047276739 23.57120839
71 1 1.0 12.752611375 39.514668143 4.692720301
72 1 1.0 12.752611375 39.514668143 9.412342412
73 1 1.0 12.752611375 39.514668143 14.131964873
74 1 1.0 12.752611375 39.514668143 18.851586632
75 1 1.0 12.752611375 39.514668143 23.57120839
76 1 1.0 18.192612014 1.645101294 4.692720301
77 1 1.0 18.192612014 1.645101294 9.412342412
78 1 1.0 18.192612014 1.645101294 14.131964873
79 1 1.0 18.192612014 1.645101294 18.851586632
80 1 1.0 18.192612014 1.645101294 23.57120839
81 1 1.0 18.192612014 11.112493227 4.692720301
82 1 1.0 18.192612014 11.112493227 9.412342412
83 1 1.0 18.192612014 11.112493227 14.131964873
84 1 1.0 18.192612014 11.112493227 18.851586632
85 1 1.0 18.192612014 11.112493227 23.57120839
86 1 1.0 18.192612014 20.579885336 4.692720301
87 1 1.0 18.192612014 20.579885336 9.412342412
88 1 1.0 18.192612014 20.579885336 14.131964873
89 1 1.0 18.192612014 20.579885336 18.851586632
90 1 1.0 18.192612014 20.579885336 23.57120839
91 1 1.0 18.192612014 30.047276739 4.692720301
92 1 1.0 18.192612014 30.047276739 9.412342412
93 1 1.0 18.192612014 30.047276739 14.131964873
94 1 1.0 18.192612014 30.047276739 18.851586632
95 1 1.0 18.192612014 30.047276739 23.57120839
96 1 1.0 18.192612014 39.514668143 4.692720301
97 1 1.0 18.192612014 39.514668143 9.412342412
98 1 1.0 18.192612014 39.514668143 14.131964873
99 1 1.0 18.192612014 39.514668143 18.851586632
100 1 1.0 18.192612014 39.514668143 23.57120839
101 1 1.0 23.632611842 1.645101294 4.692720301
102 1 1.0 23.632611842 1.645101294 9.412342412
103 1 1.0 23.632611842 1.645101294 14.131964873
104 1 1.0 23.632611842 1.645101294 18.851586632
105 1 1.0 23.632611842 1.645101294 23.57120839
106 1 1.0 23.632611842 11.112493227 4.692720301
107 1 1.0 23.632611842 11.112493227 9.412342412
108 1 1.0 23.632611842 11.112493227 14.131964873
109 1 1.0 23.632611842 11.112493227 18.851586632
110 1 1.0 23.632611842 11.112493227 23.57120839
111 1 1.0 23.632611842 20.579885336 4.692720301
112 1 1.0 23.632611842 20.579885336 9.412342412
113 1 1.0 23.632611842 20.579885336 14.131964873
114 1 1.0 23.632611842 20.579885336 18.851586632
115 1 1.0 23.632611842 20.579885336 23.57120839
116 1 1.0 23.632611842 30.047276739 4.692720301
117 1 1.0 23.632611842 30.047276739 9.412342412
118 1 1.0 23.632611842 30.047276739 14.131964873
119 1 1.0 23.632611842 30.047276739 18.851586632
120 1 1.0 23.632611842 30.047276739 23.57120839
121 1 1.0 23.632611842 39.514668143 4.692720301
122 1 1.0 23.632611842 39.514668143 9.412342412
123 1 1.0 23.632611842 39.514668143 14.131964873
124 1 1.0 23.632611842 39.514668143 18.851586632
125 1 1.0 23.632611842 39.514668143 23.57120839
126 1 1.0 0.847388804 3.088594584 2.332909246
127 1 1.0 0.847388804 3.088594584 7.052531532
128 1 1.0 0.847388804 3.088594584 11.772153291
129 1 1.0 0.847388804 3.088594584 16.491775049
130 1 1.0 0.847388804 3.088594584 21.211396808
131 1 1.0 0.847388804 12.555985987 2.332909246
132 1 1.0 0.847388804 12.555985987 7.052531532
133 1 1.0 0.847388804 12.555985987 11.772153291
134 1 1.0 0.847388804 12.555985987 16.491775049
135 1 1.0 0.847388804 12.555985987 21.211396808
136 1 1.0 0.847388804 22.023378801 2.332909246
137 1 1.0 0.847388804 22.023378801 7.052531532
138 1 1.0 0.847388804 22.023378801 11.772153291
139 1 1.0 0.847388804 22.023378801 16.491775049
140 1 1.0 0.847388804 22.023378801 21.211396808
141 1 1.0 0.847388804 31.490771616 2.332909246
142 1 1.0 0.847388804 31.490771616 7.052531532
143 1 1.0 0.847388804 31.490771616 11.772153291
144 1 1.0 0.847388804 31.490771616 16.491775049
145 1 1.0 0.847388804 31.490771616 21.211396808
146 1 1.0 0.847388804 40.958163019 2.332909246
147 1 1.0 0.847388804 40.958163019 7.052531532
148 1 1.0 0.847388804 40.958163019 11.772153291
149 1 1.0 0.847388804 40.958163019 16.491775049
150 1 1.0 0.847388804 40.958163019 21.211396808
151 1 1.0 6.287388835 3.088594584 2.332909246
152 1 1.0 6.287388835 3.088594584 7.052531532
153 1 1.0 6.287388835 3.088594584 11.772153291
154 1 1.0 6.287388835 3.088594584 16.491775049
155 1 1.0 6.287388835 3.088594584 21.211396808
156 1 1.0 6.287388835 12.555985987 2.332909246
157 1 1.0 6.287388835 12.555985987 7.052531532
158 1 1.0 6.287388835 12.555985987 11.772153291
159 1 1.0 6.287388835 12.555985987 16.491775049
160 1 1.0 6.287388835 12.555985987 21.211396808
161 1 1.0 6.287388835 22.023378801 2.332909246
162 1 1.0 6.287388835 22.023378801 7.052531532
163 1 1.0 6.287388835 22.023378801 11.772153291
164 1 1.0 6.287388835 22.023378801 16.491775049
165 1 1.0 6.287388835 22.023378801 21.211396808
166 1 1.0 6.287388835 31.490771616 2.332909246
167 1 1.0 6.287388835 31.490771616 7.052531532
168 1 1.0 6.287388835 31.490771616 11.772153291
169 1 1.0 6.287388835 31.490771616 16.491775049
170 1 1.0 6.287388835 31.490771616 21.211396808
171 1 1.0 6.287388835 40.958163019 2.332909246
172 1 1.0 6.287388835 40.958163019 7.052531532
173 1 1.0 6.287388835 40.958163019 11.772153291
174 1 1.0 6.287388835 40.958163019 16.491775049
175 1 1.0 6.287388835 40.958163019 21.211396808
176 1 1.0 11.727389474 3.088594584 2.332909246
177 1 1.0 11.727389474 3.088594584 7.052531532
178 1 1.0 11.727389474 3.088594584 11.772153291
179 1 1.0 11.727389474 3.088594584 16.491775049
180 1 1.0 11.727389474 3.088594584 21.211396808
181 1 1.0 11.727389474 12.555985987 2.332909246
182 1 1.0 11.727389474 12.555985987 7.052531532
183 1 1.0 11.727389474 12.555985987 11.772153291
184 1 1.0 11.727389474 12.555985987 16.491775049
185 1 1.0 11.727389474 12.555985987 21.211396808
186 1 1.0 11.727389474 22.023378801 2.332909246
187 1 1.0 11.727389474 22.023378801 7.052531532
188 1 1.0 11.727389474 22.023378801 11.772153291
189 1 1.0 11.727389474 22.023378801 16.491775049
190 1 1.0 11.727389474 22.023378801 21.211396808
191 1 1.0 11.727389474 31.490771616 2.332909246
192 1 1.0 11.727389474 31.490771616 7.052531532
193 1 1.0 11.727389474 31.490771616 11.772153291
194 1 1.0 11.727389474 31.490771616 16.491775049
195 1 1.0 11.727389474 31.490771616 21.211396808
196 1 1.0 11.727389474 40.958163019 2.332909246
197 1 1.0 11.727389474 40.958163019 7.052531532
198 1 1.0 11.727389474 40.958163019 11.772153291
199 1 1.0 11.727389474 40.958163019 16.491775049
200 1 1.0 11.727389474 40.958163019 21.211396808
201 1 1.0 17.167389302 3.088594584 2.332909246
202 1 1.0 17.167389302 3.088594584 7.052531532
203 1 1.0 17.167389302 3.088594584 11.772153291
204 1 1.0 17.167389302 3.088594584 16.491775049
205 1 1.0 17.167389302 3.088594584 21.211396808
206 1 1.0 17.167389302 12.555985987 2.332909246
207 1 1.0 17.167389302 12.555985987 7.052531532
208 1 1.0 17.167389302 12.555985987 11.772153291
209 1 1.0 17.167389302 12.555985987 16.491775049
210 1 1.0 17.167389302 12.555985987 21.211396808
211 1 1.0 17.167389302 22.023378801 2.332909246
212 1 1.0 17.167389302 22.023378801 7.052531532
213 1 1.0 17.167389302 22.023378801 11.772153291
214 1 1.0 17.167389302 22.023378801 16.491775049
215 1 1.0 17.167389302 22.023378801 21.211396808
216 1 1.0 17.167389302 31.490771616 2.332909246
217 1 1.0 17.167389302 31.490771616 7.052531532
218 1 1.0 17.167389302 31.490771616 11.772153291
219 1 1.0 17.167389302 31.490771616 16.491775049
220 1 1.0 17.167389302 31.490771616 21.211396808
221 1 1.0 17.167389302 40.958163019 2.332909246
222 1 1.0 17.167389302 40.958163019 7.052531532
223 1 1.0 17.167389302 40.958163019 11.772153291
224 1 1.0 17.167389302 40.958163019 16.491775049
225 1 1.0 17.167389302 40.958163019 21.211396808
226 1 1.0 22.607389131 3.088594584 2.332909246
227 1 1.0 22.607389131 3.088594584 7.052531532
228 1 1.0 22.607389131 3.088594584 11.772153291
229 1 1.0 22.607389131 3.088594584 16.491775049
230 1 1.0 22.607389131 3.088594584 21.211396808
231 1 1.0 22.607389131 12.555985987 2.332909246
232 1 1.0 22.607389131 12.555985987 7.052531532
233 1 1.0 22.607389131 12.555985987 11.772153291
234 1 1.0 22.607389131 12.555985987 16.491775049
235 1 1.0 22.607389131 12.555985987 21.211396808
236 1 1.0 22.607389131 22.023378801 2.332909246
237 1 1.0 22.607389131 22.023378801 7.052531532
238 1 1.0 22.607389131 22.023378801 11.772153291
239 1 1.0 22.607389131 22.023378801 16.491775049
240 1 1.0 22.607389131 22.023378801 21.211396808
241 1 1.0 22.607389131 31.490771616 2.332909246
242 1 1.0 22.607389131 31.490771616 7.052531532
243 1 1.0 22.607389131 31.490771616 11.772153291
244 1 1.0 22.607389131 31.490771616 16.491775049
245 1 1.0 22.607389131 31.490771616 21.211396808
246 1 1.0 22.607389131 40.958163019 2.332909246
247 1 1.0 22.607389131 40.958163019 7.052531532
248 1 1.0 22.607389131 40.958163019 11.772153291
249 1 1.0 22.607389131 40.958163019 16.491775049
250 1 1.0 22.607389131 40.958163019 21.211396808
251 1 1.0 3.567388921 1.645101294 2.332909246
252 1 1.0 3.567388921 1.645101294 7.052531532
253 1 1.0 3.567388921 1.645101294 11.772153291
254 1 1.0 3.567388921 1.645101294 16.491775049
255 1 1.0 3.567388921 1.645101294 21.211396808
256 1 1.0 3.567388921 11.112493227 2.332909246
257 1 1.0 3.567388921 11.112493227 7.052531532
258 1 1.0 3.567388921 11.112493227 11.772153291
259 1 1.0 3.567388921 11.112493227 16.491775049
260 1 1.0 3.567388921 11.112493227 21.211396808
261 1 1.0 3.567388921 20.579885336 2.332909246
262 1 1.0 3.567388921 20.579885336 7.052531532
263 1 1.0 3.567388921 20.579885336 11.772153291
264 1 1.0 3.567388921 20.579885336 16.491775049
265 1 1.0 3.567388921 20.579885336 21.211396808
266 1 1.0 3.567388921 30.047276739 2.332909246
267 1 1.0 3.567388921 30.047276739 7.052531532
268 1 1.0 3.567388921 30.047276739 11.772153291
269 1 1.0 3.567388921 30.047276739 16.491775049
270 1 1.0 3.567388921 30.047276739 21.211396808
271 1 1.0 3.567388921 39.514668143 2.332909246
272 1 1.0 3.567388921 39.514668143 7.052531532
273 1 1.0 3.567388921 39.514668143 11.772153291
274 1 1.0 3.567388921 39.514668143 16.491775049
275 1 1.0 3.567388921 39.514668143 21.211396808
276 1 1.0 9.007388749 1.645101294 2.332909246
277 1 1.0 9.007388749 1.645101294 7.052531532
278 1 1.0 9.007388749 1.645101294 11.772153291
279 1 1.0 9.007388749 1.645101294 16.491775049
280 1 1.0 9.007388749 1.645101294 21.211396808
281 1 1.0 9.007388749 11.112493227 2.332909246
282 1 1.0 9.007388749 11.112493227 7.052531532
283 1 1.0 9.007388749 11.112493227 11.772153291
284 1 1.0 9.007388749 11.112493227 16.491775049
285 1 1.0 9.007388749 11.112493227 21.211396808
286 1 1.0 9.007388749 20.579885336 2.332909246
287 1 1.0 9.007388749 20.579885336 7.052531532
288 1 1.0 9.007388749 20.579885336 11.772153291
289 1 1.0 9.007388749 20.579885336 16.491775049
290 1 1.0 9.007388749 20.579885336 21.211396808
291 1 1.0 9.007388749 30.047276739 2.332909246
292 1 1.0 9.007388749 30.047276739 7.052531532
293 1 1.0 9.007388749 30.047276739 11.772153291
294 1 1.0 9.007388749 30.047276739 16.491775049
295 1 1.0 9.007388749 30.047276739 21.211396808
296 1 1.0 9.007388749 39.514668143 2.332909246
297 1 1.0 9.007388749 39.514668143 7.052531532
298 1 1.0 9.007388749 39.514668143 11.772153291
299 1 1.0 9.007388749 39.514668143 16.491775049
300 1 1.0 9.007388749 39.514668143 21.211396808
301 1 1.0 14.447388577 1.645101294 2.332909246
302 1 1.0 14.447388577 1.645101294 7.052531532
303 1 1.0 14.447388577 1.645101294 11.772153291
304 1 1.0 14.447388577 1.645101294 16.491775049
305 1 1.0 14.447388577 1.645101294 21.211396808
306 1 1.0 14.447388577 11.112493227 2.332909246
307 1 1.0 14.447388577 11.112493227 7.052531532
308 1 1.0 14.447388577 11.112493227 11.772153291
309 1 1.0 14.447388577 11.112493227 16.491775049
310 1 1.0 14.447388577 11.112493227 21.211396808
311 1 1.0 14.447388577 20.579885336 2.332909246
312 1 1.0 14.447388577 20.579885336 7.052531532
313 1 1.0 14.447388577 20.579885336 11.772153291
314 1 1.0 14.447388577 20.579885336 16.491775049
315 1 1.0 14.447388577 20.579885336 21.211396808
316 1 1.0 14.447388577 30.047276739 2.332909246
317 1 1.0 14.447388577 30.047276739 7.052531532
318 1 1.0 14.447388577 30.047276739 11.772153291
319 1 1.0 14.447388577 30.047276739 16.491775049
320 1 1.0 14.447388577 30.047276739 21.211396808
321 1 1.0 14.447388577 39.514668143 2.332909246
322 1 1.0 14.447388577 39.514668143 7.052531532
323 1 1.0 14.447388577 39.514668143 11.772153291
324 1 1.0 14.447388577 39.514668143 16.491775049
325 1 1.0 14.447388577 39.514668143 21.211396808
326 1 1.0 19.887390027 1.645101294 2.332909246
327 1 1.0 19.887390027 1.645101294 7.052531532
328 1 1.0 19.887390027 1.645101294 11.772153291
329 1 1.0 19.887390027 1.645101294 16.491775049
330 1 1.0 19.887390027 1.645101294 21.211396808
331 1 1.0 19.887390027 11.112493227 2.332909246
332 1 1.0 19.887390027 11.112493227 7.052531532
333 1 1.0 19.887390027 11.112493227 11.772153291
334 1 1.0 19.887390027 11.112493227 16.491775049
335 1 1.0 19.887390027 11.112493227 21.211396808
336 1 1.0 19.887390027 20.579885336 2.332909246
337 1 1.0 19.887390027 20.579885336 7.052531532
338 1 1.0 19.887390027 20.579885336 11.772153291
339 1 1.0 19.887390027 20.579885336 16.491775049
340 1 1.0 19.887390027 20.579885336 21.211396808
341 1 1.0 19.887390027 30.047276739 2.332909246
342 1 1.0 19.887390027 30.047276739 7.052531532
343 1 1.0 19.887390027 30.047276739 11.772153291
344 1 1.0 19.887390027 30.047276739 16.491775049
345 1 1.0 19.887390027 30.047276739 21.211396808
346 1 1.0 19.887390027 39.514668143 2.332909246
347 1 1.0 19.887390027 39.514668143 7.052531532
348 1 1.0 19.887390027 39.514668143 11.772153291
349 1 1.0 19.887390027 39.514668143 16.491775049
350 1 1.0 19.887390027 39.514668143 21.211396808
351 1 1.0 25.327389855 1.645101294 2.332909246
352 1 1.0 25.327389855 1.645101294 7.052531532
353 1 1.0 25.327389855 1.645101294 11.772153291
354 1 1.0 25.327389855 1.645101294 16.491775049
355 1 1.0 25.327389855 1.645101294 21.211396808
356 1 1.0 25.327389855 11.112493227 2.332909246
357 1 1.0 25.327389855 11.112493227 7.052531532
358 1 1.0 25.327389855 11.112493227 11.772153291
359 1 1.0 25.327389855 11.112493227 16.491775049
360 1 1.0 25.327389855 11.112493227 21.211396808
361 1 1.0 25.327389855 20.579885336 2.332909246
362 1 1.0 25.327389855 20.579885336 7.052531532
363 1 1.0 25.327389855 20.579885336 11.772153291
364 1 1.0 25.327389855 20.579885336 16.491775049
365 1 1.0 25.327389855 20.579885336 21.211396808
366 1 1.0 25.327389855 30.047276739 2.332909246
367 1 1.0 25.327389855 30.047276739 7.052531532
368 1 1.0 25.327389855 30.047276739 11.772153291
369 1 1.0 25.327389855 30.047276739 16.491775049
370 1 1.0 25.327389855 30.047276739 21.211396808
371 1 1.0 25.327389855 39.514668143 2.332909246
372 1 1.0 25.327389855 39.514668143 7.052531532
373 1 1.0 25.327389855 39.514668143 11.772153291
374 1 1.0 25.327389855 39.514668143 16.491775049
375 1 1.0 25.327389855 39.514668143 21.211396808
376 1 1.0 4.592611227 3.088594584 4.692720301
377 1 1.0 4.592611227 3.088594584 9.412342412
378 1 1.0 4.592611227 3.088594584 14.131964873
379 1 1.0 4.592611227 3.088594584 18.851586632
380 1 1.0 4.592611227 3.088594584 23.57120839
381 1 1.0 4.592611227 12.555985987 4.692720301
382 1 1.0 4.592611227 12.555985987 9.412342412
383 1 1.0 4.592611227 12.555985987 14.131964873
384 1 1.0 4.592611227 12.555985987 18.851586632
385 1 1.0 4.592611227 12.555985987 23.57120839
386 1 1.0 4.592611227 22.023378801 4.692720301
387 1 1.0 4.592611227 22.023378801 9.412342412
388 1 1.0 4.592611227 22.023378801 14.131964873
389 1 1.0 4.592611227 22.023378801 18.851586632
390 1 1.0 4.592611227 22.023378801 23.57120839
391 1 1.0 4.592611227 31.490771616 4.692720301
392 1 1.0 4.592611227 31.490771616 9.412342412
393 1 1.0 4.592611227 31.490771616 14.131964873
394 1 1.0 4.592611227 31.490771616 18.851586632
395 1 1.0 4.592611227 31.490771616 23.57120839
396 1 1.0 4.592611227 40.958163019 4.692720301
397 1 1.0 4.592611227 40.958163019 9.412342412
398 1 1.0 4.592611227 40.958163019 14.131964873
399 1 1.0 4.592611227 40.958163019 18.851586632
400 1 1.0 4.592611227 40.958163019 23.57120839
401 1 1.0 10.032611461 3.088594584 4.692720301
402 1 1.0 10.032611461 3.088594584 9.412342412
403 1 1.0 10.032611461 3.088594584 14.131964873
404 1 1.0 10.032611461 3.088594584 18.851586632
405 1 1.0 10.032611461 3.088594584 23.57120839
406 1 1.0 10.032611461 12.555985987 4.692720301
407 1 1.0 10.032611461 12.555985987 9.412342412
408 1 1.0 10.032611461 12.555985987 14.131964873
409 1 1.0 10.032611461 12.555985987 18.851586632
410 1 1.0 10.032611461 12.555985987 23.57120839
411 1 1.0 10.032611461 22.023378801 4.692720301
412 1 1.0 10.032611461 22.023378801 9.412342412
413 1 1.0 10.032611461 22.023378801 14.131964873
414 1 1.0 10.032611461 22.023378801 18.851586632
415 1 1.0 10.032611461 22.023378801 23.57120839
416 1 1.0 10.032611461 31.490771616 4.692720301
417 1 1.0 10.032611461 31.490771616 9.412342412
418 1 1.0 10.032611461 31.490771616 14.131964873
419 1 1.0 10.032611461 31.490771616 18.851586632
420 1 1.0 10.032611461 31.490771616 23.57120839
421 1 1.0 10.032611461 40.958163019 4.692720301
422 1 1.0 10.032611461 40.958163019 9.412342412
423 1 1.0 10.032611461 40.958163019 14.131964873
424 1 1.0 10.032611461 40.958163019 18.851586632
425 1 1.0 10.032611461 40.958163019 23.57120839
426 1 1.0 15.472611289 3.088594584 4.692720301
427 1 1.0 15.472611289 3.088594584 9.412342412
428 1 1.0 15.472611289 3.088594584 14.131964873
429 1 1.0 15.472611289 3.088594584 18.851586632
430 1 1.0 15.472611289 3.088594584 23.57120839
431 1 1.0 15.472611289 12.555985987 4.692720301
432 1 1.0 15.472611289 12.555985987 9.412342412
433 1 1.0 15.472611289 12.555985987 14.131964873
434 1 1.0 15.472611289 12.555985987 18.851586632
435 1 1.0 15.472611289 12.555985987 23.57120839
436 1 1.0 15.472611289 22.023378801 4.692720301
437 1 1.0 15.472611289 22.023378801 9.412342412
438 1 1.0 15.472611289 22.023378801 14.131964873
439 1 1.0 15.472611289 22.023378801 18.851586632
440 1 1.0 15.472611289 22.023378801 23.57120839
441 1 1.0 15.472611289 31.490771616 4.692720301
442 1 1.0 15.472611289 31.490771616 9.412342412
443 1 1.0 15.472611289 31.490771616 14.131964873
444 1 1.0 15.472611289 31.490771616 18.851586632
445 1 1.0 15.472611289 31.490771616 23.57120839
446 1 1.0 15.472611289 40.958163019 4.692720301
447 1 1.0 15.472611289 40.958163019 9.412342412
448 1 1.0 15.472611289 40.958163019 14.131964873
449 1 1.0 15.472611289 40.958163019 18.851586632
450 1 1.0 15.472611289 40.958163019 23.57120839
451 1 1.0 20.912611117 3.088594584 4.692720301
452 1 1.0 20.912611117 3.088594584 9.412342412
453 1 1.0 20.912611117 3.088594584 14.131964873
454 1 1.0 20.912611117 3.088594584 18.851586632
455 1 1.0 20.912611117 3.088594584 23.57120839
456 1 1.0 20.912611117 12.555985987 4.692720301
457 1 1.0 20.912611117 12.555985987 9.412342412
458 1 1.0 20.912611117 12.555985987 14.131964873
459 1 1.0 20.912611117 12.555985987 18.851586632
460 1 1.0 20.912611117 12.555985987 23.57120839
461 1 1.0 20.912611117 22.023378801 4.692720301
462 1 1.0 20.912611117 22.023378801 9.412342412
463 1 1.0 20.912611117 22.023378801 14.131964873
464 1 1.0 20.912611117 22.023378801 18.851586632
465 1 1.0 20.912611117 22.023378801 23.57120839
466 1 1.0 20.912611117 31.490771616 4.692720301
467 1 1.0 20.912611117 31.490771616 9.412342412
468 1 1.0 20.912611117 31.490771616 14.131964873
469 1 1.0 20.912611117 31.490771616 18.851586632
470 1 1.0 20.912611117 31.490771616 23.57120839
471 1 1.0 20.912611117 40.958163019 4.692720301
472 1 1.0 20.912611117 40.958163019 9.412342412
473 1 1.0 20.912611117 40.958163019 14.131964873
474 1 1.0 20.912611117 40.958163019 18.851586632
475 1 1.0 20.912611117 40.958163019 23.57120839
476 1 1.0 26.352612567 3.088594584 4.692720301
477 1 1.0 26.352612567 3.088594584 9.412342412
478 1 1.0 26.352612567 3.088594584 14.131964873
479 1 1.0 26.352612567 3.088594584 18.851586632
480 1 1.0 26.352612567 3.088594584 23.57120839
481 1 1.0 26.352612567 12.555985987 4.692720301
482 1 1.0 26.352612567 12.555985987 9.412342412
483 1 1.0 26.352612567 12.555985987 14.131964873
484 1 1.0 26.352612567 12.555985987 18.851586632
485 1 1.0 26.352612567 12.555985987 23.57120839
486 1 1.0 26.352612567 22.023378801 4.692720301
487 1 1.0 26.352612567 22.023378801 9.412342412
488 1 1.0 26.352612567 22.023378801 14.131964873
489 1 1.0 26.352612567 22.023378801 18.851586632
490 1 1.0 26.352612567 22.023378801 23.57120839
491 1 1.0 26.352612567 31.490771616 4.692720301
492 1 1.0 26.352612567 31.490771616 9.412342412
493 1 1.0 26.352612567 31.490771616 14.131964873
494 1 1.0 26.352612567 31.490771616 18.851586632
495 1 1.0 26.352612567 31.490771616 23.57120839
496 1 1.0 26.352612567 40.958163019 4.692720301
497 1 1.0 26.352612567 40.958163019 9.412342412
498 1 1.0 26.352612567 40.958163019 14.131964873
499 1 1.0 26.352612567 40.958163019 18.851586632
500 1 1.0 26.352612567 40.958163019 23.57120839
501 1 1.0 4.592611227 6.378797525 4.692720301
502 1 1.0 4.592611227 6.378797525 9.412342412
503 1 1.0 4.592611227 6.378797525 14.131964873
504 1 1.0 4.592611227 6.378797525 18.851586632
505 1 1.0 4.592611227 6.378797525 23.57120839
506 1 1.0 4.592611227 15.846189634 4.692720301
507 1 1.0 4.592611227 15.846189634 9.412342412
508 1 1.0 4.592611227 15.846189634 14.131964873
509 1 1.0 4.592611227 15.846189634 18.851586632
510 1 1.0 4.592611227 15.846189634 23.57120839
511 1 1.0 4.592611227 25.313582448 4.692720301
512 1 1.0 4.592611227 25.313582448 9.412342412
513 1 1.0 4.592611227 25.313582448 14.131964873
514 1 1.0 4.592611227 25.313582448 18.851586632
515 1 1.0 4.592611227 25.313582448 23.57120839
516 1 1.0 4.592611227 34.780973852 4.692720301
517 1 1.0 4.592611227 34.780973852 9.412342412
518 1 1.0 4.592611227 34.780973852 14.131964873
519 1 1.0 4.592611227 34.780973852 18.851586632
520 1 1.0 4.592611227 34.780973852 23.57120839
521 1 1.0 4.592611227 44.248365255 4.692720301
522 1 1.0 4.592611227 44.248365255 9.412342412
523 1 1.0 4.592611227 44.248365255 14.131964873
524 1 1.0 4.592611227 44.248365255 18.851586632
525 1 1.0 4.592611227 44.248365255 23.57120839
526 1 1.0 10.032611461 6.378797525 4.692720301
527 1 1.0 10.032611461 6.378797525 9.412342412
528 1 1.0 10.032611461 6.378797525 14.131964873
529 1 1.0 10.032611461 6.378797525 18.851586632
530 1 1.0 10.032611461 6.378797525 23.57120839
531 1 1.0 10.032611461 15.846189634 4.692720301
532 1 1.0 10.032611461 15.846189634 9.412342412
533 1 1.0 10.032611461 15.846189634 14.131964873
534 1 1.0 10.032611461 15.846189634 18.851586632
535 1 1.0 10.032611461 15.846189634 23.57120839
536 1 1.0 10.032611461 25.313582448 4.692720301
537 1 1.0 10.032611461 25.313582448 9.412342412
538 1 1.0 10.032611461 25.313582448 14.131964873
539 1 1.0 10.032611461 25.313582448 18.851586632
540 1 1.0 10.032611461 25.313582448 23.57120839
541 1 1.0 10.032611461 34.780973852 4.692720301
542 1 1.0 10.032611461 34.780973852 9.412342412
543 1 1.0 10.032611461 34.780973852 14.131964873
544 1 1.0 10.032611461 34.780973852 18.851586632
545 1 1.0 10.032611461 34.780973852 23.57120839
546 1 1.0 10.032611461 44.248365255 4.692720301
547 1 1.0 10.032611461 44.248365255 9.412342412
548 1 1.0 10.032611461 44.248365255 14.131964873
549 1 1.0 10.032611461 44.248365255 18.851586632
550 1 1.0 10.032611461 44.248365255 23.57120839
551 1 1.0 15.472611289 6.378797525 4.692720301
552 1 1.0 15.472611289 6.378797525 9.412342412
553 1 1.0 15.472611289 6.378797525 14.131964873
554 1 1.0 15.472611289 6.378797525 18.851586632
555 1 1.0 15.472611289 6.378797525 23.57120839
556 1 1.0 15.472611289 15.846189634 4.692720301
557 1 1.0 15.472611289 15.846189634 9.412342412
558 1 1.0 15.472611289 15.846189634 14.131964873
559 1 1.0 15.472611289 15.846189634 18.851586632
560 1 1.0 15.472611289 15.846189634 23.57120839
561 1 1.0 15.472611289 25.313582448 4.692720301
562 1 1.0 15.472611289 25.313582448 9.412342412
563 1 1.0 15.472611289 25.313582448 14.131964873
564 1 1.0 15.472611289 25.313582448 18.851586632
565 1 1.0 15.472611289 25.313582448 23.57120839
566 1 1.0 15.472611289 34.780973852 4.692720301
567 1 1.0 15.472611289 34.780973852 9.412342412
568 1 1.0 15.472611289 34.780973852 14.131964873
569 1 1.0 15.472611289 34.780973852 18.851586632
570 1 1.0 15.472611289 34.780973852 23.57120839
571 1 1.0 15.472611289 44.248365255 4.692720301
572 1 1.0 15.472611289 44.248365255 9.412342412
573 1 1.0 15.472611289 44.248365255 14.131964873
574 1 1.0 15.472611289 44.248365255 18.851586632
575 1 1.0 15.472611289 44.248365255 23.57120839
576 1 1.0 20.912611117 6.378797525 4.692720301
577 1 1.0 20.912611117 6.378797525 9.412342412
578 1 1.0 20.912611117 6.378797525 14.131964873
579 1 1.0 20.912611117 6.378797525 18.851586632
580 1 1.0 20.912611117 6.378797525 23.57120839
581 1 1.0 20.912611117 15.846189634 4.692720301
582 1 1.0 20.912611117 15.846189634 9.412342412
583 1 1.0 20.912611117 15.846189634 14.131964873
584 1 1.0 20.912611117 15.846189634 18.851586632
585 1 1.0 20.912611117 15.846189634 23.57120839
586 1 1.0 20.912611117 25.313582448 4.692720301
587 1 1.0 20.912611117 25.313582448 9.412342412
588 1 1.0 20.912611117 25.313582448 14.131964873
589 1 1.0 20.912611117 25.313582448 18.851586632
590 1 1.0 20.912611117 25.313582448 23.57120839
591 1 1.0 20.912611117 34.780973852 4.692720301
592 1 1.0 20.912611117 34.780973852 9.412342412
593 1 1.0 20.912611117 34.780973852 14.131964873
594 1 1.0 20.912611117 34.780973852 18.851586632
595 1 1.0 20.912611117 34.780973852 23.57120839
596 1 1.0 20.912611117 44.248365255 4.692720301
597 1 1.0 20.912611117 44.248365255 9.412342412
598 1 1.0 20.912611117 44.248365255 14.131964873
599 1 1.0 20.912611117 44.248365255 18.851586632
600 1 1.0 20.912611117 44.248365255 23.57120839
601 1 1.0 26.352612567 6.378797525 4.692720301
602 1 1.0 26.352612567 6.378797525 9.412342412
603 1 1.0 26.352612567 6.378797525 14.131964873
604 1 1.0 26.352612567 6.378797525 18.851586632
605 1 1.0 26.352612567 6.378797525 23.57120839
606 1 1.0 26.352612567 15.846189634 4.692720301
607 1 1.0 26.352612567 15.846189634 9.412342412
608 1 1.0 26.352612567 15.846189634 14.131964873
609 1 1.0 26.352612567 15.846189634 18.851586632
610 1 1.0 26.352612567 15.846189634 23.57120839
611 1 1.0 26.352612567 25.313582448 4.692720301
612 1 1.0 26.352612567 25.313582448 9.412342412
613 1 1.0 26.352612567 25.313582448 14.131964873
614 1 1.0 26.352612567 25.313582448 18.851586632
615 1 1.0 26.352612567 25.313582448 23.57120839
616 1 1.0 26.352612567 34.780973852 4.692720301
617 1 1.0 26.352612567 34.780973852 9.412342412
618 1 1.0 26.352612567 34.780973852 14.131964873
619 1 1.0 26.352612567 34.780973852 18.851586632
620 1 1.0 26.352612567 34.780973852 23.57120839
621 1 1.0 26.352612567 44.248365255 4.692720301
622 1 1.0 26.352612567 44.248365255 9.412342412
623 1 1.0 26.352612567 44.248365255 14.131964873