# Converted from POSCAR to lammps format

300 atoms
2 atom types

0.000000    16.9520244791310   xlo xhi
0.000000    14.6808838445031   ylo yhi
0.000000    16.8314735056951   zlo zhi

  -8.4760122395655     0.0000000000000     0.0000000000000   xy xz yz

Atoms

   1  1         0.0000000000000    1.9574511792671    2.1019093446102
   2  1         3.3904048958262    1.9574511792671    2.1019093446102
   3  1         6.7808097916524    1.9574511792671    2.1019093446102
   4  1        10.1712146874786    1.9574511792671    2.1019093446102
   5  1        13.5616195833048    1.9574511792671    2.1019093446102
   6  1        -1.6952024479131    4.8936279481677    2.1019093446102
   7  1         1.6952024479131    4.8936279481677    2.1019093446102
   8  1         5.0856073437393    4.8936279481677    2.1019093446102
   9  1         8.4760122395655    4.8936279481677    2.1019093446102
  10  1        11.8664171353917    4.8936279481677    2.1019093446102
  11  1        -3.3904048958262    7.8298047170683    2.1019093446102
  12  1         0.0000000000000    7.8298047170683    2.1019093446102
  13  1         3.3904048958262    7.8298047170683    2.1019093446102
  14  1         6.7808097916524    7.8298047170683    2.1019093446102
  15  1        10.1712146874786    7.8298047170683    2.1019093446102
  16  1        -5.0856073437393   10.7659814859690    2.1019093446102
  17  1        -1.6952024479131   10.7659814859690    2.1019093446102
  18  1         1.6952024479131   10.7659814859690    2.1019093446102
  19  1         5.0856073437393   10.7659814859690    2.1019093446102
  20  1         8.4760122395655   10.7659814859690    2.1019093446102
  21  1        -6.7808097916524   13.7021582548696    2.1019093446102
  22  1        -3.3904048958262   13.7021582548696    2.1019093446102
  23  1         0.0000000000000   13.7021582548696    2.1019093446102
  24  1         3.3904048958262   13.7021582548696    2.1019093446102
  25  1         6.7808097916524   13.7021582548696    2.1019093446102
  26  1         0.0000000000000    1.9574511792671    7.7124005131753
  27  1         3.3904048958262    1.9574511792671    7.7124005131753
  28  1         6.7808097916524    1.9574511792671    7.7124005131753
  29  1        10.1712146874786    1.9574511792671    7.7124005131753
  30  1        13.5616195833048    1.9574511792671    7.7124005131753
  31  1        -1.6952024479131    4.8936279481677    7.7124005131753
  32  1         1.6952024479131    4.8936279481677    7.7124005131753
  33  1         5.0856073437393    4.8936279481677    7.7124005131753
  34  1         8.4760122395655    4.8936279481677    7.7124005131753
  35  1        11.8664171353917    4.8936279481677    7.7124005131753
  36  1        -3.3904048958262    7.8298047170683    7.7124005131753
  37  1         0.0000000000000    7.8298047170683    7.7124005131753
  38  1         3.3904048958262    7.8298047170683    7.7124005131753
  39  1         6.7808097916524    7.8298047170683    7.7124005131753
  40  1        10.1712146874786    7.8298047170683    7.7124005131753
  41  1        -5.0856073437393   10.7659814859690    7.7124005131753
  42  1        -1.6952024479131   10.7659814859690    7.7124005131753
  43  1         1.6952024479131   10.7659814859690    7.7124005131753
  44  1         5.0856073437393   10.7659814859690    7.7124005131753
  45  1         8.4760122395655   10.7659814859690    7.7124005131753
  46  1        -6.7808097916524   13.7021582548696    7.7124005131753
  47  1        -3.3904048958262   13.7021582548696    7.7124005131753
  48  1         0.0000000000000   13.7021582548696    7.7124005131753
  49  1         3.3904048958262   13.7021582548696    7.7124005131753
  50  1         6.7808097916524   13.7021582548696    7.7124005131753
  51  1         0.0000000000000    1.9574511792671   13.3228916817403
  52  1         3.3904048958262    1.9574511792671   13.3228916817403
  53  1         6.7808097916524    1.9574511792671   13.3228916817403
  54  1        10.1712146874786    1.9574511792671   13.3228916817403
  55  1        13.5616195833048    1.9574511792671   13.3228916817403
  56  1        -1.6952024479131    4.8936279481677   13.3228916817403
  57  1         1.6952024479131    4.8936279481677   13.3228916817403
  58  1         5.0856073437393    4.8936279481677   13.3228916817403
  59  1         8.4760122395655    4.8936279481677   13.3228916817403
  60  1        11.8664171353917    4.8936279481677   13.3228916817403
  61  1        -3.3904048958262    7.8298047170684   13.3228916817403
  62  1         0.0000000000000    7.8298047170684   13.3228916817403
  63  1         3.3904048958262    7.8298047170684   13.3228916817403
  64  1         6.7808097916524    7.8298047170684   13.3228916817403
  65  1        10.1712146874786    7.8298047170684   13.3228916817403
  66  1        -5.0856073437393   10.7659814859690   13.3228916817403
  67  1        -1.6952024479131   10.7659814859690   13.3228916817403
  68  1         1.6952024479131   10.7659814859690   13.3228916817403
  69  1         5.0856073437393   10.7659814859690   13.3228916817403
  70  1         8.4760122395655   10.7659814859690   13.3228916817403
  71  1        -6.7808097916524   13.7021582548696   13.3228916817403
  72  1        -3.3904048958262   13.7021582548696   13.3228916817403
  73  1         0.0000000000000   13.7021582548696   13.3228916817403
  74  1         3.3904048958262   13.7021582548696   13.3228916817403
  75  1         6.7808097916524   13.7021582548696   13.3228916817403
  76  1         1.6952024479131    0.9787255896336    4.9071549288928
  77  1         5.0856073437393    0.9787255896336    4.9071549288928
  78  1         8.4760122395655    0.9787255896336    4.9071549288928
  79  1        11.8664171353917    0.9787255896336    4.9071549288928
  80  1        15.2568220312179    0.9787255896336    4.9071549288928
  81  1         0.0000000000000    3.9149023585342    4.9071549288928
  82  1         3.3904048958262    3.9149023585342    4.9071549288928
  83  1         6.7808097916524    3.9149023585342    4.9071549288928
  84  1        10.1712146874786    3.9149023585342    4.9071549288928
  85  1        13.5616195833048    3.9149023585342    4.9071549288928
  86  1        -1.6952024479131    6.8510791274348    4.9071549288928
  87  1         1.6952024479131    6.8510791274348    4.9071549288928
  88  1         5.0856073437393    6.8510791274348    4.9071549288928
  89  1         8.4760122395655    6.8510791274348    4.9071549288928
  90  1        11.8664171353917    6.8510791274348    4.9071549288928
  91  1        -3.3904048958262    9.7872558963354    4.9071549288928
  92  1         0.0000000000000    9.7872558963354    4.9071549288928
  93  1         3.3904048958262    9.7872558963354    4.9071549288928
  94  1         6.7808097916524    9.7872558963354    4.9071549288928
  95  1        10.1712146874786    9.7872558963354    4.9071549288928
  96  1        -5.0856073437393   12.7234326652360    4.9071549288928
  97  1        -1.6952024479131   12.7234326652360    4.9071549288928
  98  1         1.6952024479131   12.7234326652360    4.9071549288928
  99  1         5.0856073437393   12.7234326652360    4.9071549288928
 100  1         8.4760122395655   12.7234326652360    4.9071549288928
 101  1         1.6952024479131    0.9787255896336   10.5176460974578
 102  1         5.0856073437393    0.9787255896336   10.5176460974578
 103  1         8.4760122395655    0.9787255896336   10.5176460974578
 104  1        11.8664171353917    0.9787255896336   10.5176460974578
 105  1        15.2568220312179    0.9787255896336   10.5176460974578
 106  1         0.0000000000000    3.9149023585342   10.5176460974578
 107  1         3.3904048958262    3.9149023585342   10.5176460974578
 108  1         6.7808097916524    3.9149023585342   10.5176460974578
 109  1        10.1712146874786    3.9149023585342   10.5176460974578
 110  1        13.5616195833048    3.9149023585342   10.5176460974578
 111  1        -1.6952024479131    6.8510791274348   10.5176460974578
 112  1         1.6952024479131    6.8510791274348   10.5176460974578
 113  1         5.0856073437393    6.8510791274348   10.5176460974578
 114  1         8.4760122395655    6.8510791274348   10.5176460974578
 115  1        11.8664171353917    6.8510791274348   10.5176460974578
 116  1        -3.3904048958262    9.7872558963354   10.5176460974578
 117  1         0.0000000000000    9.7872558963354   10.5176460974578
 118  1         3.3904048958262    9.7872558963354   10.5176460974578
 119  1         6.7808097916524    9.7872558963354   10.5176460974578
 120  1        10.1712146874786    9.7872558963354   10.5176460974578
 121  1        -5.0856073437393   12.7234326652361   10.5176460974578
 122  1        -1.6952024479131   12.7234326652361   10.5176460974578
 123  1         1.6952024479131   12.7234326652361   10.5176460974578
 124  1         5.0856073437393   12.7234326652361   10.5176460974578
 125  1         8.4760122395655   12.7234326652361   10.5176460974578
 126  1         1.6952024479131    0.9787255896336   16.1281372660228
 127  1         5.0856073437393    0.9787255896336   16.1281372660228
 128  1         8.4760122395655    0.9787255896336   16.1281372660228
 129  1        11.8664171353917    0.9787255896336   16.1281372660228
 130  1        15.2568220312179    0.9787255896336   16.1281372660228
 131  1         0.0000000000000    3.9149023585342   16.1281372660228
 132  1         3.3904048958262    3.9149023585342   16.1281372660228
 133  1         6.7808097916524    3.9149023585342   16.1281372660228
 134  1        10.1712146874786    3.9149023585342   16.1281372660228
 135  1        13.5616195833048    3.9149023585342   16.1281372660228
 136  1        -1.6952024479131    6.8510791274348   16.1281372660228
 137  1         1.6952024479131    6.8510791274348   16.1281372660228
 138  1         5.0856073437393    6.8510791274348   16.1281372660228
 139  1         8.4760122395655    6.8510791274348   16.1281372660228
 140  1        11.8664171353917    6.8510791274348   16.1281372660228
 141  1        -3.3904048958262    9.7872558963355   16.1281372660228
 142  1         0.0000000000000    9.7872558963355   16.1281372660228
 143  1         3.3904048958262    9.7872558963355   16.1281372660228
 144  1         6.7808097916524    9.7872558963355   16.1281372660228
 145  1        10.1712146874786    9.7872558963355   16.1281372660228
 146  1        -5.0856073437393   12.7234326652361   16.1281372660228
 147  1        -1.6952024479131   12.7234326652361   16.1281372660228
 148  1         1.6952024479131   12.7234326652361   16.1281372660228
 149  1         5.0856073437393   12.7234326652361   16.1281372660228
 150  1         8.4760122395655   12.7234326652361   16.1281372660228
 151  2         0.0000000000000    1.9574511792671    0.0020192331105
 152  2         3.3904048958262    1.9574511792671    0.0020192331105
 153  2         6.7808097916524    1.9574511792671    0.0020192331105
 154  2        10.1712146874786    1.9574511792671    0.0020192331105
 155  2        13.5616195833048    1.9574511792671    0.0020192331105
 156  2        -1.6952024479131    4.8936279481677    0.0020192331105
 157  2         1.6952024479131    4.8936279481677    0.0020192331105
 158  2         5.0856073437393    4.8936279481677    0.0020192331105
 159  2         8.4760122395655    4.8936279481677    0.0020192331105
 160  2        11.8664171353917    4.8936279481677    0.0020192331105
 161  2        -3.3904048958262    7.8298047170683    0.0020192331105
 162  2         0.0000000000000    7.8298047170683    0.0020192331105
 163  2         3.3904048958262    7.8298047170683    0.0020192331105
 164  2         6.7808097916524    7.8298047170683    0.0020192331105
 165  2        10.1712146874786    7.8298047170683    0.0020192331105
 166  2        -5.0856073437393   10.7659814859690    0.0020192331105
 167  2        -1.6952024479131   10.7659814859690    0.0020192331105
 168  2         1.6952024479131   10.7659814859690    0.0020192331105
 169  2         5.0856073437393   10.7659814859690    0.0020192331105
 170  2         8.4760122395655   10.7659814859690    0.0020192331105
 171  2        -6.7808097916524   13.7021582548696    0.0020192331105
 172  2        -3.3904048958262   13.7021582548696    0.0020192331105
 173  2         0.0000000000000   13.7021582548696    0.0020192331105
 174  2         3.3904048958262   13.7021582548696    0.0020192331105
 175  2         6.7808097916524   13.7021582548696    0.0020192331105
 176  2         0.0000000000000    1.9574511792671    5.6125104016755
 177  2         3.3904048958262    1.9574511792671    5.6125104016755
 178  2         6.7808097916524    1.9574511792671    5.6125104016755
 179  2        10.1712146874786    1.9574511792671    5.6125104016755
 180  2        13.5616195833048    1.9574511792671    5.6125104016755
 181  2        -1.6952024479131    4.8936279481677    5.6125104016755
 182  2         1.6952024479131    4.8936279481677    5.6125104016755
 183  2         5.0856073437393    4.8936279481677    5.6125104016755
 184  2         8.4760122395655    4.8936279481677    5.6125104016755
 185  2        11.8664171353917    4.8936279481677    5.6125104016755
 186  2        -3.3904048958262    7.8298047170683    5.6125104016755
 187  2         0.0000000000000    7.8298047170683    5.6125104016755
 188  2         3.3904048958262    7.8298047170683    5.6125104016755
 189  2         6.7808097916524    7.8298047170683    5.6125104016755
 190  2        10.1712146874786    7.8298047170683    5.6125104016755
 191  2        -5.0856073437393   10.7659814859690    5.6125104016755
 192  2        -1.6952024479131   10.7659814859690    5.6125104016755
 193  2         1.6952024479131   10.7659814859690    5.6125104016755
 194  2         5.0856073437393   10.7659814859690    5.6125104016755
 195  2         8.4760122395655   10.7659814859690    5.6125104016755
 196  2        -6.7808097916524   13.7021582548696    5.6125104016755
 197  2        -3.3904048958262   13.7021582548696    5.6125104016755
 198  2         0.0000000000000   13.7021582548696    5.6125104016755
 199  2         3.3904048958262   13.7021582548696    5.6125104016755
 200  2         6.7808097916524   13.7021582548696    5.6125104016755
 201  2         0.0000000000000    1.9574511792671   11.2230015702406
 202  2         3.3904048958262    1.9574511792671   11.2230015702406
 203  2         6.7808097916524    1.9574511792671   11.2230015702406
 204  2        10.1712146874786    1.9574511792671   11.2230015702406
 205  2        13.5616195833048    1.9574511792671   11.2230015702406
 206  2        -1.6952024479131    4.8936279481677   11.2230015702406
 207  2         1.6952024479131    4.8936279481677   11.2230015702406
 208  2         5.0856073437393    4.8936279481677   11.2230015702406
 209  2         8.4760122395655    4.8936279481677   11.2230015702406
 210  2        11.8664171353917    4.8936279481677   11.2230015702406
 211  2        -3.3904048958262    7.8298047170684   11.2230015702406
 212  2         0.0000000000000    7.8298047170684   11.2230015702406
 213  2         3.3904048958262    7.8298047170684   11.2230015702406
 214  2         6.7808097916524    7.8298047170684   11.2230015702406
 215  2        10.1712146874786    7.8298047170684   11.2230015702406
 216  2        -5.0856073437393   10.7659814859690   11.2230015702406
 217  2        -1.6952024479131   10.7659814859690   11.2230015702406
 218  2         1.6952024479131   10.7659814859690   11.2230015702406
 219  2         5.0856073437393   10.7659814859690   11.2230015702406
 220  2         8.4760122395655   10.7659814859690   11.2230015702406
 221  2        -6.7808097916524   13.7021582548696   11.2230015702406
 222  2        -3.3904048958262   13.7021582548696   11.2230015702406
 223  2         0.0000000000000   13.7021582548696   11.2230015702406
 224  2         3.3904048958262   13.7021582548696   11.2230015702406
 225  2         6.7808097916524   13.7021582548696   11.2230015702406
 226  2         1.6952024479131    0.9787255896335    2.8072648173930
 227  2         5.0856073437393    0.9787255896335    2.8072648173930
 228  2         8.4760122395655    0.9787255896335    2.8072648173930
 229  2        11.8664171353917    0.9787255896335    2.8072648173930
 230  2        15.2568220312179    0.9787255896335    2.8072648173930
 231  2         0.0000000000000    3.9149023585342    2.8072648173930
 232  2         3.3904048958262    3.9149023585342    2.8072648173930
 233  2         6.7808097916524    3.9149023585342    2.8072648173930
 234  2        10.1712146874786    3.9149023585342    2.8072648173930
 235  2        13.5616195833048    3.9149023585342    2.8072648173930
 236  2        -1.6952024479131    6.8510791274348    2.8072648173930
 237  2         1.6952024479131    6.8510791274348    2.8072648173930
 238  2         5.0856073437393    6.8510791274348    2.8072648173930
 239  2         8.4760122395655    6.8510791274348    2.8072648173930
 240  2        11.8664171353917    6.8510791274348    2.8072648173930
 241  2        -3.3904048958262    9.7872558963354    2.8072648173930
 242  2         0.0000000000000    9.7872558963354    2.8072648173930
 243  2         3.3904048958262    9.7872558963354    2.8072648173930
 244  2         6.7808097916524    9.7872558963354    2.8072648173930
 245  2        10.1712146874786    9.7872558963354    2.8072648173930
 246  2        -5.0856073437393   12.7234326652360    2.8072648173930
 247  2        -1.6952024479131   12.7234326652360    2.8072648173930
 248  2         1.6952024479131   12.7234326652360    2.8072648173930
 249  2         5.0856073437393   12.7234326652360    2.8072648173930
 250  2         8.4760122395655   12.7234326652360    2.8072648173930
 251  2         1.6952024479131    0.9787255896336    8.4177559859581
 252  2         5.0856073437393    0.9787255896336    8.4177559859581
 253  2         8.4760122395655    0.9787255896336    8.4177559859581
 254  2        11.8664171353917    0.9787255896336    8.4177559859581
 255  2        15.2568220312179    0.9787255896336    8.4177559859581
 256  2         0.0000000000000    3.9149023585342    8.4177559859581
 257  2         3.3904048958262    3.9149023585342    8.4177559859581
 258  2         6.7808097916524    3.9149023585342    8.4177559859581
 259  2        10.1712146874786    3.9149023585342    8.4177559859581
 260  2        13.5616195833048    3.9149023585342    8.4177559859581
 261  2        -1.6952024479131    6.8510791274348    8.4177559859581
 262  2         1.6952024479131    6.8510791274348    8.4177559859581
 263  2         5.0856073437393    6.8510791274348    8.4177559859581
 264  2         8.4760122395655    6.8510791274348    8.4177559859581
 265  2        11.8664171353917    6.8510791274348    8.4177559859581
 266  2        -3.3904048958262    9.7872558963354    8.4177559859581
 267  2         0.0000000000000    9.7872558963354    8.4177559859581
 268  2         3.3904048958262    9.7872558963354    8.4177559859581
 269  2         6.7808097916524    9.7872558963354    8.4177559859581
 270  2        10.1712146874786    9.7872558963354    8.4177559859581
 271  2        -5.0856073437393   12.7234326652361    8.4177559859581
 272  2        -1.6952024479131   12.7234326652361    8.4177559859581
 273  2         1.6952024479131   12.7234326652361    8.4177559859581
 274  2         5.0856073437393   12.7234326652361    8.4177559859581
 275  2         8.4760122395655   12.7234326652361    8.4177559859581
 276  2         1.6952024479131    0.9787255896336   14.0282471545231
 277  2         5.0856073437393    0.9787255896336   14.0282471545231
 278  2         8.4760122395655    0.9787255896336   14.0282471545231
 279  2        11.8664171353917    0.9787255896336   14.0282471545231
 280  2        15.2568220312179    0.9787255896336   14.0282471545231
 281  2         0.0000000000000    3.9149023585342   14.0282471545231
 282  2         3.3904048958262    3.9149023585342   14.0282471545231
 283  2         6.7808097916524    3.9149023585342   14.0282471545231
 284  2        10.1712146874786    3.9149023585342   14.0282471545231
 285  2        13.5616195833048    3.9149023585342   14.0282471545231
 286  2        -1.6952024479131    6.8510791274348   14.0282471545231
 287  2         1.6952024479131    6.8510791274348   14.0282471545231
 288  2         5.0856073437393    6.8510791274348   14.0282471545231
 289  2         8.4760122395655    6.8510791274348   14.0282471545231
 290  2        11.8664171353917    6.8510791274348   14.0282471545231
 291  2        -3.3904048958262    9.7872558963355   14.0282471545231
 292  2         0.0000000000000    9.7872558963355   14.0282471545231
 293  2         3.3904048958262    9.7872558963355   14.0282471545231
 294  2         6.7808097916524    9.7872558963355   14.0282471545231
 295  2        10.1712146874786    9.7872558963355   14.0282471545231
 296  2        -5.0856073437393   12.7234326652361   14.0282471545231
 297  2        -1.6952024479131   12.7234326652361   14.0282471545231
 298  2         1.6952024479131   12.7234326652361   14.0282471545231
 299  2         5.0856073437393   12.7234326652361   14.0282471545231
 300  2         8.4760122395655   12.7234326652361   14.0282471545231
