ITEM: TIMESTEP
0
ITEM: NUMBER OF ATOMS
6000
ITEM: BOX BOUNDS pp pp pp
-2.7409187706354032e-02 2.7368409187706263e+01
-3.1352076820462926e-02 2.7372352076820757e+01
-1.3818474732357799e-01 1.0950218474732242e+02
ITEM: ATOMS id type x y z c_peratom fx fy fz 
122 2 5.56499 5.41611 5.29086 -25.8375 -0.933934 -0.152414 0.899507 
601 2 5.62138 2.6842 2.63804 -25.6498 -1.47207 -0.602785 -1.00586 
602 2 5.39475 2.78791 8.04366 -25.557 0.664391 -0.917216 0.50743 
1021 2 2.62978 5.35578 2.71 -25.9443 1.62186 0.526682 -2.09427 
1022 2 2.74104 5.43452 8.02951 -25.5402 -0.140735 0.666023 0.462253 
1502 2 2.71088 2.74967 5.29188 -25.3959 0.874814 -0.6448 -0.204997 
2001 1 1.39955 1.42968 1.19685 -7.25149 -1.37282 -1.30423 0.874392 
2002 1 1.41033 1.38238 6.6131 -7.49818 -1.04713 -0.116304 0.813633 
2501 1 4.16588 4.07094 4.04152 -7.34469 -0.58708 0.179257 -0.557268 
3001 1 4.10552 4.08253 1.33003 -7.13742 0.351728 -0.935843 -0.368575 
3002 1 4.14837 4.04817 6.65328 -7.39386 -0.945167 -0.852358 0.329438 
3501 1 1.38893 1.33538 4.01941 -7.60189 -0.753954 0.350161 -1.09002 
4001 1 4.22607 1.39866 3.7588 -7.11803 -1.26207 -0.295414 1.31366 
4501 1 1.36731 4.00247 1.22544 -7.00295 -0.362491 0.67846 -0.344274 
4502 1 1.38332 4.13437 6.61814 -7.89237 -0.417579 -0.338977 0.642856 
5001 1 1.30761 4.04696 3.93853 -7.92428 -0.130252 -0.607349 0.216113 
5501 1 4.0129 1.21469 1.11317 -6.96545 0.995262 0.387834 -0.274001 
5502 1 4.09598 1.18965 6.55529 -7.8811 -0.732407 0.972274 1.08231 
2022 1 1.37046 6.78992 6.79102 -7.41292 -0.640502 -0.0926982 -1.21796 
5521 1 3.91546 6.73414 1.33524 -6.79531 1.32547 -0.487657 0.209134 
22 2 0.0212855 5.49607 5.20133 -25.2233 -1.04472 -0.417328 1.63736 
502 2 0.00757526 2.76952 7.9565 -25.2342 -0.723604 -0.856218 0.610883 
121 2 5.43461 5.40333 -0.0587292 -25.7772 -0.727581 0.26617 -0.157981 
2102 1 6.77674 1.48122 6.70902 -7.50595 0.613517 -1.41935 -0.0700932 
4602 1 6.81522 4.09948 6.74566 -7.52572 0.593933 -0.26465 -0.280852 
2121 1 6.73091 6.81278 1.25849 -7.85645 0.975189 -1.29678 0.344052 
3521 1 1.42517 6.72249 3.98914 -7.46014 -0.0134592 1.00465 0.690976 
2021 1 1.29679 6.73827 1.29077 -7.07739 -0.90165 1.01579 -0.689442 
5522 1 4.11696 6.66929 6.69587 -7.05764 -0.319989 0.363647 0.0791182 
2122 1 6.72725 6.71715 6.85088 -7.3324 1.01967 1.08061 -0.466119 
1001 2 2.57853 0.0280227 2.53955 -25.7768 2.44701 -0.578754 0.452677 
102 2 5.40567 0.00575518 5.30452 -25.5184 1.66493 -1.1034 -1.26376 
3601 1 6.91884 1.2175 3.89794 -7.06722 -0.661097 0.152902 1.63436 
5101 1 6.89706 3.92305 3.96987 -7.80962 0.18189 1.32294 -0.0714999 
222 2 10.9899 5.44978 5.33724 -25.7817 0.117265 0.342336 -0.333971 
701 2 10.8985 2.69593 2.57434 -25.8315 0.407822 -0.274419 -0.38712 
702 2 10.8828 2.61523 8.11288 -25.3119 1.28421 0.671895 0.00652878 
1121 2 8.22865 5.37506 2.51153 -24.9804 0.501042 0.0533472 0.808435 
1122 2 8.11349 5.40574 8.07325 -25.4431 0.503303 0.469336 0.295018 
1602 2 8.23271 2.74256 5.36768 -25.4827 0.0166033 -0.638465 -0.441483 
2101 1 6.88961 1.24621 1.28056 -7.42232 -0.882043 0.519226 -1.38936 
2201 1 12.2473 1.31184 1.28783 -7.20425 0.726197 0.138722 0.228479 
2202 1 12.294 1.2246 6.8104 -6.69789 -0.782936 0.90755 -0.369447 
2601 1 9.58045 4.02459 3.94649 -7.49259 -0.00776584 0.233119 -0.854711 
3101 1 9.62367 3.92314 1.01148 -7.51655 -0.401636 1.24449 1.44015 
3102 1 9.5634 4.26371 6.61006 -7.46568 -0.694645 -0.960521 0.98853 
3701 1 12.3755 1.37794 4.03636 -7.52924 -0.875383 -0.417849 -0.377142 
4101 1 9.51407 1.31193 3.83365 -7.31885 1.34415 0.0785417 1.04747 
4601 1 6.84727 3.98652 1.20042 -7.94252 0.476984 0.593632 0.30198 
4701 1 12.3197 4.05289 1.23218 -7.16422 -0.201258 0.0913945 -0.075938 
4702 1 12.2176 3.9488 6.77663 -7.33364 0.645968 0.979773 -0.107444 
5201 1 12.3031 4.02532 3.97172 -7.47216 0.135309 0.948432 -0.095728 
5601 1 9.57227 1.28075 1.13711 -7.00699 -0.0722747 -0.951368 0.44406 
5602 1 9.60788 1.4125 6.68041 -8.02799 -0.91196 -0.235342 0.155978 
1222 2 13.6332 5.47394 8.2101 -25.2409 -0.464031 0.0632877 -1.66079 
202 2 10.9278 -0.0104272 5.34945 -25.7655 0.317031 0.102599 0.694541 
2221 1 12.2806 6.77308 1.28905 -7.09155 0.615525 0.411634 0.312694 
3621 1 6.89503 6.70652 4.03142 -7.7396 0.951853 0.404229 -0.537941 
4121 1 9.69453 6.74174 3.87729 -7.36796 -0.482849 0.394703 0.314855 
1701 2 13.5618 2.65546 -0.108752 -25.8636 1.41681 -0.050944 0.0842532 
5621 1 9.5972 6.73413 1.21725 -7.68577 -0.905651 -0.697041 -0.893103 
4021 1 4.17557 6.82459 4.04962 -7.29772 0.0559291 -0.398719 -0.544486 
541 2 0.0125795 13.6183 2.55767 -25.1986 1.28755 -0.423519 1.55914 
42 2 0.11141 10.8397 5.40142 -25.4557 -0.867834 1.40377 -1.28748 
142 2 5.41233 10.9522 5.36708 -25.1598 0.379391 -0.715805 -0.379013 
621 2 5.52201 8.12874 2.65969 -25.7886 -1.07911 -0.0519397 0.181181 
622 2 5.41191 8.12373 8.09771 -25.834 -0.175204 0.486382 -0.214001 
1041 2 2.76539 10.8974 2.56999 -25.683 0.310304 -0.595371 0.357409 
1042 2 2.70754 10.958 8.19487 -25.4053 0.387895 -0.3912 -0.527215 
1521 2 2.77941 8.12814 -0.0594337 -25.7871 -0.884591 -0.643001 -0.401953 
1522 2 2.80422 8.0935 5.34226 -25.8317 -0.88097 0.256774 -0.108976 
2041 1 1.51114 12.3309 1.21009 -7.552 -0.91543 -0.266846 0.487198 
2042 1 1.46437 12.3047 6.69764 -7.74495 -0.629653 -0.574238 0.725275 
2521 1 4.13913 9.54848 4.03931 -7.26965 -0.0370523 -0.0881657 0.381272 
3021 1 4.09822 9.32333 1.33796 -7.32869 -0.170052 1.60631 -0.251057 
3022 1 3.9435 9.32473 6.82728 -7.36113 0.652774 1.77678 0.0432067 
3541 1 1.4697 12.2441 4.01249 -7.65909 -0.770004 0.0651896 -0.699755 
4041 1 4.14899 12.1924 3.96234 -7.57684 0.239763 0.829288 1.09947 
4521 1 1.32308 9.61999 1.10175 -8.055 -0.075897 -0.785524 0.25207 
4522 1 1.28269 9.47338 6.65906 -7.51103 0.343544 0.288717 0.354275 
5021 1 1.41926 9.5004 3.83335 -7.33199 -0.101396 -0.0441533 0.358122 
5541 1 4.24377 12.1075 1.33756 -7.45269 0.320995 0.684544 -0.547413 
5542 1 4.16811 12.227 6.88961 -7.83979 -0.2147 -0.216868 -1.29267 
641 2 5.65163 13.5761 2.55103 -25.3508 -1.80552 -0.109899 0.677644 
1542 2 2.79217 13.5178 5.34873 -25.1651 0.0850748 1.68867 0.166948 
4622 1 6.73146 9.58712 6.52012 -7.4741 0.879835 -0.53517 0.909653 
4621 1 6.81191 9.45561 1.21742 -7.31716 0.286374 0.740616 1.08793 
141 2 5.50773 10.8281 -0.0752493 -25.6103 0.364925 -0.344999 -0.0242832 
2222 1 12.328 6.86417 6.68031 -7.23242 -0.578686 -1.51093 1.04381 
3721 1 12.4675 6.83678 4.06596 -7.20549 -0.457421 -0.714669 -1.15635 
1242 2 13.6242 10.9085 8.05994 -26.092 0.932754 0.582068 -0.183152 
2141 1 6.98384 12.274 1.23483 -7.46117 -1.04643 -1.44901 0.123006 
3641 1 6.92856 12.2346 3.90931 -7.68456 -0.0637765 -0.301664 0.961676 
5622 1 9.53538 6.98681 6.63851 -7.43251 0.0436691 -0.97517 0.103787 
2142 1 6.84469 12.3198 6.71826 -7.91723 -0.38751 0.179627 -0.341142 
1642 2 8.2424 13.5736 5.3521 -25.4588 0.516779 0.795317 -0.268892 
1241 2 13.6337 10.9105 2.56356 -25.0803 0.663937 -0.703803 0.195281 
242 2 10.9939 10.9536 5.36569 -25.3661 -0.0578563 -0.422745 0.480212 
721 2 10.9357 8.18239 2.51621 -25.5424 0.935956 -1.08902 0.709186 
722 2 10.8565 8.20066 8.062 -25.828 0.170086 0.651285 0.0134742 
1141 2 8.29535 10.7637 2.6819 -25.1853 -1.10432 2.00302 -1.9456 
1142 2 8.07503 11.0147 8.03156 -25.4939 1.77829 -0.918048 0.951467 
1622 2 8.30184 8.27662 5.31982 -25.066 -1.09459 -1.06553 0.153216 
2241 1 12.2644 12.3327 1.19768 -7.99669 1.09405 0.22552 0.0576798 
2242 1 12.3251 12.3137 6.70516 -7.4716 0.29043 -0.405169 -0.643424 
2621 1 9.59124 9.51042 3.88633 -8.12227 0.444975 -0.185933 1.10264 
3121 1 9.52583 9.38707 1.13491 -7.69119 0.462722 1.03972 1.47535 
3122 1 9.6174 9.61527 6.78645 -7.61926 -1.11125 0.833373 -1.21838 
3741 1 12.2789 12.289 3.93406 -7.86306 1.22795 -0.206666 0.276738 
4141 1 9.67842 12.2911 4.05312 -7.60675 -0.757952 -0.30399 -0.121579 
4721 1 12.2964 9.58272 1.24355 -7.7155 -0.0229314 -0.0446939 0.0283867 
4722 1 12.3101 9.50833 6.69196 -7.25306 -0.136532 0.940702 -0.020901 
5121 1 6.87271 9.48855 3.95054 -7.56904 0.2808 -0.0272412 -0.377649 
5221 1 12.2436 9.55647 4.02381 -7.45525 0.936229 0.208497 -0.857034 
5641 1 9.58164 12.1945 1.28082 -7.22269 0.577311 -0.336205 0.49537 
5642 1 9.61884 12.3292 6.79377 -7.538 -0.759842 -0.639144 -0.791476 
1621 2 8.20253 8.09837 -0.114304 -25.5817 -0.18812 -0.424829 -0.246291 
1641 2 8.19796 13.5706 -0.0596095 -25.6918 1.19823 -0.148893 -1.49222 
241 2 10.9105 10.8392 -0.0975874 -25.4151 0.731188 0.301783 0.113614 
103 2 5.36098 0.0133908 10.8014 -24.8303 1.00919 0.139784 -0.41523 
1003 2 2.66832 -0.00864357 13.4759 -25.1924 0.374276 -0.144175 1.31207 
123 2 5.34635 5.43196 10.8354 -25.6481 1.10091 0.364733 0.635512 
124 2 5.48473 5.51381 16.2942 -25.5504 0.0503102 -0.267595 0.562241 
603 2 5.31646 2.7877 13.5447 -25.1894 1.52236 0.335778 0.881901 
1023 2 2.62802 5.46451 13.6456 -25.5088 -0.1334 0.708628 -2.11641 
1503 2 2.688 2.74146 10.8338 -25.2647 -0.221211 0.391533 -1.18426 
1504 2 2.66303 2.7331 16.377 -25.5114 -0.226734 -0.248202 -0.583716 
2003 1 1.44392 1.44179 12.1346 -7.94959 -0.535554 -0.992915 0.241853 
2004 1 1.17113 1.34619 17.7291 -7.17716 0.744233 -0.229553 -0.676303 
2502 1 4.08146 4.14344 9.35977 -7.7661 -0.502731 -0.17233 0.342709 
2503 1 4.02582 4.25965 14.795 -7.64632 1.23494 -1.74845 1.04779 
3003 1 3.9594 4.08146 12.0878 -7.54465 0.457082 -0.875779 0.426053 
3004 1 4.04247 4.24049 17.5752 -7.42738 1.06215 -2.35741 -0.313325 
3502 1 1.4059 1.33888 9.32578 -7.53254 -0.952607 -0.173619 0.290817 
3503 1 1.30324 1.41485 14.9736 -7.57253 -0.113047 -0.43043 -0.614716 
4002 1 3.99087 1.40711 9.43631 -7.59057 0.323757 -0.565318 -0.199883 
4003 1 4.0264 1.29148 15.0169 -7.63153 -0.215877 1.2042 -1.27191 
4503 1 1.211 4.11651 12.2233 -7.26433 0.71727 0.390526 -0.270893 
4504 1 1.35857 4.10979 17.6216 -7.44462 -0.471639 0.555028 0.0261999 
5002 1 1.25444 4.07269 9.49394 -7.82227 0.540009 0.422852 -0.987678 
5003 1 1.34538 4.15395 14.8924 -7.39597 -0.65253 -0.364551 0.855015 
5503 1 4.17218 1.37105 12.2562 -7.9318 -0.486627 -0.129104 -0.555913 
5504 1 4.07318 1.42705 17.6662 -7.18743 -0.214525 0.762171 -0.164504 
3602 1 6.62964 1.40642 9.47114 -7.47179 1.17802 -1.52246 0.541988 
5103 1 6.8075 4.07782 15.1381 -7.52801 -0.0261236 -0.379177 -1.14521 
2123 1 6.67732 6.77239 12.4996 -6.72478 0.194739 0.191068 -1.73316 
4603 1 6.80435 4.10905 12.315 -6.99951 -0.880173 0.274623 -0.249089 
5102 1 6.81103 4.02495 9.52045 -7.48384 -0.0119299 1.19803 -0.0721705 
5523 1 3.98767 6.64293 12.2308 -7.20451 0.13674 1.87007 0.251405 
5524 1 3.96685 6.71724 17.7644 -7.24152 1.65811 2.18766 -1.31656 
3 2 0.0258127 0.0270991 10.6971 -25.3974 -0.881898 -0.570135 0.193954 
1703 2 13.6363 2.79915 10.8771 -25.9207 -0.20193 -1.28384 -0.0719089 
1223 2 13.6691 5.51209 13.5976 -25.3532 -0.739452 0.399116 -0.250123 
2103 1 6.94451 1.51991 12.4513 -7.33083 -0.653858 -0.884662 -1.02509 
2104 1 6.87087 1.29465 17.7819 -7.35677 -1.08561 0.282773 0.275077 
3603 1 6.8311 1.2637 15.1921 -7.36795 0.104125 0.532652 -1.7476 
1704 2 13.6637 2.679 16.2683 -25.1593 -0.297401 0.657842 -0.190096 
4122 1 9.40356 6.75774 9.39281 -7.56986 0.889432 0.1232 0.358066 
204 2 10.9476 -0.00344167 16.3831 -25.7504 -1.01248 -1.14172 -0.632806 
223 2 10.8065 5.48809 10.7869 -25.4244 0.718723 -0.0845922 0.42322 
224 2 10.9226 5.53861 16.4176 -25.9549 -0.366684 -0.349553 -0.887756 
703 2 10.9769 2.76841 13.573 -25.749 0.239735 -0.653923 -0.0073003 
1103 2 8.16674 0.0420647 13.6448 -25.596 0.823756 -0.0922264 0.129058 
1123 2 8.24251 5.3927 13.7358 -26.2043 -1.67651 -0.0329558 -1.08545 
1603 2 8.26132 2.74913 10.8613 -25.5556 -1.81283 -0.41144 0.254394 
1604 2 8.2231 2.62327 16.3378 -25.7992 -0.238131 1.44851 0.637013 
2203 1 12.3963 1.294 12.1978 -6.91915 -1.59686 -0.0823596 0.0690166 
2204 1 12.2245 1.36778 17.5047 -7.84174 0.946297 0.36371 1.5982 
2602 1 9.54867 4.07848 9.41335 -7.82441 0.316192 -0.666588 -0.488699 
2603 1 9.65437 4.04987 14.8897 -7.18415 -0.501513 -0.889995 0.198051 
3103 1 9.46968 4.07737 12.1305 -7.32748 1.38504 0.10398 0.556583 
3104 1 9.51326 4.19186 17.5875 -7.1952 0.0139989 -0.872731 0.719994 
3702 1 12.3233 1.35717 9.51614 -7.27813 -1.05984 -0.37828 -0.163519 
3703 1 12.3257 1.32961 14.8586 -7.35134 0.532309 0.48711 0.306307 
4102 1 9.47941 1.29123 9.53083 -8.06163 -0.0911121 0.158304 -0.667068 
4103 1 9.6447 1.34164 15.113 -7.40198 -0.732671 0.319308 -1.13578 
4604 1 6.87174 3.99498 17.7983 -7.25632 -0.901489 0.189378 0.290171 
4703 1 12.2792 4.14429 12.2203 -7.46445 -0.658183 0.0125256 0.214026 
4704 1 12.1945 4.11572 17.7188 -7.84349 0.974032 -0.0158803 -0.265178 
5202 1 12.342 4.1042 9.5629 -7.62776 -0.882154 0.743545 -0.775178 
5203 1 12.3435 4.10996 14.9285 -7.3433 0.065288 0.0574192 0.496064 
5603 1 9.63697 1.40532 12.2801 -7.47525 0.13495 -0.488794 -0.118509 
5604 1 9.5505 1.33481 17.7873 -7.59207 -0.115421 0.342161 -0.452168 
4123 1 9.51479 6.63327 15.0596 -7.02046 0.725461 2.25565 -0.194749 
2124 1 6.87565 6.80675 17.6704 -7.37269 -1.38136 -0.408262 0.937483 
5623 1 9.42833 6.68322 12.2724 -7.59333 0.858478 1.41617 -0.677431 
2143 1 6.678 12.3223 12.112 -7.83893 0.779638 0.675568 1.34938 
2023 1 1.35726 6.90815 12.1005 -7.30749 -1.00838 -0.282892 1.10287 
3522 1 1.45039 6.97036 9.41041 -7.21143 -1.56064 -1.34506 0.0407904 
4023 1 4.08002 6.92526 15.0368 -7.8397 -0.0386753 -0.580867 -0.0390311 
3622 1 6.8163 6.90957 9.58853 -7.63563 -1.43297 -1.29445 -0.222591 
523 2 -0.0121819 8.28254 13.5943 -24.988 0.689301 -0.874163 0.214655 
3643 1 6.73422 12.3189 14.8954 -7.75433 1.83941 -1.06605 0.689932 
3523 1 1.34237 6.9069 14.8863 -8.08813 0.0549513 0.786599 -0.104211 
4022 1 4.08109 6.87367 9.44252 -7.33821 0.361464 -0.490701 0.394746 
1544 2 2.67665 13.5859 16.3835 -25.4746 0.476814 1.46674 -0.600056 
1543 2 2.66858 13.6491 10.8397 -25.6606 1.29497 0.963467 0.237754 
143 2 5.45785 11.0209 10.7669 -25.7555 -0.132245 -1.68989 0.477303 
144 2 5.4038 10.9193 16.3119 -25.1709 0.873225 -0.228424 0.591016 
623 2 5.34842 8.13661 13.6867 -25.5359 1.47371 0.332005 -1.05789 
1043 2 2.70099 10.9875 13.6131 -25.2965 -0.0167169 -0.336377 -0.165557 
1523 2 2.66804 8.23332 10.844 -25.8697 1.17188 -0.148686 -0.425286 
1524 2 2.71063 8.20244 16.3411 -25.1282 -0.402309 0.344213 0.897769 
2024 1 1.309 6.93794 17.584 -7.76597 -0.755287 -0.778321 0.863385 
2043 1 1.22177 12.448 12.0893 -7.4913 0.0545543 -1.32755 0.924057 
2044 1 1.37436 12.3547 17.7232 -7.5435 -0.0794122 -0.989707 0.407818 
2522 1 4.00511 9.61053 9.5757 -7.22693 0.419218 0.298241 -0.319215 
2523 1 4.03311 9.56908 15.12 -7.79812 -1.07429 0.078599 -1.31423 
3023 1 4.28917 9.52453 12.2637 -7.23472 -1.72588 -0.198436 0.683321 
3024 1 4.0665 9.45877 17.7887 -7.53361 -0.236487 0.63781 -0.205291 
3542 1 1.35553 12.41 9.4671 -7.6525 -0.530538 -0.377097 -0.88437 
3543 1 1.45683 12.3141 14.9759 -7.00179 0.517329 1.16634 -0.516896 
4042 1 4.18526 12.3638 9.53651 -7.62735 -0.748468 -0.0717204 -0.164657 
4043 1 4.19528 12.2459 14.925 -7.45725 -1.6186 -0.0516929 0.785905 
4523 1 1.42062 9.63982 12.1633 -7.80286 0.508485 0.19259 0.864834 
4524 1 1.39013 9.62579 17.7523 -7.39258 0.158626 -0.261625 -0.554543 
5022 1 1.36656 9.67474 9.46094 -7.28961 -0.742935 -0.084721 -0.128793 
5023 1 1.13475 9.83879 14.9327 -7.47293 2.0597 -2.94226 -0.856858 
5543 1 3.94539 12.2357 12.2522 -7.42784 0.252707 0.792502 -0.477047 
5544 1 4.10699 12.2645 17.7125 -8.08851 0.270098 0.223988 -0.249149 
5123 1 6.72627 9.55732 14.8816 -7.58109 0.678652 0.648184 -0.0154633 
643 2 5.46693 13.6213 13.678 -25.3329 -0.335004 0.909124 -2.31029 
4624 1 6.69467 9.54672 17.713 -7.67341 0.605745 0.855407 -0.149148 
5122 1 6.68781 9.68368 9.18815 -7.29414 -0.130929 -0.0862061 0.605642 
1724 2 13.5726 8.41643 16.3351 -25.344 0.819381 -1.52627 0.239303 
1723 2 13.6176 8.3026 10.7944 -25.8323 0.154968 -0.0858526 -0.284937 
2243 1 12.2644 12.37 12.1833 -7.59798 0.456755 -0.573728 -0.0253664 
2224 1 12.3225 6.89456 17.6461 -7.78299 0.346799 0.401155 0.855869 
2223 1 12.2664 6.88695 12.0467 -7.54911 -0.188118 -0.113166 1.28487 
1624 2 8.15542 8.21405 16.4511 -25.7832 0.802203 0.0369381 -0.825204 
1623 2 8.14483 8.12742 10.7846 -25.5643 0.700146 0.782839 1.02143 
3623 1 6.93856 6.87775 15.0566 -7.03037 -1.51493 -0.285446 0.209916 
3642 1 6.95785 12.4257 9.53169 -7.55555 -0.828676 -0.247695 -1.11508 
4142 1 9.61734 12.2598 9.46356 -7.28248 -0.148415 1.10403 -0.527127 
3743 1 12.2139 12.2817 14.9687 -7.50851 0.382938 0.254311 -0.0182448 
3742 1 12.3835 12.3741 9.38859 -7.43123 -0.962933 0.205042 0.666173 
3723 1 12.1955 6.8898 14.9728 -7.32947 0.602006 -0.215034 -0.993031 
3722 1 12.1105 6.9559 9.40794 -7.55331 0.855292 -1.14828 0.191416 
3124 1 9.47404 9.65911 17.7371 -7.11647 -0.192427 -0.647637 -0.633783 
3123 1 9.61792 9.4833 12.113 -7.21145 -0.63664 0.363988 0.230462 
4623 1 6.87685 9.5384 11.96 -7.33723 0.470036 0.603788 0.741404 
2623 1 9.58724 9.56072 14.8404 -7.56204 -0.868029 0.28511 0.816083 
2622 1 9.42715 9.50556 9.47931 -7.05509 0.434637 0.248197 -0.456072 
2144 1 6.9212 12.4839 17.7393 -7.57269 -1.02205 -0.986256 -0.236314 
5644 1 9.59776 12.2372 17.6666 -7.24115 -0.41375 1.53195 -0.833893 
5643 1 9.50632 12.3413 12.1574 -7.53939 -0.441447 -0.218282 -0.222963 
1143 2 8.05439 10.9415 13.4052 -25.187 1.09205 -0.582429 0.559477 
5624 1 9.58368 6.95389 17.7624 -6.88187 0.358533 -0.0272463 0.0741562 
723 2 10.8467 8.18616 13.5228 -25.6251 0.713448 0.0245728 0.297352 
5223 1 12.3394 9.56129 14.9565 -7.28152 -0.751662 0.943799 -0.50319 
2244 1 12.3046 12.4482 17.7697 -7.18427 0.108199 -0.376754 -0.591257 
5222 1 12.2756 9.66595 9.35856 -7.43754 -1.11949 -0.286087 1.14679 
4724 1 12.2345 9.71657 17.7041 -7.19575 -0.0295249 -0.328005 -0.221355 
1743 2 13.6701 13.6422 10.876 -25.6661 0.201828 0.631953 -0.88948 
4723 1 12.2938 9.63827 12.2293 -7.19949 0.529818 0.0652742 -0.45302 
4143 1 9.49668 12.4463 14.7795 -7.5425 -0.83601 -1.32634 1.29507 
243 2 10.9237 11.0621 10.7433 -25.6425 0.155146 -1.68634 1.02628 
244 2 10.8522 11.041 16.2479 -25.6196 0.239441 -1.24974 0.626746 
125 2 5.43201 5.51722 21.8496 -25.3587 -0.00366935 -1.08367 -0.729143 
604 2 5.43119 2.70337 19.0395 -25.496 -0.356814 -0.140861 0.205118 
605 2 5.40313 2.61634 24.4355 -25.8014 0.546208 0.488787 0.945557 
1024 2 2.76619 5.40811 18.9911 -25.6114 -1.469 0.132825 1.47838 
1025 2 2.73113 5.37554 24.4939 -25.5972 -1.2734 -0.784613 0.501224 
1505 2 2.65145 2.68696 21.7451 -25.5805 -0.0238688 0.0420314 -0.851726 
2005 1 1.41988 1.17161 23.1544 -7.65491 -1.00115 1.7682 -0.396955 
2504 1 4.03279 4.0195 20.3456 -7.50113 -0.0957304 0.0879732 0.253859 
2505 1 4.02233 3.95094 25.7948 -7.25624 0.371854 0.221079 0.210419 
3005 1 4.15298 4.06159 23.1134 -7.59009 -0.393664 0.0124889 -0.324681 
3504 1 1.15043 1.47241 20.3802 -6.98834 0.371715 -0.624059 0.966961 
3505 1 1.35898 1.20777 25.963 -7.40559 -0.314827 0.102661 -0.675685 
4004 1 3.91314 1.24296 20.2824 -7.39394 0.81541 0.560801 1.09486 
4005 1 4.08469 1.19522 25.7045 -6.74024 0.0742028 0.620301 -0.013285 
4505 1 1.24421 4.01697 23.0439 -7.73768 1.10947 -0.16768 0.254355 
5004 1 1.29118 4.12864 20.3203 -7.26437 0.220781 0.685094 0.360652 
5005 1 1.31937 3.94299 25.7885 -7.62228 -0.185024 0.405392 0.571804 
5505 1 4.08824 1.40501 23.0314 -7.43512 -0.5615 -0.791001 -0.524603 
5105 1 6.7914 4.09644 25.8032 -7.59173 -0.528141 -0.883219 0.561988 
2025 1 1.39629 6.8046 23.1657 -7.32647 -1.42795 -0.00140216 0.0876859 
4025 1 4.00651 6.70099 25.9158 -7.82801 0.828403 1.11816 0.174205 
126 2 5.40445 5.41122 27.1996 -25.4458 -0.399458 0.0690223 0.399455 
3604 1 6.79073 1.40337 20.5423 -7.79238 -0.119434 -0.437868 -1.19678 
3605 1 6.75922 1.16956 25.932 -7.4229 1.04712 1.13104 0.190053 
5104 1 6.71465 4.11809 20.5177 -7.47933 0.120672 -0.678081 -0.116748 
3525 1 1.31961 6.66846 25.8554 -7.39893 -0.0623606 0.872235 0.013765 
2105 1 6.74435 1.2994 23.1976 -7.11183 0.483055 0.60512 -0.093481 
5525 1 3.94885 6.69712 23.2172 -7.81027 1.71777 1.60045 -0.882878 
3624 1 6.79284 6.79936 20.3856 -7.52115 0.239103 0.618179 1.21272 
505 2 -0.011878 2.69469 24.4792 -25.4641 -0.562649 -0.569838 0.236421 
225 2 10.9654 5.55558 21.8474 -25.4468 -0.10707 -0.773616 0.275344 
704 2 10.8806 2.73107 18.9431 -25.364 0.310217 0.322066 1.16857 
705 2 10.9878 2.80491 24.5596 -25.931 -0.898692 0.896493 0.284954 
1104 2 8.10944 0.0403231 19.0531 -25.2722 0.982772 -1.66813 0.724502 
1124 2 8.0545 5.36408 19.2353 -25.7436 1.75093 0.846392 -2.16362 
1125 2 8.10703 5.50425 24.5877 -25.7411 1.77597 -0.147037 -0.165132 
1605 2 8.22893 2.65553 21.7754 -25.5925 -0.301141 0.935964 1.09154 
2205 1 12.1944 1.52353 23.1892 -7.37066 0.0887615 -0.977542 -1.1156 
2604 1 9.52649 3.97157 20.3426 -7.47427 -0.178372 -0.0306199 0.293218 
2605 1 9.5674 4.1985 25.9984 -6.98017 -0.124091 -0.193295 -0.511565 
3105 1 9.59526 4.24249 23.106 -7.26591 0.916857 -0.731076 0.495227 
3704 1 12.344 1.39918 20.3532 -7.49846 -0.641015 0.944612 0.0948427 
3705 1 12.2266 1.35318 25.8738 -7.12892 0.0981411 0.0697571 0.714468 
4104 1 9.64588 1.30065 20.4084 -7.63614 -1.09775 0.326133 0.372922 
4105 1 9.57646 1.5229 25.7657 -7.24978 -1.20013 -0.972654 2.02631 
4605 1 7.01545 4.16367 23.1513 -7.1076 -1.60735 -0.540115 -0.222467 
4705 1 12.3766 4.14719 23.1778 -7.2665 -0.794621 0.5317 0.0944177 
5204 1 12.3232 4.1905 20.4529 -7.51808 -0.021916 -0.393277 -0.342842 
5205 1 12.3107 4.15837 25.9838 -7.288 0.400463 -0.447323 0.0532636 
5605 1 9.45446 1.31693 23.2185 -7.33351 0.48022 0.221156 -1.37465 
1224 2 13.57 5.50859 18.9696 -25.4299 1.22942 0.296459 1.3327 
4124 1 9.59071 6.69615 20.4071 -7.30952 -0.71058 0.509073 1.18617 
1705 2 13.6496 2.80461 21.7658 -25.4055 -0.185109 -0.620878 0.39449 
1205 2 13.514 0.0333531 24.566 -25.8196 0.717232 0.285794 -0.647708 
205 2 10.8685 0.0472098 21.7854 -25.5238 0.466089 -0.639436 0.179323 
1204 2 13.6031 0.040207 19.0597 -25.7896 1.10301 -0.76534 -0.562919 
2125 1 6.67151 6.91675 23.2042 -7.94793 0.406708 -0.939616 -0.47034 
524 2 0.0768148 8.15758 19.1598 -25.6417 -0.792242 0.850211 -0.387674 
3524 1 1.45911 6.86811 20.483 -7.51489 -0.861847 -0.612066 -0.824319 
145 2 5.3984 10.9886 21.8136 -25.4018 0.664315 -0.471168 0.39556 
624 2 5.38028 8.15313 19.0936 -25.622 1.25721 0.253493 -0.331006 
625 2 5.35571 8.12093 24.5243 -25.1475 -0.65903 1.304 1.02718 
1044 2 2.80694 10.9037 19.1195 -25.351 -0.889619 0.0642329 -0.00674745 
1045 2 2.6284 11.0625 24.601 -25.7856 -0.675992 -0.924891 -0.16702 
1525 2 2.71427 8.20824 21.8773 -25.6273 0.0441894 0.0075821 -0.39987 
2045 1 1.23304 12.308 23.322 -7.56638 -0.0492314 0.184198 -1.11824 
2524 1 4.14288 9.54468 20.5174 -7.70912 -0.248813 0.692905 0.315139 
2525 1 3.78233 9.64391 25.9039 -7.19451 1.15509 -0.959177 0.658666 
3025 1 3.98377 9.60004 23.3038 -7.35783 0.935825 -1.1609 -1.06511 
3544 1 1.35285 12.2522 20.484 -7.63833 1.35334 0.718151 0.484154 
3545 1 1.20696 12.4653 25.9516 -7.22293 0.828528 -0.318653 0.702899 
4024 1 4.15724 6.84871 20.3793 -7.38022 -0.699573 -0.815343 1.60196 
4044 1 4.18829 12.4088 20.409 -7.92917 -1.4286 -0.28309 0.292022 
4045 1 4.08557 12.3134 25.886 -7.68456 -1.08065 0.814829 -0.488407 
4525 1 1.29474 9.5647 23.133 -7.45734 -0.217334 -0.192402 0.787308 
5024 1 1.44859 9.56423 20.4502 -7.27303 -0.354401 -0.0182806 0.210549 
5025 1 1.15765 9.642 25.9081 -7.31959 0.018277 -0.74037 -0.883995 
5545 1 4.02491 12.218 23.1547 -7.5747 -0.703082 1.11493 -0.305363 
3645 1 6.80459 12.4902 25.9421 -7.09157 -0.262117 -1.74031 0.105091 
5125 1 6.54864 9.54113 25.8254 -7.24662 0.143842 0.961482 0.507174 
146 2 5.26919 11.1062 27.251 -25.5941 1.48627 -2.13002 0.241512 
2145 1 6.69683 12.3841 23.2479 -7.36197 0.346039 -1.5419 -0.442233 
1526 2 2.6061 8.2321 27.2161 -25.6585 0.349173 -0.126594 0.0133819 
645 2 5.38769 13.6677 24.5441 -25.61 0.246271 0.427952 0.434998 
544 2 9.12368e-05 13.5605 19.1024 -25.7917 0.204888 1.71356 0.2969 
3725 1 12.2826 6.87117 26.087 -7.39474 -0.747071 0.694631 -0.136015 
4125 1 9.49761 6.87947 26.0239 -7.14602 0.980258 0.53862 -1.0428 
5625 1 9.47389 6.98726 23.2305 -7.77122 0.69387 -0.382956 0.0653895 
4625 1 6.8499 9.53553 23.186 -7.63526 -1.78899 1.12257 0.0215168 
1244 2 13.6382 11.0269 19.1687 -25.8977 -0.33167 -0.344652 -1.44096 
3625 1 6.85017 6.82506 25.9385 -7.64659 -1.39027 -0.00293916 -0.0477611 
3644 1 6.83367 12.3015 20.5325 -7.34086 -0.331385 0.184877 -0.404024 
5124 1 6.82275 9.55367 20.4892 -7.36504 -0.330736 0.220465 -0.245666 
245 2 10.8376 11.0002 21.8447 -25.2517 -0.248792 0.413681 -1.38198 
724 2 10.9173 8.21157 19.2152 -25.7012 -0.724569 0.382958 -1.89852 
725 2 10.8765 8.26492 24.6445 -25.1239 0.0214014 -0.354525 -0.224023 
1144 2 8.1421 10.955 19.1398 -25.8079 0.253341 0.0764623 -0.634471 
1145 2 8.02503 10.9286 24.5096 -25.5536 0.426453 1.00903 1.29944 
1625 2 8.12014 8.27157 21.9302 -25.2827 0.616955 -0.893697 -1.83496 
2225 1 12.3985 6.87367 23.3973 -7.50795 -1.60886 0.824531 -1.0558 
2245 1 12.3179 12.3127 23.1213 -7.9495 -0.857604 0.0277484 0.559624 
2624 1 9.50537 9.53428 20.4701 -7.647 0.485004 0.225422 0.52479 
2625 1 9.36556 9.63292 25.9897 -7.52952 1.05312 -0.207728 -1.50402 
3125 1 9.48975 9.67728 23.1797 -7.66109 0.62265 0.147049 0.764519 
3724 1 12.2212 6.89072 20.5087 -7.53511 0.514406 -0.00785756 0.214381 
3744 1 12.1448 12.4127 20.4372 -7.2262 0.748732 -0.931154 0.648043 
3745 1 12.2347 12.306 25.8852 -7.71728 0.22466 0.349409 -0.511919 
4144 1 9.4647 12.3833 20.355 -7.25906 0.292667 0.050593 0.5748 
4145 1 9.48535 12.3385 25.8187 -7.38799 0.477046 -0.297991 0.26398 
4725 1 12.2099 9.65846 23.0735 -7.73506 0.0680167 -0.430047 0.609928 
5224 1 12.3186 9.56081 20.3726 -7.56642 -0.130364 0.857436 0.888028 
5225 1 12.3484 9.69374 25.7674 -7.65032 -1.4362 -1.10601 0.637125 
5645 1 9.39017 12.4192 23.0932 -7.66621 1.20335 -0.873022 0.362941 
1725 2 13.6329 8.33561 21.9058 -25.7395 0.307525 -1.71385 -1.39375 
1245 2 13.6455 11.0226 24.4798 -25.0774 0.00223987 -1.06699 0.608377 
745 2 10.8768 13.6271 24.4978 -25.5471 -0.0339319 1.18473 0.319624 
246 2 10.8768 11.0319 27.1621 -25.2617 -1.69447 -1.1056 0.250937 
1745 2 13.6652 13.6437 21.8581 -25.3062 -0.267114 0.829259 -1.15493 
27 2 0.0329321 5.52967 32.8814 -25.4033 -1.199 -0.235433 -1.6936 
507 2 0.100206 2.6498 35.5129 -25.4787 -1.29732 0.924329 -1.13635 
127 2 5.52894 5.53609 32.7996 -25.3656 -0.641032 -1.86074 -0.764563 
606 2 5.5072 2.73919 29.9651 -25.3163 -0.973022 -0.0406094 0.0788662 
607 2 5.52353 2.65893 35.5172 -25.5289 -0.238717 0.91401 -0.612803 
1026 2 2.66491 5.50623 29.9775 -25.4948 0.387469 -0.30037 0.429724 
1027 2 2.78085 5.46356 35.5217 -25.9335 0.50215 -0.450283 -0.0278392 
1506 2 2.55829 2.75205 27.3249 -25.5485 1.0314 -0.694026 -1.90436 
1507 2 2.70522 2.74242 32.7671 -25.5801 0.6354 1.10823 -0.557232 
2006 1 1.17354 1.4852 28.5843 -7.78323 0.666292 -0.340492 1.28998 
2007 1 1.41321 1.37396 34.0298 -7.90156 0.226205 -0.769924 0.101076 
2506 1 3.99309 4.11027 31.4578 -7.18429 0.220739 0.0880642 -1.20166 
3006 1 3.92706 4.08597 28.4716 -7.55618 1.0668 0.0868125 1.69635 
3007 1 4.03848 4.18991 34.152 -7.1099 0.404018 -1.70478 0.131068 
3506 1 1.32907 1.52459 31.3224 -7.72964 0.0753675 -1.28888 0.0532088 
4006 1 4.09269 1.39213 31.147 -7.45858 -0.542356 -0.0294997 0.743549 
4506 1 1.28769 4.22579 28.6137 -7.98834 -0.568944 -0.433062 0.614091 
4507 1 1.22191 4.03994 34.0908 -7.27762 1.07348 0.475917 0.199622 
5006 1 1.25246 4.13302 31.4294 -7.43569 0.0254636 0.693365 -0.542381 
5506 1 4.02741 1.29379 28.3341 -7.29495 -0.619948 0.952003 1.92375 
5507 1 4.17779 1.43196 34.1093 -7.83762 -0.358785 -0.78713 -1.30409 
2106 1 6.80733 1.36497 28.6407 -7.48204 -0.319829 -0.582299 0.490337 
3606 1 6.73496 1.39739 31.4532 -7.46599 1.12784 -0.19801 -0.930656 
5106 1 6.71964 4.13878 31.3326 -7.7163 0.490889 0.226147 0.492334 
4606 1 6.73094 4.10075 28.538 -7.74299 -0.398744 -0.100458 0.470261 
1007 2 2.77561 0.0690086 35.3765 -25.3758 0.062192 -1.10626 0.987634 
5527 1 4.19917 6.70292 34.2072 -7.54359 0.436202 2.26124 -0.548581 
2027 1 1.53214 6.79166 33.9637 -7.73715 -0.631912 0.83526 0.878827 
5526 1 4.00153 6.80844 28.7211 -7.32571 0.0247308 0.429591 -1.08196 
2126 1 6.6951 6.81253 28.6844 -7.29841 -0.111079 -0.108831 -1.1858 
1006 2 2.63652 0.0952236 29.9494 -25.502 0.548777 -0.930909 -0.448564 
7 2 0.0681466 -0.0236316 32.7683 -25.0639 -1.21363 0.297742 -0.312519 
226 2 10.9901 5.52013 27.4033 -25.8057 -1.28439 -1.10006 -0.86717 
1606 2 8.10512 2.74074 27.2963 -25.6269 0.774011 0.124728 -0.851488 
2107 1 6.89081 1.30658 34.0517 -7.25141 0.363783 -0.0532299 0.752832 
4607 1 6.86813 4.01044 34.2148 -7.44704 -0.0685555 0.422633 -1.01513 
227 2 11.039 5.46299 32.8386 -25.6677 -0.132947 0.246215 -0.793864 
706 2 10.9156 2.77234 30.0332 -25.7021 -0.563453 0.0596486 -0.144184 
707 2 10.9894 2.71046 35.4738 -25.6491 0.732072 -0.383602 0.788051 
1126 2 8.12148 5.50256 29.9973 -25.5722 0.940398 -1.67851 -0.699307 
1127 2 8.35375 5.43031 35.5169 -25.339 -1.508 -0.471299 0.0717529 
1607 2 8.19315 2.76829 32.8052 -25.4983 -0.122132 -0.603579 -0.721405 
2206 1 12.1574 1.38396 28.6191 -7.40094 1.15299 0.616183 -0.00209878 
2207 1 12.3595 1.33709 33.9779 -7.04725 -0.233815 0.264534 0.752856 
2606 1 9.49089 4.1919 31.365 -7.33496 -0.200644 -0.771413 0.682504 
3106 1 9.42475 4.06089 28.71 -7.1478 1.03967 -0.218313 -0.1572 
3107 1 9.60926 3.97182 34.1031 -7.72791 0.885135 2.08782 0.25001 
3706 1 12.2703 1.40206 31.3298 -7.141 0.173197 0.592942 -0.288719 
4106 1 9.4982 1.23519 31.3905 -7.81015 -0.0874348 1.47473 0.347585 
4706 1 12.3464 4.19231 28.7602 -7.59478 0.030842 -0.496216 -0.31922 
4707 1 12.5079 4.21312 34.2116 -7.76603 -1.90487 -1.19619 0.139823 
5206 1 12.2051 4.05432 31.4493 -7.30983 0.524384 0.431538 0.338767 
5606 1 9.4604 1.38603 28.6851 -7.44085 0.0693002 -0.09809 -0.445776 
5607 1 9.66449 1.46424 34.1964 -7.19028 -0.712569 -2.0362 -0.961029 
1227 2 13.6229 5.43955 35.6903 -25.1409 2.25373 0.286736 -1.21569 
207 2 10.9454 0.0248959 32.618 -25.5384 1.08454 0.161491 1.81454 
206 2 10.7479 0.0819805 27.2965 -25.6778 1.57475 0.000432341 -0.555906 
2127 1 6.97195 6.69346 34.0611 -7.72077 -0.392493 0.356291 -0.201435 