# VESTA

8 atoms
1 atom types

0.0 5.4687281 xlo xhi
0.0 5.4687281 ylo yhi
0.0 5.4687281 zlo zhi

Atoms

1 1     1.367182016         4.101546288         1.367182016
2 1     0.000000000         0.000000000         2.734364033
3 1     1.367182016         1.367182016         4.101546288
4 1     0.000000000         2.734364033         0.000000000
5 1     4.101546288         4.101546288         4.101546288
6 1     2.734364033         0.000000000         0.000000000
7 1     4.101546288         1.367182016         1.367182016
8 1     2.734364033         2.734364033         2.734364033
