LAMMPS data file via write_data, version 1 Sep 2017, timestep = 0

44 atoms
3 atom types
39 bonds
2 bond types
32 angles
1 angle types

0.0000000000000000e+00 1.6000000000000000e+01 xlo xhi
0.0000000000000000e+00 8.0000000000000000e+00 ylo yhi
9.9000000000000e+00 10e+02 zlo zhi

Masses

1 514
2 514
3 1

Atoms # molecular

1 1 1 0.0000000000000000e+00 0.0000000000000000e+00 1.0000000000000000e+01 
2 1 1 0.0000000000000000e+00 0.0000000000000000e+00 2.0000000000000000e+01
3 1 1 0.0000000000000000e+00 0.0000000000000000e+00 3.0000000000000000e+01
4 1 1 0.0000000000000000e+00 0.0000000000000000e+00 3.9999999999999972e+01 
5 1 1 0.0000000000000000e+00 0.0000000000000000e+00 5.0000000000000028e+01 
6 1 2 0.0000000000000000e+00 0.0000000000000000e+00 6.0000000000000000e+01 
7 1 2 0.0000000000000000e+00 0.0000000000000000e+00 7.0000000000000014e+01 
8 1 2 0.0000000000000000e+00 0.0000000000000000e+00 8.0000000000000028e+01 
9 1 2 0.0000000000000000e+00 0.0000000000000000e+00 9.0000000000000028e+01 
10 1 2 0.0000000000000000e+00 0.0000000000000000e+00 9.9999999999999972e+01 
11 2 2 0.0000000000000000e+00 0.0000000000000000e+00 1.0999999999999997e+02 
12 2 2 0.0000000000000000e+00 0.0000000000000000e+00 1.2000000000000003e+02 
13 2 2 0.0000000000000000e+00 0.0000000000000000e+00 1.3000000000000006e+02 
14 2 2 0.0000000000000000e+00 0.0000000000000000e+00 1.3999999999999989e+02 
15 2 2 0.0000000000000000e+00 0.0000000000000000e+00 1.5000000000000000e+02 
16 2 1 0.0000000000000000e+00 0.0000000000000000e+00 1.6000000000000000e+02 
17 2 1 0.0000000000000000e+00 0.0000000000000000e+00 1.6999999999999989e+02 
18 2 1 0.0000000000000000e+00 0.0000000000000000e+00 1.7999999999999994e+02 
19 2 1 0.0000000000000000e+00 0.0000000000000000e+00 1.8999999999999994e+02 
20 2 1 0.0000000000000000e+00 0.0000000000000000e+00 2.0000000000000000e+02 
21 3 1 0.0000000000000000e+00 0.0000000000000000e+00 2.1000000000000000e+02 
22 3 1 0.0000000000000000e+00 0.0000000000000000e+00 2.2000000000000006e+02 
23 3 1 0.0000000000000000e+00 0.0000000000000000e+00 2.3000000000000000e+02 
24 3 1 0.0000000000000000e+00 0.0000000000000000e+00 2.3999999999999983e+02 
25 3 1 0.0000000000000000e+00 0.0000000000000000e+00 2.4999999999999994e+02 
26 3 2 0.0000000000000000e+00 0.0000000000000000e+00 2.6000000000000017e+02 
27 3 2 0.0000000000000000e+00 0.0000000000000000e+00 2.7000000000000000e+02 
28 3 2 0.0000000000000000e+00 0.0000000000000000e+00 2.8000000000000011e+02 
29 3 2 0.0000000000000000e+00 0.0000000000000000e+00 2.9000000000000006e+02 
30 3 2 0.0000000000000000e+00 0.0000000000000000e+00 3.0000000000000011e+02 
31 4 2 0.0000000000000000e+00 0.0000000000000000e+00 3.0999999999999983e+02
32 4 2 0.0000000000000000e+00 0.0000000000000000e+00 3.1999999999999989e+02 
33 4 2 0.0000000000000000e+00 0.0000000000000000e+00 3.3000000000000011e+02 
34 4 2 0.0000000000000000e+00 0.0000000000000000e+00 3.4000000000000000e+02 
35 4 2 0.0000000000000000e+00 0.0000000000000000e+00 3.5000000000000006e+02 
36 4 1 0.0000000000000000e+00 0.0000000000000000e+00 3.6000000000000017e+02 
37 4 1 0.0000000000000000e+00 0.0000000000000000e+00 3.7000000000000006e+02 
38 4 1 0.0000000000000000e+00 0.0000000000000000e+00 3.8000000000000000e+02 
39 4 1 0.0000000000000000e+00 0.0000000000000000e+00 3.9000000000000000e+02 
40 4 1 0.0000000000000000e+00 0.0000000000000000e+00 3.9999999999999989e+02 
41 5 3 0.5000000000000000e+00 0.5000000000000000e+00 9.9500000000000000e+00 
42 5 3 8.5000000000000000e+00 0.5000000000000000e+00 9.9500000000000000e+00 
43 5 3 4.5000000000000000e+00 4.5000000000000000e+00 9.9500000000000000e+00 
44 5 3 1.2500000000000000e+01 4.5000000000000000e+00 9.9500000000000000e+00 

Velocities

1 0.0000000000000000e+00 0.0000000000000000e+00 0.0000000000000000e+00
2 0.0000000000000000e+00 0.0000000000000000e+00 0.0000000000000000e+00
3 0.0000000000000000e+00 0.0000000000000000e+00 0.0000000000000000e+00
4 0.0000000000000000e+00 0.0000000000000000e+00 0.0000000000000000e+00
5 0.0000000000000000e+00 0.0000000000000000e+00 0.0000000000000000e+00
6 0.0000000000000000e+00 0.0000000000000000e+00 0.0000000000000000e+00
7 0.0000000000000000e+00 0.0000000000000000e+00 0.0000000000000000e+00
8 0.0000000000000000e+00 0.0000000000000000e+00 0.0000000000000000e+00
9 0.0000000000000000e+00 0.0000000000000000e+00 0.0000000000000000e+00
10 0.0000000000000000e+00 0.0000000000000000e+00 0.0000000000000000e+00
11 0.0000000000000000e+00 0.0000000000000000e+00 0.0000000000000000e+00
12 0.0000000000000000e+00 0.0000000000000000e+00 0.0000000000000000e+00
13 0.0000000000000000e+00 0.0000000000000000e+00 0.0000000000000000e+00
14 0.0000000000000000e+00 0.0000000000000000e+00 0.0000000000000000e+00
15 0.0000000000000000e+00 0.0000000000000000e+00 0.0000000000000000e+00
16 0.0000000000000000e+00 0.0000000000000000e+00 0.0000000000000000e+00
17 0.0000000000000000e+00 0.0000000000000000e+00 0.0000000000000000e+00
18 0.0000000000000000e+00 0.0000000000000000e+00 0.0000000000000000e+00
19 0.0000000000000000e+00 0.0000000000000000e+00 0.0000000000000000e+00
20 0.0000000000000000e+00 0.0000000000000000e+00 0.0000000000000000e+00
21 0.0000000000000000e+00 0.0000000000000000e+00 0.0000000000000000e+00
22 0.0000000000000000e+00 0.0000000000000000e+00 0.0000000000000000e+00
23 0.0000000000000000e+00 0.0000000000000000e+00 0.0000000000000000e+00
24 0.0000000000000000e+00 0.0000000000000000e+00 0.0000000000000000e+00
25 0.0000000000000000e+00 0.0000000000000000e+00 0.0000000000000000e+00
26 0.0000000000000000e+00 0.0000000000000000e+00 0.0000000000000000e+00
27 0.0000000000000000e+00 0.0000000000000000e+00 0.0000000000000000e+00
28 0.0000000000000000e+00 0.0000000000000000e+00 0.0000000000000000e+00
29 0.0000000000000000e+00 0.0000000000000000e+00 0.0000000000000000e+00
30 0.0000000000000000e+00 0.0000000000000000e+00 0.0000000000000000e+00
31 0.0000000000000000e+00 0.0000000000000000e+00 0.0000000000000000e+00
32 0.0000000000000000e+00 0.0000000000000000e+00 0.0000000000000000e+00
33 0.0000000000000000e+00 0.0000000000000000e+00 0.0000000000000000e+00
34 0.0000000000000000e+00 0.0000000000000000e+00 0.0000000000000000e+00
35 0.0000000000000000e+00 0.0000000000000000e+00 0.0000000000000000e+00
36 0.0000000000000000e+00 0.0000000000000000e+00 0.0000000000000000e+00
37 0.0000000000000000e+00 0.0000000000000000e+00 0.0000000000000000e+00
38 0.0000000000000000e+00 0.0000000000000000e+00 0.0000000000000000e+00
39 0.0000000000000000e+00 0.0000000000000000e+00 0.0000000000000000e+00
40 0.0000000000000000e+00 0.0000000000000000e+00 0.0000000000000000e+00
41 0.0000000000000000e+00 0.0000000000000000e+00 0.0000000000000000e+00
42 0.0000000000000000e+00 0.0000000000000000e+00 0.0000000000000000e+00
43 0.0000000000000000e+00 0.0000000000000000e+00 0.0000000000000000e+00
44 0.0000000000000000e+00 0.0000000000000000e+00 0.0000000000000000e+00

Bonds

1 1 1 2
2 1 2 3
3 1 3 4
4 1 4 5
5 1 5 6
6 1 6 7
7 1 7 8
8 1 8 9
9 1 9 10
10 2 10 11
11 1 11 12
12 1 12 13
13 1 13 14
14 1 14 15
15 1 15 16
16 1 16 17
17 1 17 18
18 1 18 19
19 1 19 20
20 2 20 21
21 1 21 22
22 1 22 23
23 1 23 24
24 1 24 25
25 1 25 26
26 1 26 27
27 1 27 28
28 1 28 29
29 1 29 30
30 2 30 31
31 1 31 32
32 1 32 33
33 1 33 34
34 1 34 35
35 1 35 36
36 1 36 37
37 1 37 38
38 1 38 39
39 1 39 40

Angles

1 1 1 2 3
2 1 2 3 4
3 1 3 4 5
4 1 4 5 6
5 1 5 6 7
6 1 6 7 8
7 1 7 8 9
8 1 8 9 10
9 1 11 12 13
10 1 12 13 14
11 1 13 14 15
12 1 14 15 16
13 1 15 16 17
14 1 16 17 18
15 1 17 18 19
16 1 18 19 20
17 1 21 22 23
18 1 22 23 24
19 1 23 24 25
20 1 24 25 26
21 1 25 26 27
22 1 26 27 28
23 1 27 28 29
24 1 28 29 30
25 1 31 32 33
26 1 32 33 34
27 1 33 34 35
28 1 34 35 36
29 1 35 36 37
30 1 36 37 38
31 1 37 38 39
32 1 38 39 40
