LAMMPS data file via write_data, version 22 Dec 2022, timestep = 4

2 atoms
2 atom types

-1.7921581832124675e-05 3.312817921581832 xlo xhi
-1.7921581832124675e-05 3.312817921581832 ylo yhi
-1.7921581832124675e-05 3.312817921581832 zlo zhi

Masses

1 24.305
2 26.982

Atoms # atomic

1 1 -1.7921581832124675e-05 -1.7921581832124675e-05 -1.7921581832124675e-05 0 0 0
2 2 1.6564 1.6564 1.6564 0 0 0

Velocities

1 0 0 0
2 0 0 0
