# LAMMPS data file written by OVITO Basic 3.8.4

2 atoms
2 atom types

0.0 3.08 xlo xhi
0.0 3.08 ylo yhi
0.0 3.08 zlo zhi

Masses

1 47.8800 # Ti
2 50.942  # V

Atoms  # atomic

1 2 0.0 0.0 0.0
2 1 1.54 1.54 1.54
