Siesta Version:                                        siesta-trunk-411
Architecture  : x86_64-unknown-linux-gnu--Intel
Compiler flags: mpif90 -shared-intel -O2
PARALLEL version

* Running on  144 nodes in parallel
>> Start of run:   3-MAR-2014  18:22:48

                           ***********************       
                           *  WELCOME TO SIESTA  *       
                           ***********************       

reinit: Reading from standard input
************************** Dump of input data file ****************************
# Final relaxed coordinates
SystemLabel      ssy_dimer_c1_m
NumberOfAtoms    78
NumberOfSpecies  6
%block ChemicalSpeciesLabel
    1    6  C
    2   16  S
    3   11  Na
    4    7  N
    5    8  O
    6    1  H
%endblock ChemicalSpeciesLabel
LatticeConstant 1.0 Ang
%block LatticeParameters
  35.000000  24.000000  24.000000  90.000000  90.000000  90.000000
%endblock LatticeParameters
AtomicCoordinatesFormat NotScaledCartesianAng
%block AtomicCoordinatesAndAtomicSpecies
   11.97156763   14.86841152   12.23113622   5       1  O
   12.36649603   16.76412780   13.82834898   5       2  O
   11.55602410   14.54759345   14.68303822   5       3  O
   12.49667178   15.22453471   13.65293016   2       4  S
   20.70604814   14.20117379   13.63623237   5       5  O
   19.46950844   14.51489189   13.74925714   1       6  C
   19.82341448   16.68246103   13.65155436   6       7  H
   19.03485961   15.93048136   13.73672989   1       8  C
   17.40160079   17.33134271   13.78019973   6       9  H
   17.69640215   16.27722122   13.80507305   1      10  C
   16.62412944   15.27195496   13.87971726   1      11  C
   14.97811974   16.73707952   13.79491009   6      12  H
   15.24741521   15.67938431   13.85131772   1      13  C
   14.23755172   14.69242226   13.86387117   1      14  C
   13.72820893   12.55689009   13.95761471   6      15  H
   14.53466730   13.29497095   13.94476229   1      16  C
   16.13708723   11.82882680   14.02856003   6      17  H
   15.88930742   12.89082319   13.98444803   1      18  C
   16.95660127   13.85720946   13.93000877   1      19  C
   18.39622635   13.45896180   13.89146635   1      20  C
   18.65549326   12.12690930   13.94570486   4      21  N
   20.66334999   12.46707705   13.81597807   6      22  H
   19.93665543   11.71975841   13.90904630   4      23  N
   18.90710836    7.15975447   13.86896182   6      24  H
   19.65263094    7.95711312   13.89175929   1      25  C
   18.20981954    9.60248520   13.87449161   6      26  H
   19.26255841    9.31803351   13.89299351   1      27  C
   20.27266592   10.33687645   13.91430728   1      28  C
   22.42339012   10.77837278   13.89680224   6      29  H
   21.66350554    9.99171318   13.91274150   1      30  C
   23.11345399    8.35230452   13.85901370   6      31  H
   22.05663610    8.62790588   13.89988605   1      32  C
   21.04116898    7.63079633   13.90300091   1      33  C
   20.54053843    5.01300746   13.09341230   5      34  O
   22.95245847    5.64784289   13.43701093   5      35  O
   21.51061778    5.86141232   13.96320517   2      36  S
   21.45182434    5.29142094   15.40798581   5      37  O
   25.37333129    9.23106720   12.33009079   5      38  O
   24.99756499    9.58916292   10.86370299   2      39  S
   26.15024971   10.46400347   10.29390207   5      40  O
   24.94078989    8.27155555   10.05019913   5      41  O
   23.40815070   10.48491660   10.76102429   1      42  C
   23.40249343   11.88065205   11.04447702   1      43  C
   24.33545552   12.39506077   11.28310566   6      44  H
   22.17208118   12.58066010   11.00611360   1      45  C
   22.12778806   13.64480136   11.25377627   6      46  H
   20.96620225   11.87723149   10.67306870   1      47  C
   20.98854692   10.47178447   10.38936861   1      48  C
   20.05974806    9.95735479   10.13941628   6      49  H
   22.22002576    9.77047054   10.43671356   1      50  C
   22.26769528    8.70020091   10.22480503   6      51  H
   19.76401285   12.63300047   10.64115038   4      52  N
   19.76113556   13.67864173   10.67133647   6      53  H
   18.56210535   12.02550897   10.57703099   4      54  N
   17.45086006   12.79847147   10.52705752   1      55  C
   16.14113766   12.08138351   10.56313800   1      56  C
   16.05916769   10.65250981   10.70465609   1      57  C
   16.98075654   10.06829243   10.74228813   6      58  H
   14.80561974   10.00671910   10.80764920   1      59  C
   14.73189545    8.92210709   10.90746072   6      60  H
   13.61650461   10.80029231   10.77515236   1      61  C
   13.64450326   12.20431229   10.62663787   1      62  C
   12.72086599   12.78909662   10.63169204   6      63  H
   14.91640207   12.86108189   10.51310835   1      64  C
   14.97955269   14.32860047   10.40009419   1      65  C
   14.02921390   14.87205512   10.38407682   6      66  H
   16.18217294   15.01469606   10.37110272   1      67  C
   16.22323445   16.10621124   10.31617256   6      68  H
   17.48082886   14.31199294   10.48038724   1      69  C
   18.58162682   14.95979069   10.54670062   5      70  O
   12.00573070    9.96414671   11.00399061   2      71  S
   11.60885032    9.88078612   12.50540616   5      72  O
   10.86770424   10.71281738   10.26002671   5      73  O
   12.06817688    8.50993243   10.45813241   5      74  O
   22.05307866    3.67655148   14.01700383   3      75  Na
   10.04413237    8.89602899   11.27722260   3      76  Na
   10.35301889   15.93100599   13.46945880   3      77  Na
   26.98892967    8.52524777   10.90408418   3      78  Na
%endblock AtomicCoordinatesAndAtomicSpecies
XC.Functional  VDW
XC.Authors  LMKLL
PAO.BasisSize  TZP
%block PAO.Basis                                   # Define Basis set
C     2
n=2    0    3
 9.0 2.7 3.6
 1.0 1.0 1.0
n=2    1    3  P 1
 9.0 2.5 3.6
 1.0 1.0 1.0
N     2
n=2    0    3
 9.0 2.5 4.3
 1.0 1.0 1.0
n=2    1    3  P 1
 9.0 2.4 3.8
 1.0 1.0 1.0
O     2
n=2    0    3
 8.5 2.5 5.0
 1.0 1.0 1.0
n=2    1 3 P 1
 9.0 2.4 5.4
 1.0 1.0 1.0
H  1
n=1  0  3 P 1
 8.0 1.8 4.1
 1.0 1.0 1.0
S     2
n=3    0    3
 8.5 2.5 5.0
 1.0 1.0 1.0
n=3    1    3  P 1
 8.5 2.4 5.4
 1.0 1.0 1.0
%endblock PAO.Basis
PAO.SplitNorm  0.15
PAO.EnergyShift  0.001 Ry
DM.NumberPulay  5
DM.MixingWeight  0.25
SolutionMethod  diagon
MD.TypeOfRun  CG
MD.NumCGSteps  0
MD.MaxForceTol  0.01 eV/Ang
MeshCutoff  300.0 Ry
MaxSCFIterations  500
UseSaveData  true
LongOutput  true
PAO.SplitNormH        0.5
DM.Tolerance         1.d-4
WriteXML false
************************** End of input data file *****************************

reinit: -----------------------------------------------------------------------
reinit: System Name: 
reinit: -----------------------------------------------------------------------
reinit: System Label: ssy_dimer_c1_m                                              
reinit: -----------------------------------------------------------------------
 Processed:          148  lines.
 Processed:          148  lines.
 Processed:          148  lines.
 Processed:          148  lines.
 Processed:          148  lines.
 Processed:          148  lines.
 Processed:          148  lines.
 Processed:          148  lines.
 Processed:          148  lines.
 Processed:          148  lines.
 Processed:          148  lines.
 Processed:          148  lines.
 Processed:          148  lines.
 Processed:          148  lines.
 Processed:          148  lines.
 Processed:          148  lines.
 Processed:          148  lines.
 Processed:          148  lines.
 Processed:          148  lines.
 Processed:          148  lines.
 Processed:          148  lines.
 Processed:          148  lines.
 Processed:          148  lines.
 Processed:          148  lines.
 Processed:          148  lines.
 Processed:          148  lines.
 Processed:          148  lines.
 Processed:          148  lines.
 Processed:          148  lines.
 Processed:          148  lines.
 Processed:          148  lines.
 Processed:          148  lines.
 Processed:          148  lines.
 Processed:          148  lines.
 Processed:          148  lines.
 Processed:          148  lines.
 Processed:          148  lines.
 Processed:          148  lines.
 Processed:          148  lines.
 Processed:          148  lines.
 Processed:          148  lines.
 Processed:          148  lines.
 Processed:          148  lines.
 Processed:          148  lines.
 Processed:          148  lines.
 Processed:          148  lines.
 Processed:          148  lines.
 Processed:          148  lines.
 Processed:          148  lines.
 Processed:          148  lines.
 Processed:          148  lines.
 Processed:          148  lines.
 Processed:          148  lines.
 Processed:          148  lines.
 Processed:          148  lines.
 Processed:          148  lines.
 Processed:          148  lines.
 Processed:          148  lines.
 Processed:          148  lines.
 Processed:          148  lines.
 Processed:          148  lines.
 Processed:          148  lines.
 Processed:          148  lines.
 Processed:          148  lines.
 Processed:          148  lines.
 Processed:          148  lines.
 Processed:          148  lines.
 Processed:          148  lines.
 Processed:          148  lines.
 Processed:          148  lines.
 Processed:          148  lines.
 Processed:          148  lines.
 Processed:          148  lines.
 Processed:          148  lines.
 Processed:          148  lines.
 Processed:          148  lines.
 Processed:          148  lines.
 Processed:          148  lines.
 Processed:          148  lines.
 Processed:          148  lines.
 Processed:          148  lines.
 Processed:          148  lines.
 Processed:          148  lines.
 Processed:          148  lines.
 Processed:          148  lines.
 Processed:          148  lines.
 Processed:          148  lines.
 Processed:          148  lines.
 Processed:          148  lines.
 Processed:          148  lines.
 Processed:          148  lines.
 Processed:          148  lines.
 Processed:          148  lines.
 Processed:          148  lines.
 Processed:          148  lines.
 Processed:          148  lines.
 Processed:          148  lines.
 Processed:          148  lines.
 Processed:          148  lines.
 Processed:          148  lines.
 Processed:          148  lines.
 Processed:          148  lines.
 Processed:          148  lines.
 Processed:          148  lines.
 Processed:          148  lines.
 Processed:          148  lines.
 Processed:          148  lines.
 Processed:          148  lines.
 Processed:          148  lines.
 Processed:          148  lines.
 Processed:          148  lines.
 Processed:          148  lines.
 Processed:          148  lines.
 Processed:          148  lines.
 Processed:          148  lines.
 Processed:          148  lines.
 Processed:          148  lines.
 Processed:          148  lines.
 Processed:          148  lines.
 Processed:          148  lines.
 Processed:          148  lines.
 Processed:          148  lines.
 Processed:          148  lines.
 Processed:          148  lines.
 Processed:          148  lines.
 Processed:          148  lines.
 Processed:          148  lines.
 Processed:          148  lines.
 Processed:          148  lines.
 Processed:          148  lines.
 Processed:          148  lines.
 Processed:          148  lines.
 Processed:          148  lines.
 Processed:          148  lines.
 Processed:          148  lines.
 Processed:          148  lines.
 Processed:          148  lines.
 Processed:          148  lines.
 Processed:          148  lines.
 Processed:          148  lines.
 Processed:          148  lines.
 Processed:          148  lines.
 Processed:          148  lines.

initatom: Reading input for the pseudopotentials and atomic orbitals ----------
 Species number:            1  Label: C Atomic number:           6
 Species number:            2  Label: S Atomic number:          16
 Species number:            3  Label: Na Atomic number:          11
 Species number:            4  Label: N Atomic number:           7
 Species number:            5  Label: O Atomic number:           8
 Species number:            6  Label: H Atomic number:           1
Ground state valence configuration:   2s02  2p02
Reading pseudopotential information in formatted form from C.psf

Valence configuration for pseudopotential generation:
2s( 2.00) rc: 1.56
2p( 2.00) rc: 1.56
3d( 0.00) rc: 1.56
4f( 0.00) rc: 1.56
Ground state valence configuration:   3s02  3p04
Reading pseudopotential information in formatted form from S.psf

Valence configuration for pseudopotential generation:
3s( 2.00) rc: 1.61
3p( 4.00) rc: 1.72
3d( 0.00) rc: 1.90
4f( 0.00) rc: 1.90
Ground state valence configuration:   3s01
Reading pseudopotential information in formatted form from Na.psf

Valence configuration for pseudopotential generation:
3s( 1.00) rc: 2.94
3p( 0.00) rc: 3.50
3d( 0.00) rc: 2.94
Ground state valence configuration:   2s02  2p03
Reading pseudopotential information in formatted form from N.psf

Valence configuration for pseudopotential generation:
2s( 2.00) rc: 1.48
2p( 3.00) rc: 1.48
3d( 0.00) rc: 1.48
4f( 0.00) rc: 1.48
Ground state valence configuration:   2s02  2p04
Reading pseudopotential information in formatted form from O.psf

Valence configuration for pseudopotential generation:
2s( 2.00) rc: 1.47
2p( 4.00) rc: 1.47
3d( 0.00) rc: 1.47
4f( 0.00) rc: 1.47
Ground state valence configuration:   1s01
Reading pseudopotential information in formatted form from H.psf

Valence configuration for pseudopotential generation:
1s( 1.00) rc: 1.25
2p( 0.00) rc: 1.25
3d( 0.00) rc: 1.25
4f( 0.00) rc: 1.25
For C, standard SIESTA heuristics set lmxkb to 3
 (one more than the basis l, including polarization orbitals).
Use PS.lmax or PS.KBprojectors blocks to override.
For S, standard SIESTA heuristics set lmxkb to 3
 (one more than the basis l, including polarization orbitals).
Use PS.lmax or PS.KBprojectors blocks to override.
For Na, standard SIESTA heuristics set lmxkb to 2
 (one more than the basis l, including polarization orbitals).
Use PS.lmax or PS.KBprojectors blocks to override.
For N, standard SIESTA heuristics set lmxkb to 3
 (one more than the basis l, including polarization orbitals).
Use PS.lmax or PS.KBprojectors blocks to override.
For O, standard SIESTA heuristics set lmxkb to 3
 (one more than the basis l, including polarization orbitals).
Use PS.lmax or PS.KBprojectors blocks to override.
For H, standard SIESTA heuristics set lmxkb to 2
 (one more than the basis l, including polarization orbitals).
Use PS.lmax or PS.KBprojectors blocks to override.

<basis_specs>
===============================================================================
C                    Z=   6    Mass=  12.010        Charge= 0.17977+309
Lmxo=1 Lmxkb= 3    BasisType=split      Semic=F
L=0  Nsemic=0  Cnfigmx=2
          n=1  nzeta=3  polorb=0
            splnorm:   0.15000    
               vcte:    0.0000    
               rinn:    0.0000    
                rcs:    9.0000      2.7000      3.6000    
            lambdas:    1.0000      1.0000      1.0000    
L=1  Nsemic=0  Cnfigmx=2
          n=1  nzeta=3  polorb=1
            splnorm:   0.15000    
               vcte:    0.0000    
               rinn:    0.0000    
                rcs:    9.0000      2.5000      3.6000    
            lambdas:    1.0000      1.0000      1.0000    
-------------------------------------------------------------------------------
L=0  Nkbl=1  erefs: 0.17977+309
L=1  Nkbl=1  erefs: 0.17977+309
L=2  Nkbl=1  erefs: 0.17977+309
L=3  Nkbl=1  erefs: 0.17977+309
===============================================================================
</basis_specs>

atom: Called for C                     (Z =   6)

read_vps: Pseudopotential generation method:
read_vps: ATM3.3    Troullier-Martins                       
Total valence charge:    4.00000

xc_check: Exchange-correlation functional:
xc_check: VDW LMKLL
xc_check: WARNING: Pseudopotential generated with Unknown atomic XC code functional
V l=0 = -2*Zval/r beyond r=  5.3157
V l=1 = -2*Zval/r beyond r=  5.3157
V l=2 = -2*Zval/r beyond r=  5.3157
V l=3 = -2*Zval/r beyond r=  5.3157
All V_l potentials equal beyond r=  1.5418
This should be close to max(r_c) in ps generation
All pots = -2*Zval/r beyond r=  5.3157
Using large-core scheme for Vlocal

atom: Estimated core radius    5.31569

atom: Including non-local core corrections could be a good idea
atom: Maximum radius for 4*pi*r*r*local-pseudopot. charge    5.72973
atom: Maximum radius for r*vlocal+2*Zval:    5.38256
GHOST: No ghost state for L =  0
GHOST: No ghost state for L =  1
GHOST: No ghost state for L =  2
GHOST: No ghost state for L =  3

KBgen: Kleinman-Bylander projectors: 
   l= 0   rc=  1.600766   el= -1.028746   Ekb=  4.362799   kbcos=  0.292106
   l= 1   rc=  1.600766   el= -0.417779   Ekb= -4.642779   kbcos= -0.389769
   l= 2   rc=  1.600766   el=  0.000137   Ekb= -1.256278   kbcos= -0.011586
   l= 3   rc=  1.600766   el=  0.001231   Ekb= -0.552397   kbcos= -0.001665

KBgen: Total number of  Kleinman-Bylander projectors:   16
atom: -------------------------------------------------------------------------

atom: SANKEY-TYPE ORBITALS:
atom: Selected multiple-zeta basis: split     

SPLIT: Orbitals with angular momentum L= 0

SPLIT: Basis orbitals for state 2s

   izeta = 1
                 lambda =    1.000000
                     rc =    9.099279
                 energy =   -1.028782
                kinetic =    0.818365
    potential(screened) =   -1.847147
       potential(ionic) =   -5.384555

   izeta = 2
                 rmatch =    2.740361
              splitnorm =    0.376993
                 energy =   -0.589586
                kinetic =    1.807161
    potential(screened) =   -2.396748
       potential(ionic) =   -6.344602

   izeta = 3
                 rmatch =    3.607901
              splitnorm =    0.134907
                 energy =   -0.911262
                kinetic =    1.252630
    potential(screened) =   -2.163892
       potential(ionic) =   -5.956700

SPLIT: Orbitals with angular momentum L= 1

SPLIT: Basis orbitals for state 2p

   izeta = 1
                 lambda =    1.000000
                     rc =    9.099279
                 energy =   -0.417701
                kinetic =    2.341737
    potential(screened) =   -2.759439
       potential(ionic) =   -6.120003

   izeta = 2
                 rmatch =    2.542323
              splitnorm =    0.421681
                 energy =    0.194476
                kinetic =    5.514744
    potential(screened) =   -5.320268
       potential(ionic) =   -9.401931

   izeta = 3
                 rmatch =    3.607901
              splitnorm =    0.186223
                 energy =   -0.262948
                kinetic =    3.720245
    potential(screened) =   -3.983193
       potential(ionic) =   -7.803234

POLgen: Perturbative polarization orbital with L=  2

POLgen: Polarization orbital for state 2p

   izeta = 1
                     rc =    9.099279
                 energy =    0.851019
                kinetic =    1.874696
    potential(screened) =   -1.023677
       potential(ionic) =   -3.588173
atom: Total number of Sankey-type orbitals: 17

atm_pop: Valence configuration (for local Pseudopot. screening):
 2s( 2.00)                                                            
 2p( 2.00)                                                            
Vna: chval, zval:    4.00000   4.00000

Vna:  Cut-off radius for the neutral-atom potential:   9.099279

atom: _________________________________________________________________________

<basis_specs>
===============================================================================
S                    Z=  16    Mass=  32.070        Charge= 0.17977+309
Lmxo=1 Lmxkb= 3    BasisType=split      Semic=F
L=0  Nsemic=0  Cnfigmx=3
          n=1  nzeta=3  polorb=0
            splnorm:   0.15000    
               vcte:    0.0000    
               rinn:    0.0000    
                rcs:    8.5000      2.5000      5.0000    
            lambdas:    1.0000      1.0000      1.0000    
L=1  Nsemic=0  Cnfigmx=3
          n=1  nzeta=3  polorb=1
            splnorm:   0.15000    
               vcte:    0.0000    
               rinn:    0.0000    
                rcs:    8.5000      2.4000      5.4000    
            lambdas:    1.0000      1.0000      1.0000    
-------------------------------------------------------------------------------
L=0  Nkbl=1  erefs: 0.17977+309
L=1  Nkbl=1  erefs: 0.17977+309
L=2  Nkbl=1  erefs: 0.17977+309
L=3  Nkbl=1  erefs: 0.17977+309
===============================================================================
</basis_specs>

atom: Called for S                     (Z =  16)

read_vps: Pseudopotential generation method:
read_vps: ATM3.3    Troullier-Martins                       
Total valence charge:    6.00000

xc_check: Exchange-correlation functional:
xc_check: VDW LMKLL
xc_check: WARNING: Pseudopotential generated with Unknown atomic XC code functional
V l=0 = -2*Zval/r beyond r=  6.0641
V l=1 = -2*Zval/r beyond r=  6.0641
V l=2 = -2*Zval/r beyond r=  6.0641
V l=3 = -2*Zval/r beyond r=  6.0641
All V_l potentials equal beyond r=  1.8726
This should be close to max(r_c) in ps generation
All pots = -2*Zval/r beyond r=  6.0641
Using large-core scheme for Vlocal

atom: Estimated core radius    6.06410

atom: Including non-local core corrections could be a good idea
atom: Maximum radius for 4*pi*r*r*local-pseudopot. charge    2.55960
atom: Maximum radius for r*vlocal+2*Zval:    6.14038
GHOST: No ghost state for L =  0
GHOST: No ghost state for L =  1
GHOST: No ghost state for L =  2
GHOST: No ghost state for L =  3

KBgen: Kleinman-Bylander projectors: 
   l= 0   rc=  1.944163   el= -1.280897   Ekb=  6.395246   kbcos=  0.283459
   l= 1   rc=  1.944163   el= -0.534686   Ekb=  1.645939   kbcos=  0.250402
   l= 2   rc=  1.944163   el=  0.000165   Ekb= -3.764048   kbcos= -0.059734
   l= 3   rc=  1.944163   el=  0.001272   Ekb= -1.091229   kbcos= -0.004621

KBgen: Total number of  Kleinman-Bylander projectors:   16
atom: -------------------------------------------------------------------------

atom: SANKEY-TYPE ORBITALS:
atom: Selected multiple-zeta basis: split     

SPLIT: Orbitals with angular momentum L= 0

SPLIT: Basis orbitals for state 3s

   izeta = 1
                 lambda =    1.000000
                     rc =    8.605429
                 energy =   -1.280962
                kinetic =    0.826070
    potential(screened) =   -2.107032
       potential(ionic) =   -7.040627

   izeta = 2
                 rmatch =    2.527802
              splitnorm =    0.583939
                 energy =    0.038605
                kinetic =    3.083455
    potential(screened) =   -3.044850
       potential(ionic) =   -8.363708

   izeta = 3
                 rmatch =    5.090524
              splitnorm =    0.013701
                 energy =   -1.269004
* WARNING: effective split_norm is quite small. Orbitals will be very similar.
                kinetic =    0.936613
    potential(screened) =   -2.205617
       potential(ionic) =   -7.226785

SPLIT: Orbitals with angular momentum L= 1

SPLIT: Basis orbitals for state 3p

   izeta = 1
                 lambda =    1.000000
                     rc =    8.605429
                 energy =   -0.534578
                kinetic =    1.389438
    potential(screened) =   -1.924015
       potential(ionic) =   -6.449639

   izeta = 2
                 rmatch =    2.404512
              splitnorm =    0.643930
                 energy =    0.750024
                kinetic =    4.180831
    potential(screened) =   -3.430807
       potential(ionic) =   -8.937179

   izeta = 3
                 rmatch =    5.487008
              splitnorm =    0.036903
                 energy =   -0.510885
* WARNING: effective split_norm is quite small. Orbitals will be very similar.
                kinetic =    1.634978
    potential(screened) =   -2.145863
       potential(ionic) =   -6.883370

POLgen: Perturbative polarization orbital with L=  2

POLgen: Polarization orbital for state 3p

   izeta = 1
                     rc =    8.605429
                 energy =    0.525734
                kinetic =    1.769545
    potential(screened) =   -1.243810
       potential(ionic) =   -5.158576
atom: Total number of Sankey-type orbitals: 17

atm_pop: Valence configuration (for local Pseudopot. screening):
 3s( 2.00)                                                            
 3p( 4.00)                                                            
Vna: chval, zval:    6.00000   6.00000

Vna:  Cut-off radius for the neutral-atom potential:   8.605429

atom: _________________________________________________________________________

<basis_specs>
===============================================================================
Na                   Z=  11    Mass=  22.990        Charge= 0.17977+309
Lmxo=0 Lmxkb= 2    BasisType=split      Semic=F
L=0  Nsemic=0  Cnfigmx=3
          n=1  nzeta=3  polorb=1
            splnorm:   0.15000    
               vcte:    0.0000    
               rinn:    0.0000    
                rcs:    0.0000      0.0000      0.0000    
            lambdas:    1.0000      1.0000      1.0000    
-------------------------------------------------------------------------------
L=0  Nkbl=1  erefs: 0.17977+309
L=1  Nkbl=1  erefs: 0.17977+309
L=2  Nkbl=1  erefs: 0.17977+309
===============================================================================
</basis_specs>

atom: Called for Na                    (Z =  11)

read_vps: Pseudopotential generation method:
read_vps: ATM3.3    Troullier-Martins                       
Total valence charge:    1.00000

xc_check: Exchange-correlation functional:
xc_check: VDW LMKLL
xc_check: WARNING: Pseudopotential generated with Unknown atomic XC code functional
V l=0 = -2*Zval/r beyond r= 10.7734
V l=1 = -2*Zval/r beyond r= 10.7734
V l=2 = -2*Zval/r beyond r= 10.7734
All V_l potentials equal beyond r=  3.2447
This should be close to max(r_c) in ps generation
All pots = -2*Zval/r beyond r= 10.7734
Using large-core scheme for Vlocal

atom: Estimated core radius   10.77344

atom: Including non-local core corrections could be a good idea
atom: Maximum radius for 4*pi*r*r*local-pseudopot. charge   11.32582
atom: Maximum radius for r*vlocal+2*Zval:   10.90896
GHOST: No ghost state for L =  0
GHOST: No ghost state for L =  1
GHOST: No ghost state for L =  2

KBgen: Kleinman-Bylander projectors: 
   l= 0   rc=  3.326887   el= -0.223037   Ekb=  0.939964   kbcos=  0.286137
   l= 1   rc=  3.497472   el= -0.067121   Ekb=  0.240696   kbcos=  0.324664
   l= 2   rc=  3.368737   el=  0.000162   Ekb= -1.792814   kbcos= -0.038461

KBgen: Total number of  Kleinman-Bylander projectors:    9
atom: -------------------------------------------------------------------------

atom: SANKEY-TYPE ORBITALS:
atom: Selected multiple-zeta basis: split     

SPLIT: Orbitals with angular momentum L= 0

SPLIT: Basis orbitals for state 3s

SPLIT: PAO cut-off radius determined from an
SPLIT: energy shift=  0.001000 Ry

   izeta = 1
                 lambda =    1.000000
                     rc =   11.612537
                 energy =   -0.222079
                kinetic =    0.147697
    potential(screened) =   -0.369777
       potential(ionic) =   -0.537811

   izeta = 2
                 rmatch =    8.710933
              splitnorm =    0.150000
                 energy =   -0.200365
                kinetic =    0.229153
    potential(screened) =   -0.429518
       potential(ionic) =   -0.594738

   izeta = 3
                 rmatch =    9.748190
              splitnorm =    0.075000
                 energy =   -0.210516
                kinetic =    0.202428
    potential(screened) =   -0.412944
       potential(ionic) =   -0.579751

POLgen: Perturbative polarization orbital with L=  1

POLgen: Polarization orbital for state 3s

   izeta = 1
                     rc =   11.612537
                 energy =   -0.044013
                kinetic =    0.282735
    potential(screened) =   -0.326748
       potential(ionic) =   -0.491619
atom: Total number of Sankey-type orbitals:  6

atm_pop: Valence configuration (for local Pseudopot. screening):
 3s( 1.00)                                                            
Vna: chval, zval:    1.00000   1.00000

Vna:  Cut-off radius for the neutral-atom potential:  11.612537

atom: _________________________________________________________________________

<basis_specs>
===============================================================================
N                    Z=   7    Mass=  14.010        Charge= 0.17977+309
Lmxo=1 Lmxkb= 3    BasisType=split      Semic=F
L=0  Nsemic=0  Cnfigmx=2
          n=1  nzeta=3  polorb=0
            splnorm:   0.15000    
               vcte:    0.0000    
               rinn:    0.0000    
                rcs:    9.0000      2.5000      4.3000    
            lambdas:    1.0000      1.0000      1.0000    
L=1  Nsemic=0  Cnfigmx=2
          n=1  nzeta=3  polorb=1
            splnorm:   0.15000    
               vcte:    0.0000    
               rinn:    0.0000    
                rcs:    9.0000      2.4000      3.8000    
            lambdas:    1.0000      1.0000      1.0000    
-------------------------------------------------------------------------------
L=0  Nkbl=1  erefs: 0.17977+309
L=1  Nkbl=1  erefs: 0.17977+309
L=2  Nkbl=1  erefs: 0.17977+309
L=3  Nkbl=1  erefs: 0.17977+309
===============================================================================
</basis_specs>

atom: Called for N                     (Z =   7)

read_vps: Pseudopotential generation method:
read_vps: ATM3.3    Troullier-Martins                       
Total valence charge:    5.00000

xc_check: Exchange-correlation functional:
xc_check: VDW LMKLL
xc_check: WARNING: Pseudopotential generated with Unknown atomic XC code functional
V l=0 = -2*Zval/r beyond r=  4.3886
V l=1 = -2*Zval/r beyond r=  4.3886
V l=2 = -2*Zval/r beyond r=  4.3886
V l=3 = -2*Zval/r beyond r=  4.3886
All V_l potentials equal beyond r=  1.4606
This should be close to max(r_c) in ps generation
All pots = -2*Zval/r beyond r=  4.3886
Using large-core scheme for Vlocal

atom: Estimated core radius    4.38860

atom: Including non-local core corrections could be a good idea
atom: Maximum radius for 4*pi*r*r*local-pseudopot. charge    4.78993
atom: Maximum radius for r*vlocal+2*Zval:    4.44380
GHOST: No ghost state for L =  0
GHOST: No ghost state for L =  1
GHOST: No ghost state for L =  2
GHOST: No ghost state for L =  3

KBgen: Kleinman-Bylander projectors: 
   l= 0   rc=  1.516426   el= -1.384037   Ekb=  5.003330   kbcos=  0.248027
   l= 1   rc=  1.516426   el= -0.553554   Ekb= -6.239124   kbcos= -0.455113
   l= 2   rc=  1.516426   el=  0.000157   Ekb= -1.621527   kbcos= -0.009557
   l= 3   rc=  1.516426   el=  0.001260   Ekb= -0.721831   kbcos= -0.001322

KBgen: Total number of  Kleinman-Bylander projectors:   16
atom: -------------------------------------------------------------------------

atom: SANKEY-TYPE ORBITALS:
atom: Selected multiple-zeta basis: split     

SPLIT: Orbitals with angular momentum L= 0

SPLIT: Basis orbitals for state 2s

   izeta = 1
                 lambda =    1.000000
                     rc =    9.061646
                 energy =   -1.384083
                kinetic =    1.138478
    potential(screened) =   -2.522561
       potential(ionic) =   -8.023340

   izeta = 2
                 rmatch =    2.531849
              splitnorm =    0.279302
                 energy =   -0.984788
                kinetic =    2.167047
    potential(screened) =   -3.151835
       potential(ionic) =   -9.249578

   izeta = 3
                 rmatch =    4.280232
              splitnorm =    0.017802
                 energy =   -1.364927
* WARNING: effective split_norm is quite small. Orbitals will be very similar.
                kinetic =    1.305680
    potential(screened) =   -2.670607
       potential(ionic) =   -8.325817

SPLIT: Orbitals with angular momentum L= 1

SPLIT: Basis orbitals for state 2p

   izeta = 1
                 lambda =    1.000000
                     rc =    9.061646
                 energy =   -0.553581
                kinetic =    3.375830
    potential(screened) =   -3.929411
       potential(ionic) =   -9.175051

   izeta = 2
                 rmatch =    2.408352
              splitnorm =    0.319803
                 energy =   -0.019422
                kinetic =    6.675109
    potential(screened) =   -6.694530
       potential(ionic) =  -12.919528

   izeta = 3
                 rmatch =    3.777250
              splitnorm =    0.083818
                 energy =   -0.477376
                kinetic =    4.399373
    potential(screened) =   -4.876748
       potential(ionic) =  -10.589170

POLgen: Perturbative polarization orbital with L=  2

POLgen: Polarization orbital for state 2p

   izeta = 1
                     rc =    9.061646
                 energy =    1.274251
                kinetic =    2.706331
    potential(screened) =   -1.432079
       potential(ionic) =   -5.376240
atom: Total number of Sankey-type orbitals: 17

atm_pop: Valence configuration (for local Pseudopot. screening):
 2s( 2.00)                                                            
 2p( 3.00)                                                            
Vna: chval, zval:    5.00000   5.00000

Vna:  Cut-off radius for the neutral-atom potential:   9.061646

atom: _________________________________________________________________________

<basis_specs>
===============================================================================
O                    Z=   8    Mass=  16.000        Charge= 0.17977+309
Lmxo=1 Lmxkb= 3    BasisType=split      Semic=F
L=0  Nsemic=0  Cnfigmx=2
          n=1  nzeta=3  polorb=0
            splnorm:   0.15000    
               vcte:    0.0000    
               rinn:    0.0000    
                rcs:    8.5000      2.5000      5.0000    
            lambdas:    1.0000      1.0000      1.0000    
L=1  Nsemic=0  Cnfigmx=2
          n=1  nzeta=3  polorb=1
            splnorm:   0.15000    
               vcte:    0.0000    
               rinn:    0.0000    
                rcs:    9.0000      2.4000      5.4000    
            lambdas:    1.0000      1.0000      1.0000    
-------------------------------------------------------------------------------
L=0  Nkbl=1  erefs: 0.17977+309
L=1  Nkbl=1  erefs: 0.17977+309
L=2  Nkbl=1  erefs: 0.17977+309
L=3  Nkbl=1  erefs: 0.17977+309
===============================================================================
</basis_specs>

atom: Called for O                     (Z =   8)

read_vps: Pseudopotential generation method:
read_vps: ATM3.3    Troullier-Martins                       
Total valence charge:    6.00000

xc_check: Exchange-correlation functional:
xc_check: VDW LMKLL
xc_check: WARNING: Pseudopotential generated with Unknown atomic XC code functional
V l=0 = -2*Zval/r beyond r=  2.6723
V l=1 = -2*Zval/r beyond r=  2.6723
V l=2 = -2*Zval/r beyond r=  2.6723
V l=3 = -2*Zval/r beyond r=  2.6723
All V_l potentials equal beyond r=  1.4482
This should be close to max(r_c) in ps generation
All pots = -2*Zval/r beyond r=  2.6723
Using large-core scheme for Vlocal

atom: Estimated core radius    2.67231

atom: Including non-local core corrections could be a good idea
atom: Maximum radius for 4*pi*r*r*local-pseudopot. charge    3.14389
atom: Maximum radius for r*vlocal+2*Zval:    2.70593
GHOST: No ghost state for L =  0
GHOST: No ghost state for L =  1
GHOST: No ghost state for L =  2
GHOST: No ghost state for L =  3

KBgen: Kleinman-Bylander projectors: 
   l= 0   rc=  1.503585   el= -1.779675   Ekb= -9.464596   kbcos= -0.084701
   l= 1   rc=  1.503585   el= -0.699088   Ekb= -8.000316   kbcos= -0.523182
   l= 2   rc=  1.503585   el=  0.000197   Ekb= -1.973137   kbcos= -0.008602
   l= 3   rc=  1.503585   el=  0.001319   Ekb= -0.877897   kbcos= -0.001222

KBgen: Total number of  Kleinman-Bylander projectors:   16
atom: -------------------------------------------------------------------------

atom: SANKEY-TYPE ORBITALS:
atom: Selected multiple-zeta basis: split     

SPLIT: Orbitals with angular momentum L= 0

SPLIT: Basis orbitals for state 2s

   izeta = 1
                 lambda =    1.000000
                     rc =    8.546503
                 energy =   -1.779728
                kinetic =    1.517373
    potential(screened) =   -3.297102
       potential(ionic) =  -11.177458

   izeta = 2
                 rmatch =    2.510382
              splitnorm =    0.165477
                 energy =   -1.504871
                kinetic =    2.431996
    potential(screened) =   -3.936867
       potential(ionic) =  -12.514426

   izeta = 3
                 rmatch =    5.055603
              splitnorm =    0.001104
                 energy =   -1.778115
* WARNING: effective split_norm is quite small. Orbitals will be very similar.
                kinetic =    1.561881
    potential(screened) =   -3.339996
       potential(ionic) =  -11.273025

SPLIT: Orbitals with angular momentum L= 1

SPLIT: Basis orbitals for state 2p

   izeta = 1
                 lambda =    1.000000
                     rc =    8.984708
                 energy =   -0.699155
                kinetic =    4.481222
    potential(screened) =   -5.180377
       potential(ionic) =  -12.692538

   izeta = 2
                 rmatch =    2.387934
              splitnorm =    0.223278
                 energy =   -0.294690
                kinetic =    7.512089
    potential(screened) =   -7.806779
       potential(ionic) =  -16.470490

   izeta = 3
                 rmatch =    5.449379
              splitnorm =    0.004964
                 energy =   -0.694858
* WARNING: effective split_norm is quite small. Orbitals will be very similar.
                kinetic =    4.668557
    potential(screened) =   -5.363415
       potential(ionic) =  -13.004195

POLgen: Perturbative polarization orbital with L=  2

POLgen: Polarization orbital for state 2p

   izeta = 1
                     rc =    8.984708
                 energy =    1.782562
                kinetic =    3.710549
    potential(screened) =   -1.927987
       potential(ionic) =   -7.553219
atom: Total number of Sankey-type orbitals: 17

atm_pop: Valence configuration (for local Pseudopot. screening):
 2s( 2.00)                                                            
 2p( 4.00)                                                            
Vna: chval, zval:    6.00000   6.00000

Vna:  Cut-off radius for the neutral-atom potential:   8.984708

atom: _________________________________________________________________________

<basis_specs>
===============================================================================
H                    Z=   1    Mass=  1.0100        Charge= 0.17977+309
Lmxo=0 Lmxkb= 2    BasisType=split      Semic=F
L=0  Nsemic=0  Cnfigmx=1
          n=1  nzeta=3  polorb=1
            splnorm:   0.50000    
               vcte:    0.0000    
               rinn:    0.0000    
                rcs:    8.0000      1.8000      4.1000    
            lambdas:    1.0000      1.0000      1.0000    
-------------------------------------------------------------------------------
L=0  Nkbl=1  erefs: 0.17977+309
L=1  Nkbl=1  erefs: 0.17977+309
L=2  Nkbl=1  erefs: 0.17977+309
===============================================================================
</basis_specs>

atom: Called for H                     (Z =   1)

read_vps: Pseudopotential generation method:
read_vps: ATM3.3    Troullier-Martins                       
Total valence charge:    1.00000

xc_check: Exchange-correlation functional:
xc_check: VDW LMKLL
xc_check: WARNING: Pseudopotential generated with Unknown atomic XC code functional
V l=0 = -2*Zval/r beyond r=  1.3644
V l=1 = -2*Zval/r beyond r=  1.3474
V l=2 = -2*Zval/r beyond r=  1.3474
All V_l potentials equal beyond r=  1.2343
This should be close to max(r_c) in ps generation
All pots = -2*Zval/r beyond r=  1.3644

VLOCAL1: 99.0% of the norm of Vloc inside     28.493 Ry
VLOCAL1: 99.9% of the norm of Vloc inside     64.935 Ry
atom: Maximum radius for 4*pi*r*r*local-pseudopot. charge    1.45251
atom: Maximum radius for r*vlocal+2*Zval:    1.21892
GHOST: No ghost state for L =  0
GHOST: No ghost state for L =  1
GHOST: No ghost state for L =  2

KBgen: Kleinman-Bylander projectors: 
   l= 0   rc=  1.625762   el= -0.519992   Ekb= -2.047279   kbcos= -0.354363
   l= 1   rc=  2.519390   el= -0.000771   Ekb= -0.506821   kbcos= -0.022580
   l= 2   rc=  2.927514   el=  0.000176   Ekb= -0.221733   kbcos= -0.002090

KBgen: Total number of  Kleinman-Bylander projectors:    9
atom: -------------------------------------------------------------------------

atom: SANKEY-TYPE ORBITALS:
atom: Selected multiple-zeta basis: split     

SPLIT: Orbitals with angular momentum L= 0

SPLIT: Basis orbitals for state 1s

   izeta = 1
                 lambda =    1.000000
                     rc =    7.962068
                 energy =   -0.519774
                kinetic =    0.910189
    potential(screened) =   -1.429963
       potential(ionic) =   -1.906963

   izeta = 2
                 rmatch =    1.819640
              splitnorm =    0.711859
                 energy =    1.124022
                kinetic =    4.644871
    potential(screened) =   -3.520849
       potential(ionic) =   -3.960301

   izeta = 3
                 rmatch =    4.155379
              splitnorm =    0.140914
                 energy =   -0.434175
                kinetic =    1.462160
    potential(screened) =   -1.896335
       potential(ionic) =   -2.393173

POLgen: Perturbative polarization orbital with L=  1

POLgen: Polarization orbital for state 1s

   izeta = 1
                     rc =    7.962068
                 energy =    0.477749
                kinetic =    1.090716
    potential(screened) =   -0.612967
       potential(ionic) =   -1.043837
atom: Total number of Sankey-type orbitals:  6

atm_pop: Valence configuration (for local Pseudopot. screening):
 1s( 1.00)                                                            
Vna: chval, zval:    1.00000   1.00000

Vna:  Cut-off radius for the neutral-atom potential:   7.962068

atom: _________________________________________________________________________

prinput: Basis input ----------------------------------------------------------

PAO.BasisType split     

%block ChemicalSpeciesLabel
    1    6 C                       # Species index, atomic number, species label
    2   16 S                       # Species index, atomic number, species label
    3   11 Na                      # Species index, atomic number, species label
    4    7 N                       # Species index, atomic number, species label
    5    8 O                       # Species index, atomic number, species label
    6    1 H                       # Species index, atomic number, species label
%endblock ChemicalSpeciesLabel

%block PAO.Basis                 # Define Basis set
C                     2                    # Species label, number of l-shells
 n=2   0   3                         # n, l, Nzeta 
   9.099      2.740      3.608   
   1.000      1.000      1.000   
 n=2   1   3 P   1                   # n, l, Nzeta, Polarization, NzetaPol
   9.099      2.542      3.608   
   1.000      1.000      1.000   
S                     2                    # Species label, number of l-shells
 n=3   0   3                         # n, l, Nzeta 
   8.605      2.528      5.091   
   1.000      1.000      1.000   
 n=3   1   3 P   1                   # n, l, Nzeta, Polarization, NzetaPol
   8.605      2.405      5.487   
   1.000      1.000      1.000   
Na                    1                    # Species label, number of l-shells
 n=3   0   3 P   1                   # n, l, Nzeta, Polarization, NzetaPol
  11.613      8.711      9.748   
   1.000      1.000      1.000   
N                     2                    # Species label, number of l-shells
 n=2   0   3                         # n, l, Nzeta 
   9.062      2.532      4.280   
   1.000      1.000      1.000   
 n=2   1   3 P   1                   # n, l, Nzeta, Polarization, NzetaPol
   9.062      2.408      3.777   
   1.000      1.000      1.000   
O                     2                    # Species label, number of l-shells
 n=2   0   3                         # n, l, Nzeta 
   8.547      2.510      5.056   
   1.000      1.000      1.000   
 n=2   1   3 P   1                   # n, l, Nzeta, Polarization, NzetaPol
   8.985      2.388      5.449   
   1.000      1.000      1.000   
H                     1                    # Species label, number of l-shells
 n=1   0   3 P   1                   # n, l, Nzeta, Polarization, NzetaPol
   7.962      1.820      4.155   
   1.000      1.000      1.000   
%endblock PAO.Basis

prinput: ----------------------------------------------------------------------

coor:   Atomic-coordinates input format  =     Cartesian coordinates
coor:                                          (in Angstroms)

siesta: WARNING: XV file not found

siesta: Atomic coordinates (Bohr) and species
siesta:     22.62299  28.09724  23.11351  5        1
siesta:     23.36930  31.67962  26.13180  5        2
siesta:     21.83773  27.49098  27.74693  5        3
siesta:     23.61530  28.77021  25.80031  2        4
siesta:     39.12878  26.83634  25.76875  5        5
siesta:     36.79205  27.42918  25.98234  1        6
siesta:     37.46084  31.52529  25.79771  6        7
siesta:     35.97069  30.10426  25.95867  1        8
siesta:     32.88427  32.75150  26.04081  6        9
siesta:     33.44137  30.75950  26.08782  1       10
siesta:     31.41506  28.85982  26.22887  1       11
siesta:     28.30456  31.62851  26.06861  6       12
siesta:     28.81345  29.62975  26.17521  1       13
siesta:     26.90508  27.76467  26.19893  1       14
siesta:     25.94257  23.72909  26.37608  6       15
siesta:     27.46655  25.12386  26.35179  1       16
siesta:     30.49469  22.35325  26.51015  6       17
siesta:     30.02645  24.36014  26.42679  1       18
siesta:     32.04335  26.18634  26.32391  1       19
siesta:     34.76384  25.43376  26.25108  1       20
siesta:     35.25379  22.91655  26.35357  4       21
siesta:     39.04809  23.55937  26.10843  6       22
siesta:     37.67483  22.14714  26.28430  4       23
siesta:     35.72927  13.52998  26.20855  6       24
siesta:     37.13810  15.03677  26.25163  1       25
siesta:     34.41159  18.14607  26.21900  6       26
siesta:     36.40097  17.60854  26.25396  1       27
siesta:     38.30980  19.53387  26.29424  1       28
siesta:     42.37408  20.36818  26.26116  6       29
siesta:     40.93811  18.88161  26.29128  1       30
siesta:     43.67812  15.78357  26.18975  6       31
siesta:     41.68102  16.30439  26.26699  1       32
siesta:     39.76206  14.42012  26.27287  1       33
siesta:     38.81601   9.47321  24.74297  5       34
siesta:     43.37388  10.67288  25.39228  5       35
siesta:     40.64919  11.07647  26.38664  2       36
siesta:     40.53809   9.99934  29.11688  5       37
siesta:     47.94867  17.44420  23.30050  5       38
siesta:     47.23857  18.12090  20.52943  2       39
siesta:     49.41683  19.77411  19.45266  5       40
siesta:     47.13128  15.63098  18.99213  5       41
siesta:     44.23501  19.81363  20.33540  1       42
siesta:     44.22432  22.45119  20.87105  1       43
siesta:     45.98736  23.42328  21.32199  6       44
siesta:     41.89918  23.77401  20.79855  1       45
siesta:     41.81548  25.78495  21.26656  6       46
siesta:     39.62040  22.44472  20.16918  1       47
siesta:     39.66262  19.78881  19.63307  1       48
siesta:     37.90745  18.81668  19.16073  6       49
siesta:     41.98978  18.46352  19.72254  1       50
siesta:     42.07986  16.44100  19.32209  6       51
siesta:     37.34859  23.87292  20.10887  4       52
siesta:     37.34315  25.84890  20.16591  6       53
siesta:     35.07731  22.72493  19.98770  4       54
siesta:     32.97736  24.18562  19.89326  1       55
siesta:     30.50234  22.83052  19.96145  1       56
siesta:     30.34744  20.13033  20.22888  1       57
siesta:     32.08899  19.02632  20.29999  6       58
siesta:     27.97858  18.90997  20.42351  1       59
siesta:     27.83926  16.86035  20.61212  6       60
siesta:     25.73147  20.40960  20.36210  1       61
siesta:     25.78438  23.06282  20.08144  1       62
siesta:     24.03896  24.16790  20.09099  6       63
siesta:     28.18793  24.30393  19.86690  1       64
siesta:     28.30726  27.07714  19.65334  1       65
siesta:     26.51138  28.10412  19.62307  6       66
siesta:     30.57989  28.37367  19.59855  1       67
siesta:     30.65748  30.43634  19.49475  6       68
siesta:     33.03399  27.04576  19.80507  1       69
siesta:     35.11420  28.26992  19.93038  5       70
siesta:     22.68755  18.82952  20.79454  2       71
siesta:     21.93756  18.67199  23.63180  5       72
siesta:     20.53699  20.24430  19.38865  5       73
siesta:     22.80556  16.08145  19.76301  5       74
siesta:     41.67430   6.94768  26.48831  3       75
siesta:     18.98067  16.81107  21.31087  3       76
siesta:     19.56438  30.10525  25.45360  3       77
siesta:     51.00171  16.11039  20.60574  3       78

siesta: System type = molecule  

initatomlists: Number of atoms, orbitals, and projectors:     78  1062  1080

siesta: ******************** Simulation parameters ****************************
siesta:
siesta: The following are some of the parameters of the simulation.
siesta: A complete list of the parameters used, including default values,
siesta: can be found in file out.fdf
siesta:
redata: Non-Collinear-spin run           =     F
redata: SpinPolarized (Up/Down) run      =     F
redata: Number of spin components        =     1
redata: Long output                      =     T
redata: Number of Atomic Species         =        6
redata: Charge density info will appear in .RHO file
redata: Write Mulliken Pop.              =     Atomic and Orbital charges
redata: Mesh Cutoff                      =   300.0000  Ry
redata: Net charge of the system         =     0.0000 |e|
redata: Max. number of SCF Iter          =      500
redata: Performing Pulay mixing using    =     5 iterations
redata: Mix DM in first SCF step ?       =     F
redata: Write Pulay info on disk?        =     F
redata: Discard 1st Pulay DM after  kick =     F
redata: New DM Mixing Weight             =     0.2500
redata: New DM Occupancy tolerance       = 0.000000000001
redata: No kicks to SCF
redata: DM Mixing Weight for Kicks       =     0.5000
redata: DM Tolerance for SCF             =     0.000100
redata: Require Energy convergence for SCF =     F
redata: DM Energy tolerance for SCF      =     0.000100 eV
redata: Require Harris convergence for SCF =     F
redata: DM Harris energy tolerance for SCF =     0.000100 eV
redata: Using Saved Data (generic)   =     T
redata: Use continuation files for DM    =     T
redata: Neglect nonoverlap interactions  =     F
redata: Method of Calculation            =     Diagonalization
redata: Divide and Conquer               =     T
redata: Electronic Temperature           =     0.0019  Ry
redata: Fix the spin of the system       =     F
redata: Dynamics option                  =     CG coord. optimization
redata: Variable cell                    =     F
redata: Use continuation files for CG    =     T
redata: Max atomic displ per move        =     0.2000  Bohr
redata: Maximum number of CG moves       =        0
redata: Force tolerance                  =     0.0004  Ry/Bohr
redata: ***********************************************************************
Total number of electrons:   280.000000
Total ionic charge:   280.000000

* ProcessorY, Blocksize:    9   8

 Kpoints in:            1 . Kpoints trimmed:            1

siesta: k-point coordinates (Bohr**-1) and weights:
siesta:    1    0.000000    0.000000    0.000000       1.000000

siesta: k-grid: Number of k-points =     1
siesta: k-grid: Cutoff (effective) =    12.000 Ang
siesta: k-grid: Supercell and displacements
siesta: k-grid:    1   0   0      0.000
siesta: k-grid:    0   1   0      0.000
siesta: k-grid:    0   0   1      0.000

siesta:                 ==============================
                            Begin CG move =      0
                        ==============================

outcoor: Atomic coordinates (Ang):                          
   11.97156763   14.86841152   12.23113622   5       1  O
   12.36649603   16.76412780   13.82834898   5       2  O
   11.55602410   14.54759345   14.68303822   5       3  O
   12.49667178   15.22453471   13.65293016   2       4  S
   20.70604814   14.20117379   13.63623237   5       5  O
   19.46950844   14.51489189   13.74925714   1       6  C
   19.82341448   16.68246103   13.65155436   6       7  H
   19.03485961   15.93048136   13.73672989   1       8  C
   17.40160079   17.33134271   13.78019973   6       9  H
   17.69640215   16.27722122   13.80507305   1      10  C
   16.62412944   15.27195496   13.87971726   1      11  C
   14.97811974   16.73707952   13.79491009   6      12  H
   15.24741521   15.67938431   13.85131772   1      13  C
   14.23755172   14.69242226   13.86387117   1      14  C
   13.72820893   12.55689009   13.95761471   6      15  H
   14.53466730   13.29497095   13.94476229   1      16  C
   16.13708723   11.82882680   14.02856003   6      17  H
   15.88930742   12.89082319   13.98444803   1      18  C
   16.95660127   13.85720946   13.93000877   1      19  C
   18.39622635   13.45896180   13.89146635   1      20  C
   18.65549326   12.12690930   13.94570486   4      21  N
   20.66334999   12.46707705   13.81597807   6      22  H
   19.93665543   11.71975841   13.90904630   4      23  N
   18.90710836    7.15975447   13.86896182   6      24  H
   19.65263094    7.95711312   13.89175929   1      25  C
   18.20981954    9.60248520   13.87449161   6      26  H
   19.26255841    9.31803351   13.89299351   1      27  C
   20.27266592   10.33687645   13.91430728   1      28  C
   22.42339012   10.77837278   13.89680224   6      29  H
   21.66350554    9.99171318   13.91274150   1      30  C
   23.11345399    8.35230452   13.85901370   6      31  H
   22.05663610    8.62790588   13.89988605   1      32  C
   21.04116898    7.63079633   13.90300091   1      33  C
   20.54053843    5.01300746   13.09341230   5      34  O
   22.95245847    5.64784289   13.43701093   5      35  O
   21.51061778    5.86141232   13.96320517   2      36  S
   21.45182434    5.29142094   15.40798581   5      37  O
   25.37333129    9.23106720   12.33009079   5      38  O
   24.99756499    9.58916292   10.86370299   2      39  S
   26.15024971   10.46400347   10.29390207   5      40  O
   24.94078989    8.27155555   10.05019913   5      41  O
   23.40815070   10.48491660   10.76102429   1      42  C
   23.40249343   11.88065205   11.04447702   1      43  C
   24.33545552   12.39506077   11.28310566   6      44  H
   22.17208118   12.58066010   11.00611360   1      45  C
   22.12778806   13.64480136   11.25377627   6      46  H
   20.96620225   11.87723149   10.67306870   1      47  C
   20.98854692   10.47178447   10.38936861   1      48  C
   20.05974806    9.95735479   10.13941628   6      49  H
   22.22002576    9.77047054   10.43671356   1      50  C
   22.26769528    8.70020091   10.22480503   6      51  H
   19.76401285   12.63300047   10.64115038   4      52  N
   19.76113556   13.67864173   10.67133647   6      53  H
   18.56210535   12.02550897   10.57703099   4      54  N
   17.45086006   12.79847147   10.52705752   1      55  C
   16.14113766   12.08138351   10.56313800   1      56  C
   16.05916769   10.65250981   10.70465609   1      57  C
   16.98075654   10.06829243   10.74228813   6      58  H
   14.80561974   10.00671910   10.80764920   1      59  C
   14.73189545    8.92210709   10.90746072   6      60  H
   13.61650461   10.80029231   10.77515236   1      61  C
   13.64450326   12.20431229   10.62663787   1      62  C
   12.72086599   12.78909662   10.63169204   6      63  H
   14.91640207   12.86108189   10.51310835   1      64  C
   14.97955269   14.32860047   10.40009419   1      65  C
   14.02921390   14.87205512   10.38407682   6      66  H
   16.18217294   15.01469606   10.37110272   1      67  C
   16.22323445   16.10621124   10.31617256   6      68  H
   17.48082886   14.31199294   10.48038724   1      69  C
   18.58162682   14.95979069   10.54670062   5      70  O
   12.00573070    9.96414671   11.00399061   2      71  S
   11.60885032    9.88078612   12.50540616   5      72  O
   10.86770424   10.71281738   10.26002671   5      73  O
   12.06817688    8.50993243   10.45813241   5      74  O
   22.05307866    3.67655148   14.01700383   3      75  Na
   10.04413237    8.89602899   11.27722260   3      76  Na
   10.35301889   15.93100599   13.46945880   3      77  Na
   26.98892967    8.52524777   10.90408418   3      78  Na

outcell: Unit cell vectors (Ang):
       35.000000    0.000000    0.000000
        0.000000   24.000000    0.000000
        0.000000    0.000000   24.000000

outcell: Cell vector modules (Ang)   :   35.000000   24.000000   24.000000
outcell: Cell angles (23,13,12) (deg):     90.0000     90.0000     90.0000
outcell: Cell volume (Ang**3)        :  20160.0000
New_DM. Step:     1
Initializing Density Matrix...
New grid distribution:   1
           1       1:  192    1:   15    1:    8
           2       1:  192    1:   15    9:   16
           3       1:  192    1:   15   17:   24
           4       1:  192    1:   15   25:   32
           5       1:  192    1:   15   33:   40
           6       1:  192    1:   15   41:   48
           7       1:  192    1:   15   49:   56
           8       1:  192    1:   15   57:   64
           9       1:  192    1:   15   65:   72
          10       1:  192    1:   15   73:   80
          11       1:  192    1:   15   81:   88
          12       1:  192    1:   15   89:   96
          13       1:  192    1:   15   97:  104
          14       1:  192    1:   15  105:  112
          15       1:  192    1:   15  113:  120
          16       1:  192    1:   15  121:  128
          17       1:  192   16:   30    1:    8
          18       1:  192   16:   30    9:   16
          19       1:  192   16:   30   17:   24
          20       1:  192   16:   30   25:   32
          21       1:  192   16:   30   33:   40
          22       1:  192   16:   30   41:   48
          23       1:  192   16:   30   49:   56
          24       1:  192   16:   30   57:   64
          25       1:  192   16:   30   65:   72
          26       1:  192   16:   30   73:   80
          27       1:  192   16:   30   81:   88
          28       1:  192   16:   30   89:   96
          29       1:  192   16:   30   97:  104
          30       1:  192   16:   30  105:  112
          31       1:  192   16:   30  113:  120
          32       1:  192   16:   30  121:  128
          33       1:  192   31:   44    1:    8
          34       1:  192   31:   44    9:   16
          35       1:  192   31:   44   17:   24
          36       1:  192   31:   44   25:   32
          37       1:  192   31:   44   33:   40
          38       1:  192   31:   44   41:   48
          39       1:  192   31:   44   49:   56
          40       1:  192   31:   44   57:   64
          41       1:  192   31:   44   65:   72
          42       1:  192   31:   44   73:   80
          43       1:  192   31:   44   81:   88
          44       1:  192   31:   44   89:   96
          45       1:  192   31:   44   97:  104
          46       1:  192   31:   44  105:  112
          47       1:  192   31:   44  113:  120
          48       1:  192   31:   44  121:  128
          49       1:  192   45:   58    1:    8
          50       1:  192   45:   58    9:   16
          51       1:  192   45:   58   17:   24
          52       1:  192   45:   58   25:   32
          53       1:  192   45:   58   33:   40
          54       1:  192   45:   58   41:   48
          55       1:  192   45:   58   49:   56
          56       1:  192   45:   58   57:   64
          57       1:  192   45:   58   65:   72
          58       1:  192   45:   58   73:   80
          59       1:  192   45:   58   81:   88
          60       1:  192   45:   58   89:   96
          61       1:  192   45:   58   97:  104
          62       1:  192   45:   58  105:  112
          63       1:  192   45:   58  113:  120
          64       1:  192   45:   58  121:  128
          65       1:  192   59:   72    1:    8
          66       1:  192   59:   72    9:   16
          67       1:  192   59:   72   17:   24
          68       1:  192   59:   72   25:   32
          69       1:  192   59:   72   33:   40
          70       1:  192   59:   72   41:   48
          71       1:  192   59:   72   49:   56
          72       1:  192   59:   72   57:   64
          73       1:  192   59:   72   65:   72
          74       1:  192   59:   72   73:   80
          75       1:  192   59:   72   81:   88
          76       1:  192   59:   72   89:   96
          77       1:  192   59:   72   97:  104
          78       1:  192   59:   72  105:  112
          79       1:  192   59:   72  113:  120
          80       1:  192   59:   72  121:  128
          81       1:  192   73:   86    1:    8
          82       1:  192   73:   86    9:   16
          83       1:  192   73:   86   17:   24
          84       1:  192   73:   86   25:   32
          85       1:  192   73:   86   33:   40
          86       1:  192   73:   86   41:   48
          87       1:  192   73:   86   49:   56
          88       1:  192   73:   86   57:   64
          89       1:  192   73:   86   65:   72
          90       1:  192   73:   86   73:   80
          91       1:  192   73:   86   81:   88
          92       1:  192   73:   86   89:   96
          93       1:  192   73:   86   97:  104
          94       1:  192   73:   86  105:  112
          95       1:  192   73:   86  113:  120
          96       1:  192   73:   86  121:  128
          97       1:  192   87:  100    1:    8
          98       1:  192   87:  100    9:   16
          99       1:  192   87:  100   17:   24
         100       1:  192   87:  100   25:   32
         101       1:  192   87:  100   33:   40
         102       1:  192   87:  100   41:   48
         103       1:  192   87:  100   49:   56
         104       1:  192   87:  100   57:   64
         105       1:  192   87:  100   65:   72
         106       1:  192   87:  100   73:   80
         107       1:  192   87:  100   81:   88
         108       1:  192   87:  100   89:   96
         109       1:  192   87:  100   97:  104
         110       1:  192   87:  100  105:  112
         111       1:  192   87:  100  113:  120
         112       1:  192   87:  100  121:  128
         113       1:  192  101:  114    1:    8
         114       1:  192  101:  114    9:   16
         115       1:  192  101:  114   17:   24
         116       1:  192  101:  114   25:   32
         117       1:  192  101:  114   33:   40
         118       1:  192  101:  114   41:   48
         119       1:  192  101:  114   49:   56
         120       1:  192  101:  114   57:   64
         121       1:  192  101:  114   65:   72
         122       1:  192  101:  114   73:   80
         123       1:  192  101:  114   81:   88
         124       1:  192  101:  114   89:   96
         125       1:  192  101:  114   97:  104
         126       1:  192  101:  114  105:  112
         127       1:  192  101:  114  113:  120
         128       1:  192  101:  114  121:  128
         129       1:  192  115:  128    1:    8
         130       1:  192  115:  128    9:   16
         131       1:  192  115:  128   17:   24
         132       1:  192  115:  128   25:   32
         133       1:  192  115:  128   33:   40
         134       1:  192  115:  128   41:   48
         135       1:  192  115:  128   49:   56
         136       1:  192  115:  128   57:   64
         137       1:  192  115:  128   65:   72
         138       1:  192  115:  128   73:   80
         139       1:  192  115:  128   81:   88
         140       1:  192  115:  128   89:   96
         141       1:  192  115:  128   97:  104
         142       1:  192  115:  128  105:  112
         143       1:  192  115:  128  113:  120
         144       1:  192  115:  128  121:  128

InitMesh: MESH =   384 x   256 x   256 =    25165824
InitMesh: (bp) =   192 x   128 x   128 =     3145728
InitMesh: Mesh cutoff (required, used) =   300.000   314.455 Ry
ExtMesh (bp) on 0 =   328 x   147 x   140 =     6750240
New grid distribution:   2
           1       1:   70    1:   57    1:   55
           2     124:  192   42:   58   74:   78
           3       1:   75   63:   71   66:   71
           4      90:  100   77:  128   58:   61
           5     132:  192    1:   49    1:   57
           6      93:  100   61:   68    1:   57
           7      90:  100   77:  128   62:   65
           8      72:   82    1:   57   56:   65
           9     129:  192    1:   46   67:   73
          10       1:   75    1:   61   72:  128
          11     106:  111   59:   69   74:  128
          12     101:  104   70:  128   58:   66
          13     127:  192    1:   41   74:  128
          14     119:  126    1:   41   74:  128
          15      92:  100   81:  128   66:   73
          16      85:   89   77:  128   58:   65
          17     101:  113    1:   52    1:   58
          18     113:  124   61:   68    1:   57
          19     113:  121    1:   47   59:   66
          20     105:  112   70:  128   63:   66
          21     128:  192   47:   58   67:   73
          22      87:   91   60:   71   73:  128
          23     122:  127   46:   60   58:   66
          24       1:   71    1:   57   56:   65
          25     101:  110    1:   48   67:   74
          26      76:   86    1:   61   72:  128
          27      96:  100    1:   59   73:  128
          28      69:   82   58:   68   61:   65
          29     125:  192   61:   68    1:   57
          30     112:  118    1:   42   75:  128
          31      90:  100   79:  128   74:   79
          32     119:  127   47:   58   67:   73
          33      71:   82    1:   57    1:   55
          34       1:   75   72:   80   66:   73
          35     119:  128    1:   46   67:   73
          36      72:   86   62:   71   72:   76
          37      92:  100    1:   60    1:   57
          38     128:  192   46:   60   58:   62
          39     108:  121   48:   60   63:   66
          40      93:  100    1:   57   58:   65
          41     122:  130    1:   45   58:   66
          42      87:   95    1:   59   73:  128
          43     119:  123   42:   58   74:  128
          44     101:  107   48:   60   59:   66
          45     122:  131    1:   49    1:   57
          46     112:  121   53:   60    1:   58
          47      93:  100   72:   78   74:  128
          48     108:  121   48:   60   59:   62
          49     132:  192   50:   60    1:   57
          50     122:  131   50:   60    1:   57
          51      85:   92   72:   78   74:  128
          52     110:  118   49:   58   67:   74
          53      83:   91    1:   60    1:   57
          54     101:  111   53:   60    1:   58
          55     101:  109   49:   58   67:   74
          56     128:  192   46:   60   63:   66
          57      87:   94    1:   61   66:   72
          58     108:  118   43:   58   75:   79
          59     124:  192   42:   58   79:  128
          60     108:  118   43:   58   80:  128
          61       1:   74    1:   62   66:   71
          62     101:  107   43:   58   75:  128
          63     111:  118    1:   48   67:   74
          64     113:  123   61:   67   58:   66
          65       1:   72   58:   68    1:   55
          66      73:   82   58:   68    1:   55
          67     101:  106   61:   71    1:   57
          68     112:  122   59:   68   67:   72
          69       1:   74   69:   76    1:   57
          70     107:  112   61:   71    1:   57
          71      69:   82   58:   68   56:   60
          72       1:   68   58:   68   56:   65
          73     123:  192   59:   68   67:   72
          74       1:   71   62:   71   72:  128
          75      72:   86   62:   71   77:  128
          76      76:   84   72:   80   66:   73
          77     121:  192   59:   66   73:  128
          78      92:  100   60:   71   78:  128
          79     112:  120   59:   66   73:  128
          80      83:   89   58:   68   58:   65
          81     121:  192   69:  128    1:   57
          82     106:  112   72:  128    1:   57
          83      93:  100   69:   77    1:   57
          84      76:   86   63:   71   66:   71
          85     113:  120   69:  128    1:   57
          86      85:   92   69:   77    1:   57
          87      85:   92   72:   80   66:   73
          88     118:  192   68:  128   58:   62
          89       1:   74   69:   75   58:   65
          90     101:  105   72:  128   67:   73
          91     116:  192   67:  128   78:  128
          92     104:  111   70:  128   79:  128
          93       1:   75   72:   79   74:  128
          94     112:  115   67:  128   73:  128
          95      76:   84   72:   79   74:  128
          96      93:  100   72:   80   66:   73
          97       1:   76   77:  128    1:   57
          98      93:  100   78:  128    1:   57
          99     101:  105   59:   69   74:  128
         100      85:   93   69:   76   58:   65
         101      85:   92   78:  128    1:   57
         102     113:  117   68:  128   58:   66
         103      87:   94   62:   71   66:   72
         104       1:   71   76:  128   58:   65
         105     118:  192   68:  128   63:   66
         106      71:   84   80:  128   74:   79
         107       1:   70   80:  128   74:  128
         108      75:   84   69:   75   58:   65
         109      71:   84   80:  128   80:  128
         110      85:   89   79:  128   74:  128
         111      85:   91   81:  128   66:   73
         112     106:  111   59:   71   67:   73
         113     131:  192    1:   45   58:   66
         114     101:  105   72:  128    1:   57
         115      95:  100    1:   61   66:   72
         116      92:  100   60:   71   73:   77
         117     101:  111    1:   42   75:  128
         118      83:   92    1:   57   58:   65
         119     107:  112   61:   69   58:   66
         120      72:   84   76:  128   58:   61
         121       1:   75   81:  128   66:   73
         122      76:   84   81:  128   66:   73
         123     101:  103   70:  128   74:  128
         124     101:  106   61:   69   58:   66
         125      90:  100   79:  128   80:  128
         126      75:   84   69:   76    1:   57
         127     112:  118   69:  128   67:   72
         128      90:  100   58:   68   58:   61
         129     114:  121    1:   52    1:   58
         130      83:   92   61:   68    1:   57
         131     106:  111   72:  128   67:   73
         132      90:  100   58:   68   62:   65
         133     116:  192   67:  128   73:   77
         134     101:  112    1:   47   59:   66
         135     101:  105   59:   71   67:   73
         136      72:   84   76:  128   62:   65
         137     119:  192   69:  128   67:   72
         138      75:   86    1:   62   66:   71
         139     105:  112   70:  128   58:   62
         140      94:  100   69:   76   58:   65
         141      77:   84   77:  128    1:   57
         142     124:  192   61:   67   58:   66
         143     104:  111   70:  128   74:   78
         144      95:  100   62:   71   66:   72
New grid distribution:   3
           1       1:   48    1:   44    1:   49
           2     101:  114   51:   71    1:   50
           3      83:  100   94:  128   67:   80
           4     111:  127   20:   47   84:   95
           5     154:  192    1:   37    1:   49
           6     101:  114    1:   24   67:   83
           7      47:   61    1:   37   50:   66
           8     151:  192    1:   29   50:   66
           9       1:   49    1:   46   67:   76
          10      69:   89    1:   44   67:   78
          11       1:   52    1:   47   77:  128
          12     128:  143    1:   29   67:   78
          13     138:  192    1:   21   79:  128
          14      94:  100    1:   46   79:  128
          15     128:  137    1:   21   79:  128
          16     112:  122   48:   85   67:   79
          17      75:  100    1:   46    1:   50
          18      62:   80   47:   61    1:   50
          19      50:   68    1:   46   67:   76
          20     101:  111   48:   85   67:   79
          21     101:  122    1:   35    1:   52
          22     115:  127   51:   71    1:   50
          23     123:  149   48:   67   67:   76
          24      83:  100    1:   36   51:   66
          25     144:  192    1:   29   67:   78
          26      90:  100    1:   44   67:   78
          27      69:   93    1:   46   79:  128
          28     116:  127    1:   19   84:  128
          29      53:   68    1:   47   77:  128
          30     112:  122   48:   72   80:  128
          31     153:  192   30:   47   67:   78
          32      37:   61   38:   61   50:   58
          33       1:   48   73:   86   81:  128
          34     156:  192   38:   50    1:   49
          35     138:  155   38:   50    1:   49
          36     128:  152   30:   47   67:   78
          37      62:   74    1:   46    1:   50
          38     101:  121   36:   50    1:   52
          39      44:   68   82:  128   54:   60
          40     101:  113   21:   50   53:   66
          41       1:   36   38:   61   50:   66
          42     101:  114   25:   47   67:   83
          43     128:  136   22:   47   79:  128
          44     137:  192   22:   47   86:  128
          45     137:  192   64:  128   51:   58
          46     111:  127   20:   47   96:  128
          47      48:   63   93:  128   67:   80
          48     101:  114   51:   74   51:   66
          49       1:   47   45:   61    1:   49
          50     151:  192   51:   61    1:   50
          51      48:   61   45:   61    1:   49
          52      85:  100   45:   72   67:   78
          53     138:  153    1:   37    1:   49
          54      81:  100   47:   61    1:   50
          55     128:  153   51:   63   51:   66
          56     154:  192   51:   63   51:   66
          57      48:   68   47:   72   67:   76
          58     137:  192   22:   47   79:   85
          59     142:  192   48:   61   77:  128
          60      69:   80   47:   72   79:  128
          61       1:   46    1:   37   50:   66
          62     123:  141   48:   61   77:  128
          63      80:  100   82:  128   59:   66
          64      69:   84   45:   72   67:   78
          65       1:   53   62:   79    1:   53
          66      85:  100   62:   80    1:   49
          67     101:  109   75:  128   51:   66
          68     138:  152   30:   50   50:   66
          69      69:   84   62:   80    1:   49
          70     153:  192   30:   50   50:   58
          71      69:   84   62:   81   50:   66
          72     137:  192   64:  128   59:   66
          73     150:  192   48:   67   67:   76
          74      47:   68   48:   72   77:   86
          75       1:   46   48:   72   77:  128
          76      47:   68   48:   72   87:  128
          77      49:   61    1:   44    1:   49
          78      81:  100   47:   72   89:  128
          79      44:   68   82:  128   61:   66
          80     101:  119    1:   20   53:   66
          81     145:  192   62:  128    1:   50
          82      54:   68   62:   79    1:   53
          83     110:  127   75:  128   60:   66
          84     115:  127    1:   24   67:   83
          85     128:  144   62:  128    1:   50
          86     101:  111   48:   72   80:  128
          87      85:  100   62:   81   50:   66
          88     128:  136   64:  128   51:   66
          89      44:   63   73:   92   67:   80
          90     128:  192   62:  128   77:   82
          91      64:   80   73:   86   81:  128
          92     128:  192   62:  128   83:  128
          93     108:  122   73:  128   88:  128
          94     101:  107   73:  128   80:  128
          95      49:   63   73:   86   81:  128
          96      83:  100   73:   93   67:   80
          97       1:   53   80:  128    1:   53
          98      81:  100   73:   86   81:  128
          99     153:  192   30:   50   59:   66
         100      49:   68   62:   81   54:   66
         101     112:  127   72:  128    1:   50
         102     101:  115    1:   19   84:  128
         103      80:  100   82:  128   50:   58
         104      75:  100   37:   61   59:   66
         105      64:   82   73:   93   67:   80
         106      64:   82   94:  128   67:   80
         107       1:   44   87:  128   81:  128
         108      64:   74   87:  128   81:  128
         109      75:  100   87:  128   89:  128
         110     123:  127   62:  128   77:  128
         111     108:  122   73:  128   80:   87
         112      75:  100   37:   61   51:   58
         113      69:   86   81:  128    1:   49
         114     128:  150   51:   61    1:   50
         115     123:  133   68:  128   67:   76
         116      81:  100   47:   72   79:   88
         117      54:   68   80:  128    1:   53
         118     101:  110   20:   47   84:  128
         119      62:   74   37:   61   51:   66
         120      69:   79   82:  128   50:   66
         121     134:  192   68:  128   67:   76
         122       1:   47   93:  128   67:   80
         123      75:  100   87:  128   81:   88
         124     115:  127   25:   47   67:   83
         125      45:   63   87:  128   91:  128
         126     122:  137   36:   50    1:   52
         127     138:  150    1:   29   50:   66
         128     114:  137   21:   50   60:   66
         129      87:  100   81:  128    1:   49
         130       1:   48   62:   81   54:   66
         131     101:  111   86:  128   67:   79
         132     120:  137    1:   20   53:   66
         133     101:  111   72:  128    1:   50
         134       1:   47   47:   72   67:   76
         135     110:  127   75:  128   51:   59
         136     114:  137   21:   50   53:   59
         137     123:  137    1:   35    1:   52
         138      62:   82    1:   36   51:   66
         139      45:   63   87:  128   81:   90
         140     115:  127   51:   74   51:   66
         141       1:   43   82:  128   54:   66
         142       1:   43   73:   92   67:   80
         143     112:  122   86:  128   67:   79
         144      37:   61   38:   61   59:   66
Setting up quadratic distribution...
ExtMesh (bp) on 0 =   206 x   189 x   187 =     7280658
PhiOnMesh: Number of (b)points on node 0 =               219450
PhiOnMesh: nlist on node 0 =               777459

stepf: Fermi-Dirac step function

siesta: Program's energy decomposition (eV):
siesta: Ebs     =     -4841.681864
siesta: Eions   =     18316.795456
siesta: Ena     =      2204.398157
siesta: Ekin    =      8067.495154
siesta: Enl     =     -2124.812257
siesta: DEna    =         0.000005
siesta: DUscf   =         0.000000
siesta: DUext   =         0.000000
siesta: Exc     =     -3535.692771
siesta: eta*DQ  =         0.000000
siesta: Emadel  =         0.000000
siesta: Emeta   =         0.000000
siesta: Emolmec =         0.000000
siesta: Ekinion =         0.000000
siesta: Eharris =    -13741.318403
siesta: Etot    =    -13705.407167
siesta: FreeEng =    -13705.407167

siesta: iscf   Eharris(eV)      E_KS(eV)   FreeEng(eV)   dDmax  Ef(eV)
siesta:    1   -13741.3184   -13705.4072   -13705.4072 10.4816 -8.2461
timer: Routine,Calls,Time,% =    IterSCF     1      12.752  33.08
siesta:    2   -13828.4617   -13620.9949   -13620.9949 44.0083 -1.3425
[...]
              0.038   0.559   0.521   0.624   0.300   0.291   0.357   0.346

              0.351
  39  6.149   0.918   0.065   0.405   0.363   0.428   0.501   0.034   0.041
              0.019   0.626   0.517   0.585   0.348   0.333   0.357   0.310

              0.300
  71  6.145   0.852   0.065   0.468   0.359   0.445   0.502   0.034   0.041
              0.019   0.623   0.502   0.592   0.344   0.340   0.350   0.308

              0.299

Species: Na                  
Atom  Qatom  Qorb
               3s      3s      3s      3Ppy    3Ppz    3Ppx    
  75  0.183   0.014   0.035   0.083   0.018   0.016   0.016
  76  0.186   0.012   0.027   0.096   0.016   0.016   0.018
  77  0.182   0.028   0.077   0.028   0.015   0.017   0.017
  78  0.179   0.014   0.041   0.077   0.016   0.016   0.015

Species: N                   
Atom  Qatom  Qorb
               2s      2s      2s      2py     2pz     2px     2py     2pz     
               2px     2py     2pz     2px     2Pdxy   2Pdyz   2Pdz2   2Pdxz   
               2Pdx2-y2
  21  5.166   1.335   0.114   0.061   1.143   0.854   1.019   0.118   0.015
              0.096   0.012   0.205   0.038   0.036   0.031   0.011   0.032

              0.043
  23  4.865   0.673   0.197   0.412   0.443   0.938   0.487   0.188   0.011
              0.187   0.405   0.423   0.333   0.059   0.026   0.009   0.025

              0.050
  52  4.868   0.646   0.197   0.434   0.462   0.979   0.458   0.190   0.008
              0.185   0.430   0.399   0.313   0.050   0.009   0.009   0.040

              0.058
  54  5.176   1.353   0.114   0.047   1.499   0.857   0.677   0.048   0.014
              0.166  -0.040   0.207   0.080   0.043   0.017   0.011   0.046

              0.036

Species: O                   
Atom  Qatom  Qorb
               2s      2s      2s      2py     2pz     2px     2py     2pz     
               2px     2py     2pz     2px     2Pdxy   2Pdyz   2Pdz2   2Pdxz   
               2Pdx2-y2
   1  6.362   1.760  -0.017   0.075   1.461   1.388   1.091  -0.028   0.128
             -0.020   0.231  -0.245   0.506   0.001   0.007   0.012   0.010

             -0.001
   2  6.395   1.961  -0.017  -0.132   1.446   2.088   1.390   0.167  -0.040
             -0.049  -0.429  -0.335   0.314   0.008   0.007   0.004  -0.001

              0.014
   3  6.396   1.685  -0.017   0.147   1.759   1.732   1.547   0.000   0.052
              0.038  -0.150  -0.301  -0.127   0.006   0.008   0.004   0.011

              0.003
   5  6.351   1.273   0.034   0.450   1.764   0.990   1.328  -0.030  -0.013
              0.111   0.019   0.444  -0.071   0.012   0.001   0.005   0.017

              0.015
  34  6.402   1.745  -0.020   0.092   1.532   1.885   1.647   0.018   0.027
              0.033  -0.057  -0.360  -0.170   0.009   0.008   0.003   0.008

              0.003
  35  6.365   1.846  -0.012  -0.028   1.289   1.906   1.489  -0.039  -0.009
              0.145   0.384  -0.250  -0.389   0.008   0.001   0.003   0.009

              0.011
  37  6.402   1.722  -0.014   0.110   1.721   1.346   2.010  -0.016   0.136
             -0.039  -0.124  -0.219  -0.260   0.001   0.012   0.014   0.005

             -0.001
  38  6.387   1.737  -0.013   0.094   1.924   1.327   1.448  -0.026   0.141
             -0.032  -0.228  -0.222   0.207  -0.001   0.006   0.015   0.009

              0.000
  40  6.401   1.765  -0.022   0.072   1.575   2.011   1.462   0.014  -0.012
              0.074  -0.047  -0.354  -0.169   0.011   0.003   0.002   0.007

              0.007
  41  6.378   1.933  -0.012  -0.111   1.531   1.825   1.474   0.117   0.024
             -0.045  -0.340  -0.286   0.236   0.004   0.013   0.003   0.003

              0.010
  70  6.343   1.239   0.038   0.480   1.854   1.099   1.190  -0.007  -0.012
              0.096  -0.161   0.328   0.147   0.015   0.006   0.004   0.012

              0.012
  72  6.397   1.710  -0.014   0.122   1.846   1.305   1.699  -0.040   0.151
             -0.031  -0.109  -0.235  -0.037  -0.001   0.006   0.016   0.009

             -0.001
  73  6.392   1.811  -0.015   0.017   1.690   1.897   1.477   0.002   0.012
              0.075  -0.108  -0.316  -0.182   0.009   0.005   0.002   0.010

              0.006
  74  6.395   1.830  -0.019   0.003   1.449   1.978   1.539   0.144  -0.013
             -0.050  -0.364  -0.315   0.181   0.006   0.010   0.002   0.001

              0.012

Species: H                   
Atom  Qatom  Qorb
               1s      1s      1s      1Ppy    1Ppz    1Ppx    
   7  1.106   0.618   0.065   0.335   0.030   0.032   0.026
   9  1.093   0.598   0.065   0.345   0.032   0.031   0.024
  12  1.100   0.610   0.065   0.327   0.036   0.030   0.031
  15  1.067   0.556   0.066   0.354   0.029   0.031   0.030
  17  1.093   0.587   0.066   0.343   0.036   0.031   0.031
  22  0.993   0.481   0.075   0.258   0.087   0.052   0.039
  24  1.083   0.582   0.066   0.345   0.031   0.032   0.028
  26  1.098   0.587   0.066   0.345   0.032   0.034   0.035
  29  1.096   0.598   0.065   0.340   0.029   0.034   0.030
  31  1.064   0.544   0.068   0.354   0.028   0.032   0.039
  44  1.081   0.580   0.066   0.345   0.026   0.031   0.033
  46  1.096   0.590   0.066   0.345   0.034   0.036   0.025
  49  1.093   0.584   0.067   0.345   0.028   0.033   0.037
  51  1.074   0.572   0.067   0.343   0.034   0.030   0.027
  53  0.987   0.477   0.075   0.256   0.091   0.053   0.036
  58  1.101   0.603   0.066   0.334   0.028   0.032   0.038
  60  1.088   0.589   0.066   0.340   0.035   0.031   0.027
  63  1.079   0.567   0.066   0.344   0.032   0.033   0.036
  66  1.077   0.559   0.066   0.356   0.025   0.033   0.037
  68  1.111   0.635   0.065   0.322   0.034   0.032   0.023

mulliken: Qtot =      280.000

siesta: Eigenvalues (eV):
  ik is    eps
   1  1 -27.61 -27.52 -27.44 -27.43 -26.45 -26.33 -25.58 -25.51 -24.03 -23.97
        -23.94 -23.86 -23.85 -23.84 -23.78 -23.76 -22.38 -22.30 -21.90 -21.82
        -21.14 -21.10 -20.53 -20.41 -19.56 -19.48 -19.20 -19.13 -18.86 -18.82
        -18.81 -18.68 -17.69 -17.61 -16.53 -16.49 -16.46 -16.38 -16.27 -16.22
        -15.91 -15.83 -15.26 -15.21 -14.90 -14.88 -14.80 -14.69 -14.11 -14.09
        -13.82 -13.71 -13.16 -13.05 -12.73 -12.69 -12.64 -12.51 -12.45 -12.32
        -12.00 -11.98 -11.90 -11.88 -11.78 -11.68 -11.65 -11.46 -11.39 -11.34
        -11.33 -11.31 -11.26 -11.25 -11.19 -11.18 -11.15 -11.11 -11.03 -11.00
        -10.93 -10.90 -10.86 -10.82 -10.63 -10.59 -10.53 -10.39 -10.24 -10.12
         -9.83  -9.77  -9.66  -9.63  -9.56  -9.51  -9.49  -9.32  -9.27  -9.21
         -8.44  -8.31  -8.30  -8.22  -8.19  -8.18  -8.11  -8.08  -8.06  -8.01
         -8.00  -7.99  -7.98  -7.92  -7.90  -7.88  -7.81  -7.80  -7.51  -7.35
         -7.26  -7.19  -7.16  -7.10  -7.08  -7.06  -7.05  -6.98  -6.82  -6.75
         -6.55  -6.40  -6.32  -6.25  -6.18  -6.08  -6.00  -5.97  -5.87  -5.80
         -4.19  -4.06  -2.82  -2.70  -2.31  -2.25  -2.21  -2.17  -2.05  -1.97
         -1.83  -1.74  -1.67  -1.62  -1.08  -0.94  -0.57  -0.49  -0.34  -0.28
         -0.11  -0.08  -0.07   0.02   0.03   0.14   0.14   0.17   0.20   0.29
          0.37   0.43   0.49   0.58   0.62   0.72   0.75   0.78   0.84   0.91
          0.93   0.96   1.06   1.07   1.10   1.11   1.32   1.34   1.37   1.51
          1.53   1.65   1.69   1.76   1.85   1.92   2.01   2.10   2.11   2.17
          2.21   2.25   2.28   2.41   2.41   2.43   2.52   2.55   2.66   2.71
          2.76   2.79   2.86   2.91   2.95   2.97   3.04   3.05   3.24   3.35
          3.36   3.42   3.50   3.55   3.58   3.60   3.68   3.73   3.80   3.88
          3.90   3.98   3.99   4.11   4.14   4.16   4.21   4.27   4.42   4.46
          4.52   4.64   4.67   4.80   4.82   4.92   4.94   5.04   5.11   5.13
          5.16   5.24   5.30   5.37   5.44   5.53   5.55   5.58   5.64   5.72
          5.77   5.81   5.83   5.88   6.01   6.05   6.11   6.18   6.21   6.25
          6.32   6.34   6.41   6.43   6.45   6.57   6.58   6.65   6.68   6.69
          6.77   6.82   6.83   6.96   6.97   7.04   7.10   7.13   7.19   7.24
          7.31   7.34   7.37   7.42   7.50   7.53   7.54   7.65   7.70   7.77
          7.82   7.91   7.97   8.03   8.08   8.14   8.19   8.23   8.25   8.27
          8.49   8.52   8.59   8.65   8.71   8.72   8.78   8.81   8.88   8.94
          8.96   9.00   9.09   9.14   9.20   9.25   9.33   9.41   9.48   9.54
          9.59   9.61   9.70   9.74   9.85   9.92  10.01  10.06  10.14  10.18
         10.21  10.30  10.34  10.37  10.51  10.56  10.65  10.69  10.78  10.86
         10.97  10.98  11.20  11.25  11.30  11.43  11.48  11.68  11.76  11.86
         11.90  12.09  12.13  12.18  12.32  12.40  12.57  12.60  12.71  12.78
         12.84  12.97  13.07  13.19  13.27  13.32  13.40  13.48  13.54  13.57
         13.62  13.67  13.77  13.86  13.91  14.02  14.05  14.12  14.19  14.23
         14.31  14.45  14.53  14.65  14.70  14.71  14.84  14.93  14.98  15.03
         15.28  15.37  15.40  15.46  15.51  15.66  15.70  15.73  15.87  16.06
         16.08  16.13  16.20  16.24  16.37  16.48  16.59  16.64  16.71  16.80
         16.92  17.01  17.09  17.21  17.27  17.36  17.46  17.50  17.69  17.73
         17.75  17.90  17.96  18.04  18.16  18.22  18.34  18.38  18.58  18.60
         18.68  18.72  18.80  18.89  19.04  19.11  19.21  19.31  19.47  19.55
         19.65  19.69  19.79  19.92  20.04  20.19  20.25  20.30  20.50  20.56
         20.66  20.75  20.84  20.92  21.13  21.19  21.34  21.48  21.50  21.55
         21.66  21.73  21.89  21.96  22.14  22.17  22.24  22.38  22.44  22.59
         22.78  22.93  23.02  23.11  23.25  23.42  23.57  23.71  23.82  23.90
         24.01  24.28  24.42  24.52  24.63  24.77  24.89  24.92  25.01  25.12
         25.17  25.24  25.33  25.47  25.55  25.61  25.70  25.89  25.97  26.03
         26.15  26.21  26.23  26.32  26.39  26.47  26.56  26.59  26.71  26.88
         26.96  26.97  27.22  27.50  27.54  27.58  27.94  28.01  28.18  28.23
         28.33  28.38  28.53  28.64  28.69  28.74  28.79  28.85  28.88  28.93
         28.98  29.05  29.17  29.27  29.32  29.50  29.57  29.61  29.75  29.77
         29.84  29.94  30.02  30.14  30.15  30.20  30.21  30.28  30.32  30.41
         30.46  30.47  30.61  30.65  30.71  30.76  30.88  30.92  31.01  31.05
         31.19  31.28  31.33  31.45  31.50  31.61  31.63  31.81  31.88  31.96
         32.03  32.16  32.32  32.38  32.46  32.61  32.73  32.85  32.89  32.94
         33.06  33.11  33.21  33.37  33.41  33.48  33.67  33.80  33.85  33.90
         34.06  34.09  34.25  34.35  34.46  34.55  34.63  34.78  34.80  34.94
         35.11  35.27  35.31  35.33  35.37  35.63  35.68  35.70  35.85  35.96
         36.02  36.15  36.24  36.35  36.47  36.47  36.56  36.71  36.81  36.95
         36.96  37.07  37.11  37.20  37.25  37.32  37.38  37.46  37.61  37.72
         37.73  37.80  37.91  38.02  38.21  38.27  38.37  38.43  38.44  38.54
         38.76  38.85  38.96  39.03  39.20  39.35  39.42  39.66  39.69  39.76
         40.09  40.18  40.26  40.35  40.46  40.56  40.60  40.69  40.75  40.84
         40.97  41.02  41.18  41.27  41.40  41.41  41.54  41.57  41.70  41.79
         41.87  41.92  42.14  42.27  42.48  42.55  42.64  42.72  42.81  42.88
         42.91  43.07  43.20  43.32  43.55  43.58  43.75  43.83  43.87  43.98
         44.03  44.18  44.19  44.36  44.47  44.60  44.75  44.84  44.90  45.15
         45.21  45.31  45.43  45.54  45.65  45.77  45.89  46.08  46.18  46.43
         46.47  46.51  46.61  46.68  46.81  46.89  46.97  47.06  47.19  47.27
         47.33  47.49  47.53  47.58  47.67  47.70  47.85  47.93  47.97  48.03
         48.07  48.11  48.15  48.23  48.26  48.34  48.41  48.53  48.62  48.69
         48.83  48.84  48.98  49.03  49.10  49.12  49.24  49.47  49.54  49.58
         49.75  49.80  49.95  50.14  50.24  50.29  50.32  50.46  50.61  50.79
         50.84  50.99  51.10  51.13  51.43  51.54  51.66  51.80  51.97  52.06
         52.10  52.19  52.27  52.52  52.58  52.63  52.77  52.83  53.04  53.07
         53.27  53.50  53.67  53.76  53.85  54.11  54.26  54.28  54.53  54.60
         54.67  54.95  55.00  55.26  55.38  55.48  55.56  55.72  55.96  56.16
         56.41  56.57  56.73  56.96  57.13  57.40  57.70  57.83  57.97  58.23
         58.33  58.50  58.58  58.72  58.79  58.83  58.90  59.19  59.24  59.32
         59.45  59.59  59.77  59.87  59.96  60.12  60.27  60.44  60.48  60.54
         60.66  60.70  61.02  61.13  61.23  61.43  61.55  61.78  61.84  62.05
         62.10  62.26  62.44  62.50  62.64  62.73  63.01  63.13  63.24  63.29
         63.51  63.64  63.81  63.86  64.11  64.22  64.35  64.53  64.69  64.80
         64.95  65.01  65.29  65.38  65.47  65.62  65.81  65.91  66.03  66.10
         66.39  66.62  66.77  66.88  67.16  67.21  67.39  67.52  67.79  67.90
         68.07  68.14  68.34  68.47  68.60  68.61  68.67  68.87  69.02  69.16
         69.19  69.30  69.36  69.57  69.72  69.85  69.98  70.11  70.22  70.30
         70.59  70.71  70.85  70.97  71.10  71.25  71.52  71.67  71.94  72.06
         72.15  72.35  72.43  72.53  72.72  72.92  73.20  73.30  73.50  73.70
         73.98  74.12  74.22  74.38  74.48  74.79  74.82  75.01  75.06  75.26
         75.49  75.86  76.12  76.38  76.83  76.90  77.20  77.45  77.76  77.97
         78.37  78.69  79.08  79.21  80.04  80.57  81.41  81.79  82.09  82.95
         83.80  84.27  84.50  85.43  85.90  86.95  87.35  87.60  88.35  88.60
         88.77  89.41  89.76  90.03  90.16  90.22  91.01  91.41  91.54  91.77
         92.25  92.50  92.81  93.44  94.10  94.81  95.10  95.85  96.08  96.24
         97.09  97.45  97.66  97.74  98.02  98.16  98.53  98.65  98.74  99.18
         99.49  99.65  99.75  99.90 100.50 100.83 101.47 102.13 102.62 103.07
        103.53 103.93 104.38 104.90 105.09 105.64 106.36 106.53 106.93 107.31
        107.67 108.03 108.33 108.60 109.85 110.13 110.63 111.00 111.24 111.73
        112.76 113.04 114.42 115.20 115.78 116.17 116.68 117.29 117.77 118.13
        118.26 118.87 119.07 119.31 120.02 120.20 120.59 121.29 121.76 122.27
        125.32 125.76 128.43 129.42 130.70 131.11 132.15 133.19 134.67 136.49
        138.40 139.42
siesta: Fermi energy =      -4.874638 eV

siesta: Program's energy decomposition (eV):
siesta: Ebs     =     -3727.009537
siesta: Eions   =     18316.795456
siesta: Ena     =      2204.398157
siesta: Ekin    =      9267.105990
siesta: Enl     =     -2883.309018
siesta: DEna    =      -295.739286
siesta: DUscf   =        45.316115
siesta: DUext   =         0.000000
siesta: Exc     =     -3710.043961
siesta: eta*DQ  =         0.000000
siesta: Emadel  =         0.000000
siesta: Emeta   =         0.000000
siesta: Emolmec =         0.000000
siesta: Ekinion =         0.000000
siesta: Eharris =    -13689.067479
siesta: Etot    =    -13689.067458
siesta: FreeEng =    -13689.067458

siesta: Final energy (eV):
siesta:  Band Struct. =   -3727.009537
siesta:       Kinetic =    9267.105990
siesta:       Hartree =   60981.611661
siesta:    Ext. field =       0.000000
siesta:   Exch.-corr. =   -3710.043961
siesta:  Ion-electron = -130204.223182
siesta:       Ion-ion =   49976.482033
siesta:       Ekinion =       0.000000
siesta:         Total =  -13689.067458

siesta: Atomic forces (eV/Ang):
siesta:      1    0.086499    0.087003    0.321671
siesta:      2    0.005654   -0.337334   -0.052025
siesta:      3    0.172035    0.140477   -0.214409
siesta:      4   -0.015104    0.035744    0.004229
siesta:      5   -0.630002    0.187976    0.083874
siesta:      6    0.099776    0.107730   -0.009822
siesta:      7   -0.260059   -0.242202    0.017603
siesta:      8   -0.390389   -0.134068    0.042868
siesta:      9    0.097192   -0.323721    0.002241
siesta:     10    0.310670   -0.304729   -0.013353
siesta:     11   -0.099368    0.047414   -0.014124
siesta:     12    0.093655   -0.345367    0.012269
siesta:     13    0.021863   -0.435074    0.008474
siesta:     14    0.471839   -0.084671    0.007917
siesta:     15    0.264752    0.237071   -0.011306
siesta:     16    0.323994    0.244418    0.005033
siesta:     17   -0.094272    0.332366   -0.014228
siesta:     18   -0.139435    0.336682   -0.022003
siesta:     19   -0.108697   -0.015041   -0.003065
siesta:     20   -0.048120   -0.085475   -0.001399
siesta:     21    0.457347    0.456808   -0.019175
siesta:     22   -0.265399   -0.279931    0.050747
siesta:     23   -0.213171   -0.005910   -0.018681
siesta:     24    0.233211    0.271592    0.013859
siesta:     25    0.260693    0.278131   -0.002067
siesta:     26    0.331483   -0.106116    0.001314
siesta:     27    0.376977   -0.119491    0.005954
siesta:     28    0.075668   -0.270483   -0.000915
siesta:     29   -0.236564   -0.246785    0.010295
siesta:     30   -0.233652   -0.301442    0.000510
siesta:     31   -0.356485    0.094878    0.024550
siesta:     32   -0.403335    0.103996    0.014490
siesta:     33   -0.117308    0.459104    0.008586
siesta:     34    0.203243    0.146990    0.194278
siesta:     35   -0.329435    0.015207    0.141546
siesta:     36    0.031195    0.042445   -0.084264
siesta:     37    0.009084    0.102818   -0.277074
siesta:     38   -0.059369    0.064998   -0.318082
siesta:     39   -0.020082   -0.002331   -0.042022
siesta:     40   -0.216500   -0.198444    0.128600
siesta:     41    0.034208    0.279423    0.202004
siesta:     42   -0.405249    0.226997   -0.020024
siesta:     43   -0.340604   -0.191448   -0.086556
siesta:     44   -0.310685   -0.156243   -0.066876
siesta:     45    0.050654   -0.375171   -0.079870
siesta:     46    0.025275   -0.339029   -0.093564
siesta:     47    0.254665   -0.136143   -0.004357
siesta:     48    0.341476    0.165081    0.071755
siesta:     49    0.305172    0.152273    0.079683
siesta:     50   -0.013986    0.394755    0.072038
siesta:     51   -0.023228    0.344314    0.069403
siesta:     52   -0.147138   -0.151475   -0.010263
siesta:     53    0.014013   -0.380175   -0.017083
siesta:     54   -0.004052    0.646689   -0.000436
siesta:     55    0.019165   -0.088563    0.001161
siesta:     56   -0.060242   -0.081629    0.028232
siesta:     57   -0.331993    0.148932   -0.008043
siesta:     58   -0.306195    0.177006   -0.008254
siesta:     59    0.041148    0.389680   -0.032720
siesta:     60    0.034066    0.350358   -0.028580
siesta:     61    0.400847    0.258936   -0.032909
siesta:     62    0.314816   -0.289158    0.024144
siesta:     63    0.308214   -0.201915   -0.006799
siesta:     64   -0.098358   -0.036551    0.013611
siesta:     65    0.418280   -0.008921    0.016229
siesta:     66    0.313208   -0.166897   -0.009008
siesta:     67   -0.180885   -0.353718    0.040848
siesta:     68   -0.022076   -0.346315    0.019109
siesta:     69    0.000053    0.133827   -0.014929
siesta:     70   -0.582337   -0.309956   -0.050135
siesta:     71    0.025702    0.012548   -0.080653
siesta:     72    0.068729    0.006331   -0.305611
siesta:     73    0.221558   -0.171357    0.186218
siesta:     74   -0.036554    0.302379    0.141674
siesta:     75    0.033172   -0.113702   -0.002653
siesta:     76   -0.103039   -0.062322    0.013921
siesta:     77   -0.077157    0.028436   -0.015533
siesta:     78    0.095888   -0.049377    0.003015
siesta: ----------------------------------------
siesta:    Tot   -0.033387   -0.036866   -0.008917

siesta: Stress tensor (static) (eV/Ang**3):
siesta:     0.001254    0.000011    0.000028
siesta:     0.000011    0.001218    0.000005
siesta:     0.000028    0.000005    0.000139

siesta: Cell volume =      20160.000000 Ang**3

siesta: Pressure (static):
siesta:                Solid            Molecule  Units
siesta:          -0.00000948         -0.00000006  Ry/Bohr**3
siesta:          -0.00087030         -0.00000516  eV/Ang**3
siesta:          -1.39438306         -0.00826861  kBar
(Free)E+ p_basis*V_orbitals  =      -13557.960395
(Free)Eharris+ p_basis*V_orbitals  =      -13557.960418

siesta: Electric dipole (a.u.)  =   -1.331806   -1.891210    0.175807
siesta: Electric dipole (Debye) =   -3.385115   -4.806980    0.446858
>> End of run:   3-MAR-2014  18:28:57
