ITEM: TIMESTEP
0
ITEM: NUMBER OF ATOMS
6000
ITEM: BOX BOUNDS pp pp pp
-4.6213562810728881e-01 1.8436135628107582e+01
-4.5483909733749783e-01 1.8428839097337082e+01
-3.4744240171757212e+00 2.1077042401717409e+02
ITEM: ATOMS id type x y z c_peratom fx fy fz 
242 3 3.23016 3.20854 2.09903 -28.0712 -0.105394 1.84125 -2.05935 
282 3 3.77385 6.88301 2.22333 -27.2328 -3.26285 1.47433 -1.97135 
442 3 7.24225 3.02292 1.99551 -28.2269 0.747304 3.1402 -1.59282 
482 3 6.90284 6.817 2.07338 -27.5552 2.18161 -0.0177503 1.20229 
1001 3 1.60002 2.01688 -0.441057 -28.624 -0.610982 -0.18045 0.00625997 
1041 3 1.4325 5.35054 -0.492488 -29.7964 0.265294 1.62927 -0.251378 
1042 3 1.64642 5.07712 4.49504 -27.5652 -0.981612 -1.22885 1.06036 
1201 3 5.11185 1.26343 -0.467824 -28.5513 -0.317814 -1.03676 0.848428 
1202 2 4.65881 1.558 4.72676 -24.1889 4.2353 -0.235489 1.97604 
1241 3 5.14008 5.70696 -0.886056 -27.5994 0.516356 -0.0973535 2.2602 
1242 3 5.20265 5.27982 5.04782 -28.5317 0.334555 -0.157929 -0.967046 
5281 1 5.89995 7.69816 0.700617 -8.22364 -1.01601 -1.87791 0.657812 
4401 1 2.87174 1.90917 3.62219 -8.78135 -0.243279 -2.39127 -1.31608 
5399 1 3.84061 5.22253 -2.21435 -8.03783 0.490173 -2.53389 -0.239605 
5042 1 3.0167 6.30199 0.358846 -6.94181 1.08895 2.59585 0.328722 
2280 1 4.71854 5.44257 2.06637 -7.61409 3.36627 -2.08568 -0.979633 
5001 1 2.69511 6.81137 3.98938 -8.32897 -0.547981 -3.76667 0.827515 
2282 1 2.80216 3.96585 0.239111 -7.49562 0.602045 -3.18464 -1.48039 
2242 1 5.78695 7.11258 3.91091 -8.03724 -1.87756 -3.50621 -0.842127 
5240 1 2.9063 1.77872 -2.17108 -8.33979 1.69983 0.365924 0.47267 
5561 1 3.58899 4.30508 3.92984 -8.08914 -0.450786 0.245398 0.831965 
5241 1 8.94268 2.54207 1.09195 -6.5638 -0.149764 1.75326 -3.2527 
2761 1 5.70372 2.83659 -1.7067 -7.70746 -6.23392 -0.30503 2.56341 
4841 1 1.18576 4.8103 2.58399 -7.62854 2.80107 0.837197 -0.491798 
2802 1 7.0035 4.76902 3.78041 -7.49271 0.296791 0.157339 -2.78748 
4282 1 1.49559 8.33992 2.39065 -7.77235 -0.845497 -0.500838 -4.40468 
5682 1 5.30694 2.72508 0.9309 -7.46412 0.660178 0.744119 2.44852 
1441 2 8.97455 5.39966 -0.89692 -24.7477 -0.978074 -1.46812 -0.316846 
4042 1 1.27924 3.72422 -2.17181 -8.4887 2.10105 -0.0372938 2.68104 
3522 1 5.31523 -0.42269 0.978629 -7.26285 1.18174 0.107001 -0.537372 
2562 1 7.19192 5.07943 0.707249 -7.97019 -0.158918 0.912299 0.285938 
5440 1 7.02183 5.96354 -1.91308 -7.41445 -1.21802 1.39032 3.29178 
5400 1 4.86797 7.57778 -1.79765 -7.96833 -0.913117 -1.00647 -1.20695 
4082 1 0.159397 6.78188 0.379949 -7.54202 -0.912067 0.598645 0.583463 
5720 1 1.64548 6.90222 -1.9855 -6.67392 -0.966808 0.0984417 -0.778121 
4360 1 3.24498 1.3143 0.783341 -7.67712 -0.312012 0.379289 0.796263 
402 3 7.46124 -0.347619 1.70594 -27.0072 -1.96896 1.51592 2.50963 
41 2 -0.317253 3.81869 -3.45695 -23.2149 -1.37491 -0.305019 -2.7802 
2362 1 6.58855 1.96123 3.39063 -8.28084 -1.13406 -0.441824 0.416651 
2361 1 6.24864 0.755419 -3.35211 -7.16163 -1.55191 4.84013 -0.520541 
2 3 -0.339788 -0.0941199 1.66767 -27.56 -4.61845 0.0338341 1.68507 
3280 1 1.34581 -0.399676 1.11564 -8.10701 1.91951 -0.0618835 -2.36846 
4801 1 1.00149 2.41287 1.52359 -7.42954 0.618368 -4.02707 2.35162 
4242 1 4.09313 8.74276 2.74139 -8.3221 -1.02167 0.457269 -0.35987 
1282 3 5.27716 8.95509 4.30024 -28.6835 2.88074 3.96155 2.2525 
1082 3 2.0067 8.7455 4.00704 -26.4673 -1.57781 1.60984 3.19413 
201 2 3.02918 -0.339202 -3.32017 -24.3131 1.45321 1.26835 -0.517516 
4203 1 0.642637 0.109087 3.43892 -7.37843 2.96308 -0.288295 -0.0677594 
2043 1 3.4011 8.93705 0.330649 -8.1335 -2.51401 -2.07117 -0.722971 
5441 1 3.73732 -0.429126 -1.25107 -7.66252 2.11887 -0.137081 0.964203 
3600 1 1.11536 -0.138024 -2.16212 -7.74071 0.318038 -0.444645 -1.31109 
202 3 2.856 -0.333193 2.55857 -27.3236 1.19336 0.51062 -2.29692 
241 3 3.20719 3.47372 -2.998 -26.6787 0.431028 1.19483 -2.03482 
4161 1 7.39392 1.07122 0.105972 -8.10453 -1.46373 -2.671 -0.216848 
5480 1 8.10856 3.49814 -1.83465 -7.06446 4.09411 -1.23161 2.91294 
281 3 3.5823 7.7936 -3.39691 -28.7266 -0.545831 0.688613 1.96854 
4481 1 8.95358 7.2433 3.5076 -7.89887 -2.37204 -2.25261 -0.842128 
2082 1 8.83976 8.01792 0.631402 -7.44888 -0.335657 -2.56732 -0.374077 
1402 3 8.60062 1.44434 4.7183 -29.0043 -1.3154 0.412469 -1.91245 
3961 1 8.63541 -0.0109226 -2.39756 -7.80895 -0.351182 0.6826 1.35621 
4041 1 -0.30714 1.53846 -0.86328 -7.27482 -0.504119 0.0011226 2.04624 
441 2 6.65546 3.39826 -3.34374 -23.8308 3.57054 0.411636 -2.78921 
3282 1 3.64754 8.41217 5.2352 -8.44469 -0.984285 1.87145 3.60072 
3122 1 -0.0142722 6.79827 4.11703 -8.35047 1.03386 -0.547727 3.40926 
1482 3 8.71094 8.75354 4.70932 -28.6995 0.493401 1.75564 0.22018 
5081 1 0.0486296 4.05941 0.238147 -6.80494 -2.57484 1.5903 -1.75009 
42 3 -0.328877 3.48167 2.47245 -28.931 -1.17652 -0.691816 -0.480741 
5681 1 -0.454098 4.34038 4.36777 -7.31892 -1.91776 2.3686 2.02035 
1281 3 5.19703 9.11046 -0.719157 -29.4075 1.14767 2.71307 -0.530357 
3320 1 2.41829 9.30889 -2.54843 -6.88879 -0.488513 -2.28068 0.0602897 
1081 3 1.45966 9.0667 -0.329974 -28.5675 -1.49265 -0.55816 -2.64807 
3802 1 0.582372 16.1814 -2.26441 -7.27975 0.209805 -0.466709 1.02543 
4963 1 0.0966707 16.4143 2.9627 -7.90684 -0.203496 -0.851972 -0.912609 
321 2 3.24536 11.0993 -3.38537 -26.2449 1.16342 2.74703 1.95925 
2842 1 1.29538 11.1182 0.50391 -7.72011 -0.308405 -3.7509 3.21651 
5800 1 6.58784 17.1223 -1.93031 -7.12032 -1.7215 2.38042 3.42657 
2841 1 6.96107 9.0651 3.20449 -7.62747 1.76778 1.51194 -2.10693 
561 2 7.21397 14.5967 -2.93711 -25.2399 -0.0037591 3.32199 2.59874 
1521 3 8.68514 13.0791 -0.344299 -28.8052 1.30488 0.252898 -0.018195 
2481 1 5.41299 9.96797 -3.23048 -6.02792 -0.518794 1.20576 -0.295586 
4842 1 0.636984 14.4021 0.578958 -6.92736 -1.1207 7.18783 -3.60009 
3841 1 7.09803 9.17317 -1.43776 -7.14144 2.34257 -0.509863 -0.458049 
2561 1 5.30136 15.9064 2.56293 -6.45227 1.20159 -0.171793 0.409881 
2401 1 6.76217 12.8102 1.01217 -7.63578 -0.230106 1.52232 -1.38001 
2201 1 2.75363 16.3961 0.392043 -8.16397 2.36759 -2.38263 0.941429 
3482 1 4.1822 13.8551 3.42691 -7.88623 0.303099 -1.07143 -1.3632 
3400 1 3.4134 12.6375 0.916506 -8.1577 0.663246 1.19325 0.756696 
3001 1 4.95227 14.9317 0.315744 -8.23113 -1.18138 0.283721 1.98752 
322 3 3.37091 10.4005 1.51814 -28.3343 3.05203 3.85875 -0.0685067 
362 3 3.39279 14.6607 1.87865 -28.0028 -0.491386 2.99076 -1.17329 
522 3 7.07596 11.0386 1.83513 -28.3427 -0.365134 -1.17075 2.81004 
562 3 7.19328 15.0622 1.8614 -29.1435 -1.49052 -1.36301 0.740634 
1121 3 1.21228 12.9375 -0.163963 -29.1973 1.47363 -3.50235 -3.95728 
1122 2 2.44338 12.7051 3.96655 -23.7123 0.294764 0.129017 3.57017 
1161 3 1.55058 17.0611 -0.729585 -28.1935 -2.85266 1.96818 -1.41666 
1162 3 1.35708 16.6469 4.48939 -28.3086 -2.27614 -0.886274 3.35059 
1321 2 5.01864 13.0744 -0.558874 -24.4673 0.138812 -4.44225 -2.32885 
1322 3 5.54867 12.6837 4.46645 -28.6939 -0.0556547 -2.29522 0.0774793 
1361 3 4.76391 16.4825 -0.802598 -28.4546 1.07415 3.18681 -0.647149 
1362 3 5.03198 16.2449 4.67708 -29.1472 1.56036 1.36332 -3.27101 
2321 1 3.21243 16.5028 -2.57098 -7.688 -2.66894 0.203282 -0.0206099 
4322 1 2.86764 16.5618 3.09239 -8.13865 -2.1563 -0.19304 0.531057 
3721 1 7.1328 12.8964 3.41113 -8.07315 0.739825 -0.167145 1.07809 
2521 1 7.49346 15.7582 4.00098 -6.90741 -0.629177 -1.91103 -0.704864 
3360 1 3.97282 10.8378 -1.20259 -6.51143 1.6837 2.36039 0.232713 
4600 1 7.58805 16.7367 0.981926 -8.42769 1.12033 3.03542 -1.29536 
4362 1 5.46906 10.5532 0.900003 -7.27004 0.906284 -1.17422 -2.6572 
5961 1 1.31828 11.3602 5.2026 -7.81404 1.14968 -2.55501 1.05685 
5322 1 2.10713 10.7822 2.99113 -8.94735 -0.32941 -1.44821 -0.0176764 
3402 1 7.29318 18.344 3.69091 -6.26718 1.06543 -0.179807 -2.28854 
4961 1 8.79268 10.7714 0.806831 -8.042 -0.458419 0.642447 1.3797 
4363 1 4.84946 11.2064 3.10266 -6.63505 -0.413751 0.175033 0.239444 
4162 1 1.37736 13.4222 2.34135 -7.38586 1.98762 -0.0973693 1.86813 
2161 1 7.36963 14.8584 -0.603224 -6.80465 0.904978 -0.458216 -0.632289 
4121 1 7.05975 12.574 -1.53132 -8.27184 -1.3851 -1.32509 -2.11319 
4281 1 1.43152 11.6673 -1.88202 -5.95455 -2.12965 0.298044 -3.30959 
361 3 3.5707 14.6809 -3.37226 -28.6395 -1.22484 -0.507578 -1.78282 
521 2 7.56516 11.3005 -3.39692 -24.3124 -2.49798 -0.723957 1.1678 
122 2 -0.0926345 11.1422 2.6265 -24.9511 -2.12912 -1.3914 -1.84425 
1561 3 8.63495 17.2281 -1.00287 -27.8146 -0.838936 -3.43072 -0.976942 
4681 1 2.93652 13.6994 -1.56978 -7.28049 1.07091 1.79009 1.35903 
5039 1 5.11935 15.1477 -2.35013 -7.45306 2.51221 -2.8624 0.921681 
2483 1 6.31921 10.7909 5.27496 -6.995 2.09376 -0.0810448 -0.0632748 
2921 1 8.61632 16.3038 -2.82076 -6.81759 2.53483 -1.0448 0.580849 
2721 1 5.477 14.4181 5.44932 -8.19789 0.762297 -0.24868 2.60054 
5002 1 4.37719 18.3093 4.00753 -7.92832 -0.755013 2.51705 0.693132 
2523 1 4.09364 11.8141 5.41875 -7.31443 -4.52919 0.539844 0.542146 
3483 1 2.32608 14.6624 4.94731 -7.43022 -0.251761 0.530104 0.348225 
5320 1 -0.16259 9.32653 -1.60823 -7.60342 -1.77821 -2.63722 0.0992155 
161 3 -0.326044 15.0317 -3.42221 -28.7044 -0.668062 -0.685248 -0.268835 
1002 3 0.949159 1.10791 5.64842 -28.5763 0.890645 1.2462 -2.81648 
3003 1 1.50065 7.33204 13.9834 -8.32066 0.909713 1.03927 0.158909 
2442 1 3.71462 5.47056 6.75191 -7.88808 -0.233861 1.19501 -4.13293 
4244 1 8.51105 3.45698 14.2682 -6.97342 0.200364 -1.29231 -2.44861 
5483 1 5.97765 8.73882 13.8497 -7.12142 2.78403 0.493051 2.37558 
1443 3 8.81627 5.07488 10.3889 -28.263 -0.880936 1.09582 -3.13751 
3162 1 8.70388 3.60763 8.51495 -7.49679 2.74867 0.830658 -0.0395433 
5201 1 8.55187 3.21478 11.326 -8.88251 -0.483944 -0.591897 0.550761 
5003 1 6.8135 5.65346 6.14164 -7.92848 1.42696 -0.70433 2.61555 
2482 1 6.65881 4.98969 9.0534 -6.71165 3.74279 2.56544 -0.573946 
2404 1 6.86851 0.701132 10.8637 -7.34673 0.601569 2.1168 -0.122665 
203 3 3.13452 -0.168938 7.56242 -28.2625 0.112031 -2.96067 0.807821 
4643 1 1.37302 3.4103 5.99116 -7.42655 2.71267 2.17069 -0.554734 
4844 1 4.79417 3.54257 13.7124 -8.17526 -1.67383 -0.906184 1.49739 
2402 1 6.62809 1.0505 6.18452 -6.52377 -0.597437 1.5727 -2.50519 
2643 1 5.12558 3.55496 11.0165 -7.29538 0.0726366 -2.35783 -1.32793 
3082 1 1.02285 8.45224 6.58187 -8.27089 1.72049 -0.0746674 -2.51228 
3443 1 7.25057 8.52616 11.5714 -7.64711 1.38487 2.58137 -1.75894 
2202 1 5.18581 3.41825 5.88634 -7.16464 0.572473 -0.838079 -2.00416 
5282 1 6.97138 5.35672 11.5673 -7.47782 1.86311 -0.512573 -1.01866 
4683 1 3.20154 1.40696 6.32826 -7.81585 0.272458 1.78996 -1.32818 
3043 1 0.825877 2.71427 12.0313 -8.20416 -0.182437 0.895523 -1.10012 
5402 1 5.09345 3.50801 8.29211 -7.17769 -2.21577 -3.46135 1.74638 
5083 1 1.47538 7.32752 11.2078 -9.18021 -3.64176 -0.886341 1.59424 
243 2 2.9599 3.59026 7.65054 -24.9472 0.54323 0.267405 -3.23327 
244 3 2.54317 3.44138 12.5684 -27.5267 2.61729 0.0892806 0.684041 
283 3 2.97072 7.43804 7.04439 -27.6241 0.847247 -0.757622 1.59656 
284 3 3.10072 7.40348 12.3403 -28.7312 2.54569 0.817876 0.28418 
443 3 7.01514 3.60767 7.39038 -29.2899 -1.78103 -0.884512 -0.906439 
444 3 6.60296 3.23635 12.3563 -27.9087 -0.0614828 6.57603 -1.45203 
483 3 7.38061 7.18408 7.37384 -27.9989 -0.614153 -1.01951 2.99336 
484 3 6.53363 6.96422 12.4827 -29.4063 0.0180159 1.05133 0.406237 
1003 3 1.06782 1.81341 9.92214 -27.6962 -0.355108 -0.395724 -0.160971 
1043 3 1.10124 5.94338 9.91538 -27.1613 -0.341705 -2.1043 -2.5147 
1203 2 4.94416 1.4403 9.7643 -24.1141 1.40664 1.96554 -0.312852 
1243 3 4.83183 5.39314 9.5323 -29.3849 3.36597 0.937271 2.1192 
5803 1 2.98017 5.14307 11.7616 -7.76111 -1.96651 0.970682 0.590839 
4483 1 5.17433 7.06275 8.13699 -7.0961 -0.183789 0.346437 -0.336732 
4044 1 4.73271 -0.43598 10.8996 -8.61118 -3.03979 -0.207179 2.40279 
3322 1 1.19669 3.56687 8.88169 -8.19543 -1.99686 1.218 1.70239 
3243 1 3.09749 5.28953 9.16034 -7.61766 -4.17137 0.0481662 0.908566 
5242 1 1.16563 5.87917 7.04011 -8.42081 -0.528888 0.732148 -1.35747 
4284 1 4.94569 7.35826 10.8421 -7.36398 -1.15912 -0.180115 -1.61545 
5762 1 -0.267519 7.91516 9.23429 -7.93196 -0.0147515 -1.24816 -0.199216 
3164 1 3.12047 1.77065 11.2985 -8.48862 0.203654 -1.26734 0.29074 
3363 1 5.12671 -0.0874665 8.03132 -7.72368 -1.59866 0.700359 1.80092 
4005 1 6.85207 1.86481 13.2831 -7.81895 -1.34891 -6.5608 2.57457 
3683 1 8.49507 3.37038 5.81751 -8.18949 1.02255 -0.340011 1.04228 
2123 1 5.15099 -0.436014 13.8845 -9.44106 -1.16114 1.40775 -2.55485 
204 3 3.06163 -0.211754 12.5042 -26.6777 -1.10592 -0.8552 0.37962 
2363 1 7.48395 1.65639 8.52051 -7.25315 -1.30551 -1.1403 0.165485 
404 3 6.76472 -0.246927 12.6273 -27.7084 2.45879 -1.27449 -0.309175 
2243 1 2.87798 1.66052 8.72512 -8.6437 0.958251 -1.31691 2.14101 
2403 1 8.82776 -0.241698 5.72319 -8.02542 2.63971 -1.7302 2.74894 
4644 1 2.74628 7.92807 9.00894 -7.63619 -0.732705 -0.165417 -2.78466 
4884 1 2.8604 1.52062 14.0223 -9.07878 0.613279 -1.22698 -1.8208 
2764 1 4.82578 6.70987 13.2316 -7.06034 -4.46448 -2.23165 2.26199 
5283 1 6.72565 5.35973 14.0847 -7.61036 1.24044 0.742153 -0.307831 
5442 1 6.86908 8.293 6.01637 -7.51401 -0.909784 0.290918 -2.75394 
2004 1 0.840249 -0.0945935 8.28317 -7.73803 5.20899 0.23797 4.41047 
2245 1 0.112524 5.47113 13.2216 -7.94433 -0.818216 -2.10551 -1.16166 
3844 1 8.69132 7.02354 9.15404 -7.74632 -2.69178 1.18651 0.699363 
2365 1 1.12705 -0.446073 13.7195 -7.86464 -0.0877308 2.30845 2.66844 
3843 1 8.47536 7.53183 13.555 -8.00232 -1.19177 -0.029343 2.6736 
4083 1 -0.0886288 1.92889 7.16399 -6.95352 0.977895 -4.94003 1.44412 
84 3 -0.259775 7.52985 12.7103 -27.6516 -1.11156 -0.377024 -1.43927 
3163 1 0.85248 14.3883 11.6658 -7.70468 1.2336 0.317442 -0.524327 
2443 1 8.50224 9.79297 6.78898 -7.42661 2.93641 1.15436 -1.04198 
2285 1 0.721664 9.8919 12.8914 -8.13733 0.603289 -2.36052 3.11877 
2844 1 1.36513 18.2479 11.3971 -8.19679 0.181607 1.64205 -3.4002 
4444 1 8.72011 18.0548 12.3949 -7.1041 -0.559018 -1.97695 -0.921786 
1123 3 1.4505 12.4601 9.53135 -29.0963 -1.27026 1.58012 -1.77085 
2723 1 8.33103 13.6373 6.48203 -7.5368 -0.294252 -0.379545 -2.36371 
5841 1 1.92409 18.2808 6.11129 -7.55026 -0.580564 -1.91957 -3.83097 
4843 1 4.55249 14.4243 8.47447 -7.80241 -1.53278 1.73148 -0.98867 
2001 1 1.03674 15.6518 6.94529 -6.9452 -0.123257 0.682065 -0.127478 
2564 1 6.99472 16.4016 14.2111 -8.54816 -3.24097 1.03411 0.0985802 
5482 1 6.67466 9.05223 8.59614 -7.99685 0.918517 -0.961702 3.74407 
403 2 7.23253 18.4086 7.60669 -25.0473 -3.97046 0.593519 -2.55229 
1563 2 8.46045 16.6292 10.3141 -24.3985 -1.29061 -0.371266 -0.457836 
5203 1 8.8958 18.2327 8.76008 -8.71663 3.431 0.0759407 1.10743 
4523 1 8.78741 14.9201 11.8572 -8.79242 0.994057 0.0968599 -1.14799 
3324 1 2.9889 16.9174 8.95461 -8.3805 0.851964 0.592625 -0.662453 
5123 1 1.38302 10.5568 8.23611 -7.78548 -1.05682 -0.940762 0.0567955 
564 2 6.8653 14.695 12.9522 -24.5541 -0.797609 -1.8957 -1.97947 
3203 1 1.87456 14.4175 9.19238 -7.25727 0.0333544 2.43456 1.93886 
1163 2 1.19635 16.4178 10.0961 -24.3357 -0.964178 -0.797827 -0.364178 
5923 1 0.912397 11.3502 10.9758 -8.29695 -1.44615 -0.707487 0.145876 
5522 1 6.99192 16.5506 6.5973 -6.9117 0.44485 -1.13957 -3.07043 
3523 1 6.61184 16.5796 11.6327 -8.27906 -0.178579 0.562961 0.618653 
3362 1 4.05971 16.6075 6.23669 -7.43601 -1.31864 -0.736282 1.39812 
363 3 2.76431 14.9208 7.42908 -28.7039 0.979663 0.531912 -1.5166 
563 3 6.44421 14.6248 7.23596 -29.1289 1.58777 -0.0440044 3.1522 
2284 1 3.26019 12.1887 13.8515 -7.5086 -2.11072 1.88109 0.430153 
2883 1 3.04547 12.752 11.1886 -7.98604 0.103102 0.785028 -1.03253 
1283 3 4.56886 9.02748 9.37342 -28.9017 -0.292083 -0.977698 1.7059 
3004 1 2.81209 9.32358 10.9788 -7.32076 -0.0453271 -3.0754 -3.53175 
1083 3 0.826154 9.25542 10.2132 -28.0151 0.316375 0.960005 -2.03935 
3684 1 8.84264 11.3473 11.7466 -7.11509 3.50396 -2.87485 1.0622 
5922 1 2.8929 16.1794 11.5559 -8.5134 0.290305 1.38153 1.2055 
1363 2 4.77883 16.3033 10.413 -24.1716 0.785232 2.43123 -5.31677 
1323 2 5.05066 12.7941 9.93657 -25.5723 1.06273 -1.37059 -0.418341 
1483 2 8.66487 9.08107 10.0599 -24.4561 -0.592459 1.36917 -0.556485 
3201 1 6.61743 16.4708 8.95196 -6.97037 -0.109225 1.32358 2.10039 
324 2 2.78849 10.8543 12.2089 -24.3847 0.755037 4.56907 3.22485 
364 3 2.83082 14.4256 12.5679 -28.506 1.03601 -1.16344 0.409393 
2283 1 5.45081 12.0832 7.68168 -6.93921 2.24604 0.764194 0.45897 
4123 1 2.25819 12.8208 7.47903 -7.33 0.43076 1.28766 -1.20083 
2324 1 4.55091 9.65368 7.30316 -7.58591 -1.65131 -1.80102 -0.337546 
523 3 6.68907 10.4031 7.2716 -28.8364 -0.973213 2.03093 -1.62223 
123 2 -0.220979 10.6705 6.52502 -25.5522 -2.14617 -0.339445 2.19734 
5043 1 3.64839 11.0884 9.10785 -7.42271 0.405927 0.782872 2.68704 
3724 1 5.06068 10.7352 11.4919 -7.44449 1.10353 0.999697 -1.49156 
5202 1 6.88399 13.8917 9.2585 -6.00096 -0.582487 -1.27391 0.156939 
4364 1 4.8954 14.5155 11.3309 -7.33289 0.460142 -2.38087 1.07887 
4323 1 7.02651 12.8935 11.6601 -6.73094 -2.59501 -0.168532 1.0215 
524 2 6.68448 10.612 12.9563 -25.369 1.04909 1.2144 -0.85188 
323 3 3.13485 11.1897 7.13457 -28.4294 1.92343 -0.821871 -0.806687 
3283 1 3.499 9.32458 13.3771 -6.78833 -0.407672 -2.98419 3.34537 
1523 3 8.71554 13.0205 10.3578 -29.4028 -1.55671 -1.08163 -0.924282 
2683 1 8.13272 11.1968 9.35967 -6.64534 -0.939419 -0.903909 -1.27448 
3084 1 1.5297 14.8305 14.1678 -8.13401 -0.658333 -2.11441 -0.215368 
3323 1 4.63577 14.5178 13.7418 -8.26555 1.25283 0.853562 3.40882 
245 2 2.51123 3.35881 17.7756 -25.1353 2.02432 0.128535 0.268206 
285 3 2.80317 7.15113 17.6669 -30.0682 -0.412694 0.287889 3.1628 
445 2 6.81657 3.4099 17.7208 -24.0028 1.18766 -2.22855 3.34888 
485 3 6.45825 6.61856 17.6779 -27.4171 1.77599 2.8991 3.54955 
1004 3 1.08848 1.52575 15.0957 -27.0557 -0.125889 -0.626395 -0.12791 
1005 3 1.02028 1.53993 20.6692 -30.075 -1.56029 -2.83322 -1.1969 
1045 3 0.942211 5.22748 20.621 -28.1821 1.90477 -0.994386 -1.59158 
1205 3 5.20888 1.7455 21.2697 -28.3933 -2.27056 -1.29889 -3.08865 
1245 3 4.3341 5.24822 20.6672 -28.0455 1.24976 1.43671 -1.12501 
2444 1 4.09744 3.45081 21.2461 -7.02733 3.9663 0.0691945 0.897735 
5284 1 6.14616 5.01295 19.3496 -8.05329 -0.713972 -2.32582 -1.29435 
4205 1 4.53113 3.71322 16.8902 -7.39146 -0.272512 0.545712 -0.500693 
3403 1 6.5939 2.02769 16.114 -8.04773 0.549867 -0.141608 0.00644544 
1244 2 4.83953 5.36126 15.0994 -23.3209 0.0899262 -4.94902 -2.02129 
4285 1 1.18914 7.30056 19.4161 -7.4611 -3.49724 -2.10388 1.64783 
5084 1 3.10412 5.26861 19.1964 -6.99886 -1.24563 -1.80513 -0.254608 
5046 1 2.54932 5.0301 22.0297 -8.12668 -1.11108 2.5701 1.47998 
2204 1 2.02616 5.39086 16.9402 -7.03952 -0.556682 -4.33549 -2.02556 
5645 1 3.84031 6.92975 15.7922 -8.29847 -0.609083 2.83232 0.569685 
3244 1 3.99228 1.26319 19.3599 -5.94197 1.42932 -0.0824161 -0.726516 
1044 3 0.565023 5.46085 15.1963 -27.6826 1.56734 1.55382 0.582923 
4443 1 6.48874 5.14444 16.588 -8.50435 0.411725 0.447221 -2.3371 
3486 1 7.30821 5.12433 22.623 -5.87775 0.0851658 -1.43605 -0.530693 
2244 1 0.63233 2.58104 16.7567 -8.60938 0.957963 1.60372 -0.697227 
5045 1 0.389156 3.54848 21.9838 -8.067 1.65986 0.612666 0.0864204 
3926 1 2.61974 1.62527 21.6762 -6.51819 1.15842 -0.30268 3.73167 
1204 2 4.80503 1.50681 15.0475 -23.9089 -0.0609097 1.32646 1.11162 
4243 1 3.1599 1.54327 16.6408 -7.49291 -1.02471 -1.10065 -0.65905 
1285 2 4.97175 8.72772 20.8377 -24.5523 -1.00422 1.02343 -0.888343 
1405 3 8.38882 1.52567 20.4023 -28.9656 2.11052 -0.63432 0.870753 
3404 1 5.05538 -0.351639 16.407 -8.59476 -0.771348 0.16121 0.520269 
3205 1 1.4277 0.209937 18.9883 -6.19012 1.16884 -0.417325 -1.30398 
4283 1 0.972709 7.41147 16.7797 -7.87736 -2.30343 2.40817 -2.78448 
4326 1 4.73985 7.13079 18.2672 -7.19043 0.113595 0.876888 1.15529 
2644 1 6.2777 6.82392 21.0597 -7.92414 -2.68161 0.0434897 -1.52689 
286 3 2.84348 7.21276 23.06 -28.127 1.19029 -0.89441 1.58802 
4084 1 1.72897 3.86671 14.4587 -8.25983 -0.0661181 -0.10835 0.66463 
4405 1 6.6968 1.17999 19.1012 -8.4161 -0.428357 2.65193 1.51275 
205 3 3.73189 -0.452395 18.0953 -28.6344 -4.75559 3.4537 0.717266 
405 2 6.93274 -0.375202 17.7421 -24.7037 1.84406 -2.19452 -1.45153 
486 3 7.07188 6.90456 22.9775 -28.8849 -1.52213 1.65643 2.25798 
3126 1 1.28616 -0.287527 22.2125 -8.15541 -0.620074 -0.923117 3.31139 
2645 1 8.22444 6.50647 19.0027 -8.54848 1.45328 3.05012 -1.67717 
2966 1 7.69329 -0.269306 21.4522 -7.89876 -0.45512 -0.412056 -0.585748 
5685 1 1.57584 3.03174 19.6473 -7.18656 -0.519626 3.68336 -0.948337 
2165 1 0.903529 7.39331 22.658 -8.21622 2.57356 -1.75826 -1.24102 
1284 3 4.57542 8.94958 15.5057 -29.3188 0.496542 1.7707 -2.03732 
4446 1 3.37296 7.22688 20.9288 -7.70091 1.90635 -1.45307 2.28225 
1445 3 8.02311 5.35694 20.4213 -28.8006 -0.232691 -3.35511 4.79354 
4246 1 6.95823 3.09665 21.4912 -6.74804 -2.57899 -3.87121 0.406641 
1444 3 8.38295 5.14791 15.1337 -29.024 2.58488 0.379633 -0.0253136 
5124 1 8.01498 -0.128554 15.6643 -7.48706 -1.73306 -2.28791 -0.39672 
2965 1 6.91524 8.91237 21.9845 -8.16287 1.07596 1.68431 0.797634 
3405 1 8.54301 6.73934 16.3524 -7.44898 -0.167682 0.248607 -0.264499 
1485 3 8.33946 8.8626 20.6585 -27.5032 1.70482 0.691024 -1.28811 
3644 1 6.37166 8.15818 16.4529 -8.23965 0.349935 0.996643 -1.88362 
246 3 2.50687 3.17743 23.2113 -28.3067 1.38496 0.359369 -2.20304 
4207 1 5.52475 1.40446 23.1597 -8.26144 -0.122433 -1.8109 1.36291 
2486 1 8.37399 3.39936 19.6447 -7.37948 0.843361 0.896136 -2.99317 
4485 1 8.89162 7.1034 21.61 -7.30666 -1.32109 0.0680831 -0.869646 
1484 3 8.12633 8.7102 15.3743 -28.4125 0.920684 0.864718 0.265425 
1404 3 8.81955 1.62473 15.3655 -29.5634 0.803867 1.14076 -0.800289 
3645 1 8.91174 4.03505 16.7425 -7.42034 0.549437 -0.484956 2.32672 
4725 1 -0.352131 5.0781 18.7864 -8.07446 0.488603 -0.527337 0.140001 
1084 3 0.702747 9.03212 15.2498 -27.3075 2.90218 0.342478 -0.72708 
1124 3 0.988287 13.0832 15.608 -28.3326 0.592249 1.25367 0.0930075 
1524 3 8.77521 12.6597 15.7392 -28.6062 -1.77261 -0.272613 -3.31132 
5445 1 5.13438 17.5085 18.8765 -7.55619 4.55092 -1.05989 0.838108 
5005 1 4.82803 18.3262 21.629 -7.72526 1.30593 2.00827 -0.355526 
206 3 3.3217 18.2067 23.2507 -28.0932 -0.111756 0.434377 -0.802378 
5323 1 8.35267 10.6009 14.476 -7.23933 -0.211442 -0.924536 -1.57337 
2524 1 5.93308 12.8707 16.9328 -8.55189 0.493096 2.17591 1.50988 
3524 1 0.710701 10.2917 22.3863 -7.4923 -0.954208 1.7578 1.64559 
2884 1 2.70778 9.33173 16.0968 -7.73414 -2.77822 0.538013 0.188945 
5725 1 8.83619 13.9438 22.5269 -8.58296 1.37578 0.787077 1.58485 
1085 3 1.24785 9.0346 20.7594 -29.5306 0.360716 -1.08247 -1.01653 
5926 1 2.84119 8.99077 19.0308 -6.75052 0.337091 1.91336 -0.523679 
2484 1 6.88101 9.38881 19.105 -7.90151 0.985411 -1.79984 1.62665 
3484 1 4.64134 10.7924 19.6023 -8.08808 -0.702525 0.520336 2.15122 
5404 1 2.81131 9.24125 22.1826 -7.61365 2.87054 1.22878 -1.31055 
5244 1 1.77255 17.8117 16.4521 -7.53108 -0.0545022 1.21704 1.17472 
4327 1 4.64382 13.9468 22.4465 -7.27774 1.95971 0.612152 -2.81389 
4245 1 6.69008 12.5609 19.5296 -6.93077 0.128191 1.43019 -1.40074 
3445 1 7.73284 16.1468 18.9723 -6.8135 -2.16384 -2.15187 0.728267 
4525 1 6.46674 16.3752 16.8287 -7.95652 1.05257 0.0325247 -2.77001 
1364 3 4.76383 16.7297 15.1934 -27.1601 2.80402 -0.781987 1.61008 
3725 1 2.3564 12.4285 21.9966 -7.53775 2.45255 -1.15527 0.572056 
2205 1 3.27612 16.4869 22.0674 -7.51659 0.464534 -1.40017 -0.162066 
3044 1 2.60853 12.6782 19.5384 -8.80483 2.43478 0.564151 -2.75807 
5564 1 4.7603 14.3718 19.6867 -8.35307 -0.622748 2.18358 -1.55834 
5004 1 1.2612 15.0289 21.8982 -8.41733 -0.751761 -1.50409 0.828852 
3165 1 0.793512 11.4792 16.9236 -7.74945 -0.760921 -0.305195 1.83678 
325 2 2.77911 10.9248 17.9869 -24.98 -1.24815 -0.397461 -0.218 
365 2 2.91267 14.6812 18.3913 -23.2368 0.527453 -0.241706 -0.24826 
525 3 6.30069 11.1079 18.1916 -29.0839 1.30524 -0.556081 -0.446409 
565 3 6.50933 14.6627 17.8932 -27.3216 0.350558 0.239126 1.99002 
1125 3 1.12494 12.7761 20.7378 -27.4421 -4.84498 -0.191047 0.0957321 
1164 3 1.20615 16.6686 15.0223 -28.7181 -2.4065 -1.04668 0.249257 
1165 2 1.26325 17.0129 20.8751 -24.677 -1.75955 -0.153289 -2.42409 
1324 3 4.87615 12.8773 15.212 -28.1634 -1.87238 0.0273974 -0.0623971 
1325 3 4.55972 12.21 21.0314 -28.4011 2.00812 2.93046 0.650232 
1365 3 5.10354 16.5654 20.8433 -27.489 -0.632088 -0.816121 -0.944533 
5485 1 4.67716 10.3402 17.1552 -7.17854 1.48981 0.16549 -0.776456 
4925 1 1.39525 14.7914 16.8859 -7.83605 -0.875609 1.18467 1.04046 
4324 1 3.0067 16.9581 19.5933 -7.72823 -1.72592 -3.18155 -1.53721 
3526 1 5.11874 10.7039 22.3663 -8.00254 -3.15356 -0.643658 -1.23745 
4124 1 7.12408 15.8057 21.5647 -8.79405 -1.29389 0.580802 0.555751 
3083 1 4.14778 15.3805 16.7359 -8.23526 0.748348 -0.348206 0.274716 
3925 1 0.722887 10.6286 19.7279 -7.37961 0.412966 2.71551 -0.934205 
2164 1 3.00124 12.7998 16.6183 -7.85295 1.42368 -0.425369 0.435091 
2525 1 6.69571 12.6627 22.0968 -6.59336 1.12119 -0.318529 0.0778371 
3884 1 -0.17149 11.9131 14.5331 -7.75506 -1.11223 -0.138841 -2.22166 
1525 3 8.76933 13.0838 20.76 -28.9351 -1.26551 -3.76109 -3.14908 
5204 1 8.90705 18.2604 18.9159 -7.37011 0.717373 2.18637 -0.476194 
2124 1 0.041121 16.4745 19.0393 -7.33431 1.25251 -0.808236 -0.558453 
3723 1 8.50413 14.4947 17.1257 -8.42892 -0.6105 -1.61493 -1.18466 
2724 1 7.11628 13.217 14.5363 -7.91651 -0.532979 1.20019 0.531214 
3564 1 8.04942 10.8401 16.8793 -7.58503 -0.292196 0.0399565 1.72601 
2925 1 0.123975 13.8754 19.313 -7.44311 0.87101 -1.97366 -1.06596 
566 3 7.06852 14.3393 23.0511 -27.4547 -4.79869 0.273926 2.52078 
1564 3 8.39611 16.4699 15.4554 -28.2209 0.961691 0.223772 0.592414 
3485 1 8.48586 10.9752 21.0303 -7.08029 2.01971 -2.05932 0.584369 
4484 1 5.50758 11.1676 14.8107 -6.88706 0.68203 -2.43489 -1.02731 
3204 1 3.14386 16.8034 14.4031 -7.88952 -0.192099 1.15489 -2.39396 
2045 1 5.5709 5.4158 24.2332 -6.75001 -0.26841 -0.488912 1.55444 
3647 1 8.77975 2.86906 30.1248 -5.95065 2.8927 -1.68616 -1.53721 
446 2 6.52872 3.26355 23.858 -25.0514 2.176 1.58308 -2.37856 
2248 1 0.748519 3.2206 30.0733 -8.36862 -1.14962 1.47956 -0.23575 
1487 3 8.8876 8.46792 31.5416 -27.4078 1.77023 -0.397586 -4.58055 
2287 1 4.90989 7.92225 23.4037 -7.69203 -1.65371 -0.325086 0.05914 
1447 3 8.85269 4.87484 30.9549 -29.7307 -1.23293 -0.425697 0.58359 
1486 3 8.7665 8.80056 26.1379 -26.9301 -1.71426 -0.486856 -1.19463 
1407 3 8.58277 1.38831 31.6721 -28.9954 -0.219975 -1.59815 -2.80172 
1406 3 8.4527 1.45312 26.2208 -29.147 1.32579 0.0447339 0.280226 
2566 1 6.90995 0.830525 30.6226 -7.99757 -0.438899 0.08877 0.696064 
2447 1 4.61017 0.76312 28.7252 -6.37954 1.57115 0.835032 -0.4818 
4286 1 6.53065 2.40492 25.9412 -8.57458 -2.2778 2.98896 -1.04716 
2606 1 4.33219 3.21395 24.3483 -8.50588 -0.812597 0.89479 1.2167 
5007 1 1.26445 3.51016 24.6084 -7.89166 -0.118563 -2.70904 0.583794 
2206 1 3.00459 1.06347 24.3891 -8.5443 -1.38769 -1.53115 0.0843304 
3406 1 2.35247 1.64078 27.1277 -6.91479 2.00537 1.14964 -1.35937 
2406 1 3.19607 2.32768 30.6725 -7.01115 -2.173 -2.64255 4.0848 
5405 1 8.17185 1.60191 23.4746 -6.6721 0.125356 1.64777 0.158445 
3447 1 4.2894 3.36249 27.0757 -8.86573 -0.167403 0.385806 -1.16483 
4248 1 0.325835 3.39053 27.3681 -7.73912 3.1493 0.64357 -0.505599 
3245 1 5.03349 6.13027 29.192 -7.18304 0.656092 -1.11182 -0.467587 
2847 1 7.82275 4.85098 29.3492 -5.85252 -1.72906 1.77251 -1.61928 
247 2 2.60407 3.26427 28.9606 -24.6154 1.20513 0.602522 -5.00155 
287 3 3.12462 6.90444 28.5134 -29.2723 1.75768 1.85589 -1.08558 
447 3 6.09531 3.23128 27.929 -28.0106 2.94168 1.59761 2.47117 
487 3 7.00827 6.92029 28.7371 -29.2862 -0.139831 -3.15961 1.74946 
1006 3 0.569667 1.58307 26.2576 -29.0381 0.380414 -0.0343534 -0.0944848 
1007 3 1.46308 1.43031 31.1612 -28.4131 -0.184004 -0.686074 1.73724 
1046 3 0.621531 5.09255 25.953 -28.7544 1.57872 -0.586105 -0.980472 
1047 3 0.929969 5.57269 31.096 -27.4615 0.830024 -0.930267 2.91923 
1206 3 4.47245 1.4093 25.6578 -27.4579 0.244783 -0.264439 1.85121 
1207 3 5.34463 1.53203 31.2712 -29.0608 -5.92416 -1.26332 0.477133 
1246 3 4.1907 4.92517 25.8942 -27.6857 0.210552 2.00532 -2.06639 
1247 2 4.75894 5.07231 31.2071 -25.0799 -0.177368 -6.59172 -3.55831 
2247 1 2.34094 5.29826 27.819 -7.86558 -0.125678 -3.25685 -1.48411 
3246 1 4.88318 3.21895 29.5561 -7.12231 4.02623 3.24107 0.122565 
5246 1 2.78441 5.37175 30.2273 -7.9906 -2.24918 -0.029037 -0.765841 
2407 1 6.75532 5.29617 27.1772 -7.193 -0.489888 -0.905436 -2.61139 
3005 1 2.59295 5.5088 24.8157 -7.46969 0.0836745 1.14792 -0.859202 
1086 3 0.753235 8.74968 25.9985 -27.9181 1.14955 1.41489 0.251872 
5325 1 7.22008 1.55944 28.0636 -7.66593 0.121096 -0.785675 -0.0703783 
407 3 6.59496 -0.219382 28.8273 -29.1 0.809769 -2.50928 0.0399827 
2326 1 4.7147 -0.423031 26.6548 -7.53331 0.967365 1.42519 -1.70896 
4366 1 1.36351 0.500893 29.1021 -7.72962 -0.140673 0.86249 4.49459 
2246 1 1.50038 7.85034 29.3072 -7.91972 -3.8206 -2.83453 1.64678 
1287 3 4.90017 8.81768 31.3487 -29.5259 -1.27534 0.824172 -0.356456 
2366 1 6.35649 8.22799 30.2634 -7.12971 2.27542 -0.562991 0.0155727 
4567 1 4.33914 6.79539 26.4004 -7.66667 0.479627 1.9648 1.27059 
3565 1 7.24862 0.17798 25.3408 -7.20874 -0.712267 -3.27561 0.619162 
5446 1 8.57932 3.90798 24.7874 -8.13243 -1.19276 -1.84997 -1.10507 
2086 1 8.63871 6.79319 24.3975 -8.97444 1.04011 0.717815 1.5277 
4006 1 0.552942 -0.370326 26.9254 -6.51042 3.06672 -2.53202 -2.083 
87 2 -0.433152 7.07603 28.6532 -23.1814 -1.21978 0.576259 0.657317 
3446 1 2.37028 8.57568 24.5835 -8.32348 0.257824 1.31952 1.20935 
1286 2 5.00024 8.85487 25.6687 -24.0853 -1.4434 -2.78274 2.274 
2125 1 0.933702 6.96657 26.6916 -7.99935 -0.606792 1.49607 0.249808 
2687 1 6.91833 8.96293 24.6753 -8.47167 1.44411 -0.395776 1.36873 
1446 3 8.91736 5.38019 25.8833 -27.1892 -0.829575 -0.190067 1.58807 
3603 1 6.83195 8.29471 27.4734 -8.52925 0.237752 2.05608 -2.16983 
5086 1 6.79278 5.54212 31.6693 -6.82302 -1.57342 -1.5304 0.869178 
3007 1 3.78053 8.42052 29.5457 -6.64356 2.17843 1.84039 1.66634 