LAMMPS (11 May 2018)
# Sample LAMMPS input script for thermal conductivity of UO2
units       metal
atom_style full
boundary p p p

# Reading the input structure file
atom_modify map array
read_data U25.5x5x40.lmpstr
  orthogonal box = (0 0 0) to (17.974 17.974 207.296)
  2 by 1 by 12 MPI processor grid
  reading atoms ...
  6000 atoms
  0 = max # of 1-2 neighbors
  0 = max # of 1-3 neighbors
  0 = max # of 1-4 neighbors
  1 = max # of special neighbors

# Setting the variables to elements as they are assigned in the input structure file

variable O equal 1
variable U equal 2
variable Zr equal 3

# setting charges as these were previously unset

set type $O charge -1.1104
set type 1 charge -1.1104
  4000 settings made for charge
set type ${U} charge 2.2208
set type 2 charge 2.2208
  500 settings made for charge
set type ${Zr} charge 2.2208
set type 3 charge 2.2208
  1500 settings made for charge

pair_style      hybrid/overlay  coul/wolf 0.275 10.96 eam/alloy
pair_coeff      * * coul/wolf
pair_coeff   *    *  eam/alloy  UZrO.eam.alloy O U Zr

compute   peratom all pe/atom pair bond
compute   pe all reduce sum c_peratom
compute   ke all ke/atom


variable    T equal 2500
variable THERMO_DAMP equal 0.100
variable BARO_DAMP equal 0.500
variable  etol equal 1.0e-8
variable  ftol equal 1.0e-10
variable  equilsteps equal 10000
variable  half_equilsteps equal v_equilsteps*0.5
variable  TCsteps equal 2500000
variable  zunits equal 20
variable  nslabs equal 20
variable  thickness equal 1.0/v_nslabs
variable  swapsteps equal 50
variable  dimension string z
variable  temp atom c_ke/0.0001292355
variable  dt equal 0.002
variable  currenttime equal ${dt}*step
variable  currenttime equal 0.002*step
variable  initialsteps equal 5000
variable  rampsteps equal 10000


timestep     ${dt}
timestep     0.002
thermo ${swapsteps}
thermo 50

velocity all create 300 164336

fix thermostat_fix1 all npt temp 300 300 ${THERMO_DAMP} aniso 0.0 0.0 ${BARO_DAMP}
fix thermostat_fix1 all npt temp 300 300 0.1 aniso 0.0 0.0 ${BARO_DAMP}
fix thermostat_fix1 all npt temp 300 300 0.1 aniso 0.0 0.0 0.5

run ${initialsteps}
run 5000
Neighbor list info ...
  update every 1 steps, delay 10 steps, check yes
  max neighbors/atom: 2000, page size: 100000
  master list distance cutoff = 12.96
  ghost atom cutoff = 12.96
  binsize = 6.48, bins = 3 3 32
  2 neighbor lists, perpetual/occasional/extra = 2 0 0
  (1) pair coul/wolf, perpetual
      attributes: half, newton on
      pair build: half/bin/newton
      stencil: half/bin/3d/newton
      bin: standard
  (2) pair eam/alloy, perpetual, copy from (1)
      attributes: half, newton on
      pair build: copy
      stencil: none
      bin: none
Per MPI rank memory allocation (min/avg/max) = 7.074 | 7.587 | 7.851 Mbytes
Step Temp E_pair E_mol TotEng Press Volume 
       0          300   -87463.866            0   -87231.236    201451.86    66970.015 
      50      299.466   -87733.238            0   -87501.022    4762.5529    71235.383 
     100    293.68624   -87722.719            0   -87494.986   -1679.3619    71380.629 
     150    296.02376   -87718.761            0   -87489.215     508.7303    71397.331 
     200    303.85673   -87720.753            0   -87485.133    641.13204     71356.53 
     250    302.62306   -87719.436            0   -87484.773   -1056.6176    71399.334 
     300    302.76622    -87723.18            0   -87488.406   -260.47157    71383.541 
     350    299.06308   -87724.191            0   -87492.288    339.09503     71417.48 
     400    301.37496   -87725.033            0   -87491.337   -238.22852    71386.798 
     450    298.32963   -87720.312            0   -87488.978    287.43537      71412.5 
     500    304.04085   -87718.641            0   -87482.879   -608.43666    71481.772 
     550    309.66445   -87718.996            0   -87478.872    9.2513389     71443.04 
     600    305.01618   -87719.733            0   -87483.213   -103.83784    71424.613 
     650    303.65138   -87723.662            0   -87488.201   -1171.5352    71421.453 
     700    301.16576   -87724.678            0   -87491.144    214.34164    71417.689 
     750    297.01074   -87722.504            0   -87492.192   -100.60728    71455.864 
     800    303.27707   -87722.499            0   -87487.328   -1221.4945    71459.462 
     850    301.70746   -87717.692            0   -87483.738    371.13688    71424.656 
     900    303.64691   -87720.461            0   -87485.004   -1059.0038    71458.081 
     950    301.08519   -87721.536            0   -87488.065    509.66108    71399.438 
    1000    298.75554   -87721.098            0   -87489.434   -869.52397    71455.577 
    1050    297.53793   -87720.552            0   -87489.832    429.20767    71443.256 
    1100    300.64973   -87722.553            0    -87489.42    72.120372    71427.854 
    1150    303.56382   -87720.406            0   -87485.013   -361.81307    71445.046 
    1200    303.05366   -87717.386            0   -87482.389    103.97558     71449.26 
    1250    304.63079   -87721.855            0   -87485.635   -266.33653    71433.333 
    1300    294.71441   -87719.684            0   -87491.153   -12.123448    71441.927 
    1350    299.77484   -87723.738            0   -87491.283   -250.85296    71477.234 
    1400    296.48989   -87719.554            0   -87489.646    374.45901     71456.85 
    1450     300.6083   -87719.297            0   -87486.196   -346.00583     71466.37 
    1500     306.5116   -87719.606            0   -87481.927     459.3978    71456.917 
    1550    301.88222   -87713.347            0   -87479.258   -596.08179    71513.123 
    1600    302.55587   -87719.398            0   -87484.786    81.085799    71462.414 
    1650    297.67129   -87720.801            0   -87489.978    1076.4779    71404.424 
    1700    297.59585   -87722.242            0   -87491.476   -1293.0258    71483.911 
    1750    297.61595   -87721.181            0     -87490.4    135.25073    71445.938 
    1800    298.11567   -87717.609            0    -87486.44   -444.63982    71459.191 
    1850    306.48028   -87721.079            0   -87483.425   -464.38861      71452.8 
    1900    301.18979   -87719.911            0   -87486.359    415.20464     71407.84 
    1950    292.56713   -87719.574            0   -87492.708   -531.01188    71462.908 
    2000    302.01896   -87726.202            0   -87492.007   -461.20002    71455.401 
    2050    300.35351   -87721.428            0   -87488.524    345.06581    71429.577 
    2100    301.41075   -87718.934            0   -87485.211   -601.16117    71464.178 
    2150    302.87237   -87720.129            0   -87485.272   -569.08509    71484.652 
    2200     297.9749   -87724.527            0   -87493.468    168.24867    71425.147 
    2250    296.04143   -87724.252            0   -87494.692   -174.68332    71428.801 
    2300    298.01905   -87722.016            0   -87490.923    225.70754    71438.335 
    2350    301.81743   -87720.826            0   -87486.788   -165.95327    71469.663 
    2400    302.87036   -87720.911            0   -87486.056    552.64286    71431.535 
    2450    300.28423   -87720.749            0   -87487.899    218.28502     71449.11 
    2500     292.4974   -87721.715            0   -87494.904    -848.7591     71478.92 
    2550    299.16524   -87726.279            0   -87494.297    1468.2887    71384.442 
    2600    295.02511   -87720.351            0   -87491.579    43.970745    71443.146 
    2650    297.42663   -87718.754            0    -87488.12   -503.71076    71487.308 
    2700    302.02527    -87721.07            0    -87486.87    247.65476     71445.52 
    2750    301.52073   -87721.592            0   -87487.783   -780.22279    71473.874 
    2800    298.80458   -87721.939            0   -87490.237    746.13038    71420.116 
    2850    296.11531   -87727.807            0    -87498.19   -500.76512    71452.914 
    2900    291.96287    -87723.58            0   -87497.183    737.67064    71412.997 
    2950    296.13891   -87721.043            0   -87491.408   -130.72078    71437.815 
    3000    299.83102   -87720.881            0   -87488.383    75.325018    71467.304 
    3050    297.45482   -87717.298            0   -87486.643    1254.7481     71420.73 
    3100    296.65464   -87717.749            0   -87487.714   -960.59914     71477.71 
    3150    301.03837   -87726.667            0   -87493.232    510.15195    71419.902 
    3200    297.35186   -87725.899            0   -87495.323    339.29504    71445.329 
    3250    295.29009   -87721.172            0   -87492.195   -517.69238    71454.851 
    3300    294.19141   -87717.884            0   -87489.759    628.17254    71440.589 
    3350    301.31369   -87721.822            0   -87488.174   -146.87391    71453.139 
    3400    300.04766   -87720.493            0   -87487.827   -595.98821    71469.732 
    3450    296.17532    -87719.36            0   -87489.697    330.94796    71450.971 
    3500    294.91746   -87723.725            0   -87495.036    32.599939    71423.915 
    3550    292.76424    -87721.34            0   -87494.321    189.60424    71433.085 
    3600    299.04112   -87721.209            0   -87489.323   -256.40599    71453.723 
    3650     299.8001   -87719.811            0   -87487.337    133.68444    71466.937 
    3700    302.41759   -87721.573            0   -87487.068    289.52081    71453.347 
    3750    299.82297   -87721.554            0   -87489.062    235.13705    71429.636 
    3800    296.43395   -87723.971            0   -87494.107   -440.63313    71451.522 
    3850    297.37601   -87728.814            0   -87498.219    862.90354    71422.297 
    3900    297.55221   -87723.476            0   -87492.745   -1748.5616     71531.71 
    3950    301.99283   -87722.756            0   -87488.581    74.388744    71441.868 
    4000    298.41729   -87719.184            0   -87487.782    818.43728    71427.305 
    4050    298.38819   -87719.043            0   -87487.664   -1305.1475    71496.563 
    4100    301.65117   -87722.674            0   -87488.764    935.95428    71432.102 
    4150    299.64157   -87724.188            0   -87491.836   -29.450419     71457.52 
    4200     300.2634   -87726.885            0   -87494.051   -1179.8565    71468.531 
    4250    299.92146   -87724.956            0   -87492.387    411.97052    71434.727 
    4300    300.81403    -87719.61            0   -87486.349   -115.37742    71454.673 
    4350    303.49708   -87721.025            0   -87485.684    139.99904    71432.906 
    4400    300.71825   -87721.371            0   -87488.185   -732.07287    71467.724 
    4450     297.6768   -87723.327            0   -87492.499    422.18206    71448.437 
    4500    295.19954   -87721.963            0   -87493.056   -186.39025    71450.503 
    4550    302.96783     -87719.7            0   -87484.769    223.21111    71436.134 
    4600    301.42579   -87716.684            0   -87482.949   -468.04789    71480.723 
    4650    301.76394   -87720.935            0   -87486.938    116.24974    71459.467 
    4700    295.43672   -87720.096            0   -87491.005   -592.54527    71460.097 
    4750    299.74852   -87724.675            0    -87492.24   -138.37173    71462.936 
    4800    298.52056   -87720.989            0   -87489.506   -727.33764     71495.04 
    4850    305.22722   -87720.234            0   -87483.551    268.47572    71448.888 
    4900    298.71123   -87715.883            0   -87484.253     489.3159    71439.935 
    4950    299.44394   -87718.988            0   -87486.789   -845.10855    71477.285 
    5000     297.4499   -87720.217            0   -87489.565    306.27793    71441.525 
Loop time of 45.687 on 24 procs for 5000 steps with 6000 atoms

Performance: 18.911 ns/day, 1.269 hours/ns, 109.440 timesteps/s
99.6% CPU use with 24 MPI tasks x no OpenMP threads

MPI task timing breakdown:
Section |  min time  |  avg time  |  max time  |%varavg| %total
---------------------------------------------------------------
Pair    | 42.291     | 43.099     | 44.584     |   8.2 | 94.34
Bond    | 0.00066274 | 0.00096834 | 0.0016164  |   0.0 |  0.00
Neigh   | 0.0111     | 0.012022   | 0.013186   |   0.5 |  0.03
Comm    | 0.67567    | 1.7001     | 2.4402     |  35.0 |  3.72
Output  | 0.0045662  | 0.0047105  | 0.0063604  |   0.5 |  0.01
Modify  | 0.27397    | 0.76551    | 1.2596     |  46.5 |  1.68
Other   |            | 0.1044     |            |       |  0.23

Nlocal:    250 ave 266 max 229 min
Histogram: 1 4 1 2 2 1 3 2 5 3
Nghost:    5560.62 ave 5652 max 5455 min
Histogram: 1 3 3 2 2 2 1 3 3 4
Neighs:    93234.5 ave 100569 max 85438 min
Histogram: 1 3 2 3 5 1 1 0 5 3

Total # of neighbors = 2237629
Ave neighs/atom = 372.938
Ave special neighs/atom = 0
Neighbor list builds = 5
Dangerous builds = 4

unfix thermostat_fix1

fix thermostat_ramp all npt temp 300 $T ${THERMO_DAMP} aniso 0.0 0.0 ${BARO_DAMP}
fix thermostat_ramp all npt temp 300 2500 ${THERMO_DAMP} aniso 0.0 0.0 ${BARO_DAMP}
fix thermostat_ramp all npt temp 300 2500 0.1 aniso 0.0 0.0 ${BARO_DAMP}
fix thermostat_ramp all npt temp 300 2500 0.1 aniso 0.0 0.0 0.5

run ${rampsteps}
run 10000
Per MPI rank memory allocation (min/avg/max) = 7.075 | 7.597 | 8.086 Mbytes
Step Temp E_pair E_mol TotEng Press Volume 
    5000     297.4499   -87720.217            0   -87489.565    306.27793    71441.525 
    5050    296.98567   -87717.066            0   -87486.774   -385.06355    71474.072 
    5100    306.69692   -87716.002            0   -87478.179   -82.919709    71470.698 
    5150     313.9152   -87710.071            0   -87466.652    471.07563    71471.712 
    5200    325.39076   -87704.329            0    -87452.01   -1165.5755    71540.221 
    5250    330.60486   -87692.239            0   -87435.878    1937.4353    71444.962 
    5300    344.40155   -87684.614            0   -87417.554   -845.96186    71571.999 
    5350    358.07581   -87676.229            0   -87398.566    980.15521    71532.181 
    5400    372.98556   -87667.754            0    -87378.53     189.4009    71571.865 
    5450    378.72336   -87652.022            0   -87358.348   -2079.0406    71666.667 
    5500    387.16479   -87638.281            0   -87338.062    1023.9622    71605.147 
    5550    410.70741   -87636.048            0   -87317.573     155.2207    71672.815 
    5600    417.17453   -87621.307            0   -87297.817   -144.51187    71691.481 
    5650    440.77651   -87619.941            0   -87278.149    957.43691    71673.616 
    5700    443.00517   -87602.751            0   -87259.231   -1000.5112    71821.042 
    5750    455.01199   -87592.576            0   -87239.745    1257.4203    71761.895 
    5800    467.00103   -87584.092            0   -87221.965   -626.10546    71800.971 
    5850    475.31962   -87571.226            0   -87202.648   -1214.9948    71878.258 
    5900    488.50533    -87563.58            0   -87184.777    689.11549     71873.54 
    5950     508.7704   -87561.074            0   -87166.557   -148.11658    71878.853 
    6000    510.95574   -87545.691            0    -87149.48    775.86426    71861.882 
    6050    524.84565   -87538.441            0    -87131.46   -21.785444    71928.705 
    6100    533.04578   -87526.947            0   -87113.606    497.85098    71962.261 
    6150    540.23618   -87515.441            0   -87096.525    -1658.595    72039.488 
    6200    555.88809   -87509.377            0   -87078.323    1249.0242    71978.308 
    6250    575.36242   -87506.291            0   -87060.137    800.36489    72003.831 
    6300    582.13974   -87494.371            0   -87042.962   -516.33226    72052.853 
    6350    585.61975   -87480.283            0   -87026.175    57.988812    72086.456 
    6400    603.38938   -87476.078            0   -87008.191    -105.7183    72098.357 
    6450    615.36766   -87468.852            0   -86991.677   -266.21193    72123.794 
    6500    624.95995   -87458.906            0   -86974.292    1820.0236    72108.328 
    6550    635.03128   -87448.326            0   -86955.903   -2323.3921    72260.085 
    6600    638.62061   -87433.621            0   -86938.414    792.14087    72197.891 
    6650     658.3534   -87431.876            0   -86921.368    246.51445    72212.159 
    6700    658.93585   -87414.823            0   -86903.863   -1807.0093    72282.964 
    6750    681.48026   -87415.136            0   -86886.694    3131.2378    72118.082 
    6800    685.08437   -87400.592            0   -86869.356   -690.45865    72315.493 
    6850    693.05163   -87389.351            0   -86851.937   -418.59696    72317.696 
    6900    710.31044   -87385.878            0   -86835.081    820.71052    72288.034 
    6950    720.61298   -87375.885            0   -86817.099   -991.87729     72371.75 
    7000    736.71371   -87370.327            0   -86799.056      683.269    72306.887 
    7050    740.60574   -87357.041            0   -86782.752   -372.01481    72387.063 
    7100    745.44689   -87342.795            0   -86764.752   -1024.2278    72474.749 
    7150    762.46426   -87338.002            0   -86746.763    1587.2103    72361.183 
    7200    765.64227   -87323.634            0   -86729.931   -1109.1694    72478.777 
    7250    778.89323   -87314.943            0   -86710.965    1091.0762    72465.503 
    7300    793.18651   -87307.553            0   -86692.491    1735.4492    72468.355 
    7350    796.73399   -87293.236            0   -86675.423   -1626.5863    72595.232 
    7400    810.76552   -87285.355            0   -86656.661    3.9868907    72585.844 
    7450    828.91219   -87282.412            0   -86639.647    1716.5834     72520.83 
    7500    855.48565   -87285.186            0   -86621.815   -648.18606    72663.362 
    7550    856.59684   -87266.745            0   -86602.512    665.80299    72639.881 
    7600    868.02501   -87258.878            0   -86585.784    956.63819    72621.395 
    7650    862.69456   -87235.928            0   -86566.968   -248.35217    72700.701 
    7700    910.44586   -87254.523            0   -86548.535   -1628.8386    72746.335 
    7750    889.12028   -87221.461            0   -86532.009     918.6147    72706.994 
    7800    910.01307   -87219.395            0   -86513.742   -1376.1825    72776.972 
    7850    913.84718   -87203.406            0    -86494.78    892.83403     72722.36 
    7900    920.79631   -87192.204            0   -86478.189     195.4883    72833.023 
    7950    939.68365    -87187.45            0   -86458.789   -1073.8559      72820.3 
    8000     956.8467   -87182.742            0   -86440.772    1778.5639     72798.32 
    8050    964.66944   -87171.193            0   -86423.158   -3156.0874    72989.307 
    8100    972.04911     -87158.6            0   -86404.843   -345.23347    72944.441 
    8150    982.13652    -87147.68            0   -86386.101    1382.9927    72895.118 
    8200    998.97824   -87143.077            0   -86368.438    584.72596    72956.043 
    8250    1005.6973    -87130.08            0   -86350.231    2550.8517    72911.505 
    8300    1018.4713   -87123.058            0   -86333.303    -1194.954    73005.962 
    8350     1026.432   -87109.869            0   -86313.941   -121.41042    72995.039 
    8400    1030.5129   -87096.013            0   -86296.921    2264.2831    72935.791 
    8450    1047.9605   -87089.885            0   -86277.264   -1436.4671    73143.003 
    8500    1062.5428   -87083.243            0   -86259.314   -2457.7588    73186.947 
    8550    1067.3636   -87069.284            0   -86241.616     -1921.46    73195.972 
    8600    1085.9782   -87064.721            0   -86222.619     988.8021    73055.541 
    8650    1094.7988   -87053.841            0   -86204.899   -77.626615    73119.937 
    8700    1103.9816   -87043.443            0   -86187.381   -1193.2696    73188.319 
    8750    1099.6103   -87020.598            0   -86167.925   -1010.3588    73280.096 
    8800    1135.4916   -87029.338            0   -86148.842   -3828.1965    73397.688 
    8850    1124.4061   -87003.907            0   -86132.007    4661.2705    73112.465 
    8900    1149.7829   -87001.522            0   -86109.944   -1162.7593    73349.685 
    8950    1146.2224   -86981.574            0   -86092.757   -1608.3676      73379.3 
    9000    1169.4896   -86981.401            0   -86074.542    1119.0556    73294.499 
    9050    1179.9842   -86970.446            0   -86055.449    1458.1062    73344.282 
    9100    1205.9102   -86970.562            0   -86035.461    -2203.114    73449.247 
    9150     1203.627   -86952.311            0   -86018.981   -644.64006    73461.293 
    9200    1220.7484   -86944.956            0   -85998.349   -807.55787    73523.658 
    9250    1236.6352   -86939.889            0   -85980.963    440.16613    73472.052 
    9300    1250.9186   -86931.891            0   -85961.889   -405.66505    73521.792 
    9350    1259.3105   -86920.105            0   -85943.595   -862.24585    73564.522 
    9400    1250.4552   -86895.769            0   -85926.126    1507.0217    73561.254 
    9450    1262.5941   -86887.496            0   -85908.441    676.03551     73646.28 
    9500    1281.5176   -86885.059            0    -85891.33   -263.83114    73634.022 
    9550    1286.2194    -86868.66            0   -85871.285    3069.2344    73584.977 
    9600    1289.9956   -86855.274            0   -85854.971   -2448.2315    73771.696 
    9650    1309.6134   -86851.917            0   -85836.402    1960.7756    73619.263 
    9700     1330.362    -86849.48            0   -85817.875   -1360.3432    73737.112 
    9750    1310.7089   -86816.947            0   -85800.582   -1546.3189    73842.908 
    9800    1338.3405   -86818.354            0   -85780.563   -136.70821    73832.969 
    9850    1352.1071   -86809.114            0   -85760.648    3167.3384    73612.295 
    9900    1368.9893   -86804.893            0   -85743.336   -855.01676    73864.165 
    9950    1396.4574   -86803.732            0   -85720.875   -2473.2669    73944.238 
   10000     1378.264    -86773.35            0   -85704.601    1952.9229     73781.53 
   10050    1380.2843   -86756.444            0   -85686.128    352.34008    73925.596 
   10100    1418.3117   -86762.902            0   -85663.099   -607.48688    73976.279 
   10150    1432.0473   -86754.326            0   -85643.871   -793.61899    73938.455 
   10200    1426.0781   -86730.394            0   -85624.568    3411.1227    73870.533 
   10250    1433.7215   -86716.302            0   -85604.549      1989.51    73927.555 
   10300    1453.4965   -86714.617            0    -85587.53   -597.37929    74060.529 
   10350    1460.0047    -86703.06            0   -85570.926    602.23063    73960.355 
   10400    1470.5297   -86694.351            0   -85554.056   -395.49469    74063.772 
   10450    1490.9892   -86693.033            0   -85536.873    747.57697    74101.807 
   10500    1495.8769   -86680.129            0   -85520.179   -3932.8761    74259.809 
   10550    1491.2577   -86656.781            0   -85500.413    3719.9411    74021.834 
   10600    1514.1137   -86653.377            0   -85479.285   -3511.4846    74320.936 
   10650    1525.7842   -86642.211            0   -85459.069    2190.5832    74134.353 
   10700    1555.4662   -86642.283            0   -85436.125  -0.68996999    74187.919 
   10750    1561.6773   -86626.728            0   -85415.754    797.61468    74259.117 
   10800    1550.5375   -86601.325            0   -85398.989   -265.79529    74339.084 
   10850    1556.1191   -86584.539            0   -85377.875   -1109.8692    74377.894 
   10900    1590.4455   -86590.676            0   -85357.394    1325.8075    74324.888 
   10950    1574.4797   -86564.232            0   -85343.331    182.49585    74371.355 
   11000    1611.4053   -86567.072            0   -85317.538    1357.4326    74358.136 
   11050    1619.4324   -86559.596            0   -85303.837   -1936.5055    74477.044 
   11100    1643.4467   -86557.289            0   -85282.908    1826.1598    74370.105 
   11150    1655.5315   -86548.641            0    -85264.89   -1760.1568      74568.7 
   11200    1661.9244   -86537.119            0    -85248.41   -375.30356    74531.952 
   11250     1668.351       -86521            0   -85227.308     939.4304    74450.323 
   11300    1674.6396    -86507.03            0   -85208.462    513.27563    74581.598 
   11350    1681.1549   -86490.626            0   -85187.006   -2719.7763    74726.898 
   11400     1673.378   -86467.704            0   -85170.114    636.06918    74637.524 
   11450    1707.1393   -86472.225            0   -85148.455    1301.6349    74660.034 
   11500     1739.657   -86479.026            0   -85130.041    433.16027    74648.436 
   11550    1709.7604   -86439.682            0    -85113.88    2127.4241    74718.748 
   11600    1725.3836   -86425.919            0   -85088.002    764.99581    74862.854 
   11650    1754.7584   -86427.524            0   -85066.829   -2078.7716    74881.965 
   11700    1771.0472   -86419.051            0   -85045.725    3722.2893    74758.016 
   11750    1779.7402   -86399.549            0   -85019.482   -1521.9827    74892.801 
   11800    1798.6833   -86396.416            0    -85001.66    890.71444    74879.093 
   11850    1800.4697   -86383.472            0   -84987.331     2839.379    74783.303 
   11900    1771.3468   -86345.547            0   -84971.989     494.1149     74967.34 
   11950    1833.8473    -86369.55            0   -84947.527   -576.20651      74950.6 
   12000    1818.1669    -86343.15            0   -84933.286    2135.0089    74937.726 
   12050    1853.2816   -86345.412            0   -84908.319    1263.4406    75023.228 
   12100    1850.1051     -86315.3            0    -84880.67   -2257.5101    75149.255 
   12150    1842.1838    -86289.46            0   -84860.972    146.85042     75116.42 
   12200    1898.1512   -86308.218            0   -84836.332    2036.1431    75084.138 
   12250    1888.8794   -86284.386            0   -84819.689    2354.7065    75096.533 
   12300    1889.0316   -86270.445            0    -84805.63    1278.8284    75195.014 
   12350    1922.3054   -86274.634            0   -84784.017   -873.61635    75196.777 
   12400    1922.2698   -86266.942            0   -84776.354    1273.8671    75180.336 
   12450    1908.0467   -86236.049            0   -84756.489    881.86254    75350.318 
   12500    1916.5221   -86219.911            0   -84733.779   -692.98655    75379.369 
   12550    1971.1295   -86240.591            0   -84712.114   -1135.7184    75363.904 
   12600    1963.2917    -86206.77            0   -84684.372    813.38024     75320.66 
   12650    1996.4802   -86212.667            0   -84664.533    298.24288     75355.81 
   12700    1987.3198   -86192.067            0   -84651.036    422.54014    75401.076 
   12750    1995.7714   -86172.232            0   -84624.648    2121.3254    75381.555 
   12800    1990.0607   -86149.843            0   -84606.687   -1090.0787    75587.616 
   12850    2013.3038   -86154.314            0   -84593.134    -59.80732      75527.6 
   12900    2039.1225   -86145.938            0   -84564.737    1499.2289    75425.036 
   12950    2058.3311   -86145.118            0   -84549.023    2453.0295    75447.123 
   13000    2039.6232   -86111.329            0   -84529.741   -3982.0548    75801.144 
   13050    2053.4794   -86100.316            0   -84507.983   -669.83675    75732.922 
   13100    2070.1155   -86098.808            0   -84493.575   -337.19622    75706.583 
   13150    2094.1664   -86088.599            0   -84464.717    6625.6178    75416.029 
   13200    2103.6435   -86066.305            0   -84435.073    -3883.632    75869.027 
   13250    2116.0804   -86052.478            0   -84411.602   -948.53002    75813.859 
   13300    2145.9187   -86053.048            0   -84389.034    1180.8831     75738.58 
   13350    2143.2873   -86032.638            0   -84370.665    737.38176    75840.871 
   13400    2148.9853   -86014.457            0   -84348.065    541.66029     75827.47 
   13450    2150.1182   -85990.807            0   -84323.537    1875.6103    75952.226 
   13500    2137.5324   -85965.747            0   -84308.237   -298.66955    75907.793 
   13550    2205.7865   -85981.387            0   -84270.951   -1434.2582    75963.315 
   13600    2181.1939   -85940.827            0    -84249.46    2414.7925    75958.553 
   13650    2198.6072   -85923.867            0   -84218.998    507.85376    76089.044 
   13700    2194.4612   -85904.968            0   -84203.313   -2488.2393    76095.697 
   13750    2192.1154    -85896.38            0   -84196.544   -820.40026    76129.671 
   13800    2236.1725   -85907.874            0   -84173.875    2910.0238    76076.625 
   13850     2231.273   -85863.523            0   -84133.323   -777.87745    76118.236 
   13900    2286.4299   -85894.087            0   -84121.117    2568.1796    76044.399 
   13950    2263.9481   -85845.865            0   -84090.328   -517.03489    76168.055 
   14000    2276.3337   -85819.683            0   -84054.542    3372.7583     76120.45 
   14050    2291.0116   -85804.797            0   -84028.274   -902.71365    76242.242 
   14100    2323.2833   -85798.298            0    -83996.75   -3245.9913    76396.638 
   14150    2290.1644    -85750.39            0   -83974.524   -1437.4545    76329.815 
   14200    2302.5206   -85734.678            0   -83949.231    440.61208    76323.156 
   14250    2313.5254   -85718.379            0   -83924.399    649.11061    76290.941 
   14300    2352.8675   -85722.183            0   -83897.695   -2341.7441    76391.019 
   14350    2314.5896   -85667.048            0   -83872.242    1940.4792      76271.3 
   14400    2334.3082   -85656.097            0   -83846.001    3645.9891    76239.688 
   14450    2347.8148   -85639.567            0   -83818.997   -3223.3886    76566.254 
   14500    2376.1117   -85635.632            0   -83793.119    880.27369    76478.369 
   14550    2387.4853   -85618.765            0   -83767.434   -6188.6691    76664.157 
   14600    2397.2708   -85593.524            0   -83734.604    3040.8974    76376.564 
   14650    2398.8365   -85571.832            0   -83711.698   -3215.3881    76657.655 
   14700    2420.9173    -85579.81            0   -83702.554    2407.5695    76415.118 
   14750     2425.421    -85555.02            0   -83674.272    3808.8638    76395.439 
   14800    2470.3066   -85563.619            0   -83648.065   -929.92382    76463.863 
   14850    2422.2581   -85508.493            0   -83630.198   -768.44524    76655.579 
   14900    2450.9692   -85492.251            0   -83591.692    753.76886    76559.345 
   14950    2472.4249   -85478.711            0   -83561.515    1609.8009     76549.58 
   15000    2485.0915   -85462.172            0   -83535.153    -602.7048    76632.578 
Loop time of 90.8721 on 24 procs for 10000 steps with 6000 atoms

Performance: 19.016 ns/day, 1.262 hours/ns, 110.045 timesteps/s
99.6% CPU use with 24 MPI tasks x no OpenMP threads

MPI task timing breakdown:
Section |  min time  |  avg time  |  max time  |%varavg| %total
---------------------------------------------------------------
Pair    | 83.383     | 84.548     | 86.753     |   8.4 | 93.04
Bond    | 0.0013973  | 0.0019313  | 0.0030874  |   1.2 |  0.00
Neigh   | 1.1767     | 1.2344     | 1.2901     |   3.2 |  1.36
Comm    | 1.6754     | 3.3775     | 4.3146     |  38.5 |  3.72
Output  | 0.0092817  | 0.0094786  | 0.011775   |   0.5 |  0.01
Modify  | 0.87972    | 1.5346     | 2.2073     |  43.4 |  1.69
Other   |            | 0.1659     |            |       |  0.18

Nlocal:    250 ave 261 max 238 min
Histogram: 1 1 3 6 1 3 3 2 1 3
Nghost:    5032.92 ave 5077 max 4971 min
Histogram: 2 0 2 1 3 4 4 1 4 3
Neighs:    88626.4 ave 94888 max 82240 min
Histogram: 3 1 2 2 5 1 3 3 1 3

Total # of neighbors = 2127033
Ave neighs/atom = 354.505
Ave special neighs/atom = 0
Neighbor list builds = 531
Dangerous builds = 75

unfix thermostat_ramp

fix thermostat_eq all npt temp $T $T ${THERMO_DAMP} aniso 0.0 0.0 ${BARO_DAMP}
fix thermostat_eq all npt temp 2500 $T ${THERMO_DAMP} aniso 0.0 0.0 ${BARO_DAMP}
fix thermostat_eq all npt temp 2500 2500 ${THERMO_DAMP} aniso 0.0 0.0 ${BARO_DAMP}
fix thermostat_eq all npt temp 2500 2500 0.1 aniso 0.0 0.0 ${BARO_DAMP}
fix thermostat_eq all npt temp 2500 2500 0.1 aniso 0.0 0.0 0.5

variable AVE_START equal 20000
variable V equal vol
variable LX equal lx
variable LY equal ly
variable LZ equal lz
fix avg_V_fix all ave/time 1 1000 1000 v_V start ${AVE_START}
fix avg_V_fix all ave/time 1 1000 1000 v_V start 20000
fix avg_LX_fix all ave/time 1 1000 1000 v_LX start ${AVE_START}
fix avg_LX_fix all ave/time 1 1000 1000 v_LX start 20000
fix avg_LY_fix all ave/time 1 1000 1000 v_LY start ${AVE_START}
fix avg_LY_fix all ave/time 1 1000 1000 v_LY start 20000
fix avg_LZ_fix all ave/time 1 1000 1000 v_LZ start ${AVE_START}
fix avg_LZ_fix all ave/time 1 1000 1000 v_LZ start 20000

variable AVG_V equal f_avg_V_fix
variable AVG_LX equal f_avg_LX_fix
variable AVG_LY equal f_avg_LY_fix
variable AVG_LZ equal f_avg_LZ_fix

variable VOL equal ${AVG_V}
variable VOL equal 0
variable LP equal (${VOL}/(4*4*${zunits}))^(1/3)
variable LP equal (0/(4*4*${zunits}))^(1/3)
variable LP equal (0/(4*4*20))^(1/3)

print "OUTPUT:${AVG_V}:${AVG_LX}:${AVG_LY}:${AVG_LZ}:${LP}"
OUTPUT:0:0:0:0:0

unfix avg_V_fix
unfix avg_LX_fix
unfix avg_LY_fix
unfix avg_LZ_fix

run ${equilsteps}
run 10000
Per MPI rank memory allocation (min/avg/max) = 7.075 | 7.629 | 8.086 Mbytes
Step Temp E_pair E_mol TotEng Press Volume 
   15000    2485.0915   -85462.172            0   -83535.153    -602.7048    76632.578 
   15050    2431.7834   -85398.577            0   -83512.895    143.95664    76670.749 
   15100    2561.8341   -85465.315            0   -83478.788    1486.9201    76512.073 
   15150    2491.0345   -85414.006            0   -83482.379   -526.39717     76657.11 
   15200    2531.4891   -85448.515            0   -83485.518   -2168.3216     76564.52 
   15250     2501.989   -85440.765            0   -83500.643    1075.7416    76400.292 
   15300    2472.1172   -85435.585            0   -83518.627    3617.0839    76446.491 
   15350    2456.5897   -85449.946            0   -83545.029   -3396.1218    76530.497 
   15400    2475.1157    -85497.38            0   -83578.097    499.22413    76302.938 
   15450    2439.5331   -85460.956            0   -83569.265    92.530297    76374.573 
   15500    2484.3606    -85442.02            0   -83515.568   -1275.6536    76492.469 
   15550    2507.5821   -85432.624            0   -83488.165   -685.95621    76494.658 
   15600     2508.623   -85411.082            0   -83465.816   -445.75744    76585.946 
   15650    2515.1456    -85397.98            0   -83447.657    -1850.926    76512.442 
   15700    2492.9225   -85388.607            0   -83455.516    2371.3328    76375.384 
   15750    2466.7035   -85411.327            0   -83498.567   -2434.0347    76599.112 
   15800    2506.9918   -85460.186            0   -83516.185    1471.5101    76275.471 
   15850    2502.1244   -85443.172            0   -83502.946    337.96513    76355.606 
   15900     2529.789   -85406.777            0   -83445.098   -4070.3199    76607.975 
   15950    2518.1224   -85392.659            0   -83440.028    1339.1451    76469.387 
   16000    2489.1215   -85394.286            0   -83464.143    319.63719    76629.513 
   16050    2474.1705   -85412.961            0   -83494.411    2462.2943     76447.29 
   16100    2460.4868   -85407.941            0   -83500.002   -1107.5658    76515.545 
   16150    2523.3185   -85445.046            0   -83488.385    799.52395    76391.957 
   16200     2479.794   -85405.298            0   -83482.387   -2249.1152    76545.759 
   16250     2488.285   -85386.459            0   -83456.965   -1946.0681    76506.142 
   16300    2534.4456    -85415.66            0   -83450.371    1902.3871    76351.323 
   16350    2502.4936    -85423.26            0   -83482.748   -4392.8947    76554.702 
   16400    2458.3302   -85433.284            0   -83527.017    4919.1458    76185.676 
   16450    2431.9205   -85435.028            0    -83549.24    1238.1959    76290.307 
   16500    2510.4913   -85437.565            0   -83490.851   -2342.2773    76390.015 
   16550    2473.3777   -85375.263            0   -83457.328    614.31123    76405.957 
   16600    2524.8929   -85414.019            0   -83456.137    401.58821    76357.096 
   16650    2511.0303   -85428.497            0   -83481.364   -1805.3731    76438.267 
   16700    2469.9004   -85423.963            0   -83508.724    2226.7653    76262.731 
   16750    2485.9985   -85435.669            0   -83507.947    1492.8181    76286.635 
   16800    2518.7633   -85403.792            0   -83450.663   -1465.1451    76453.883 
   16850    2528.6642   -85388.581            0   -83427.775    2083.4094    76412.362 
   16900    2523.9789   -85398.134            0   -83440.961   -3015.2658    76525.556 
   16950    2529.3114   -85429.479            0   -83468.171    1205.3055    76244.752 
   17000    2451.4184   -85403.021            0   -83502.114   -2148.9278    76452.018 
   17050    2438.9227   -85421.484            0   -83530.266    1240.3971      76214.9 
   17100    2481.7473   -85440.586            0   -83516.161   -1542.4044    76376.817 
   17150    2546.0856   -85441.504            0   -83467.189   -2386.5915    76460.268 
   17200    2506.4456   -85388.813            0   -83445.236    775.03421    76461.158 
   17250    2545.8597   -85410.934            0   -83436.794   -2444.6791    76564.946 
   17300    2478.2326   -85394.412            0   -83472.712   -1285.5804    76501.521 
   17350    2475.3313   -85430.769            0   -83511.319   -296.17852    76445.439 
   17400    2480.3456   -85437.795            0   -83514.457   -1444.9493    76462.789 
   17450    2519.1652   -85451.569            0   -83498.128    280.42002    76457.732 
   17500     2520.063   -85411.424            0   -83457.288   -1305.6627    76410.132 
   17550    2562.3578   -85420.542            0   -83433.609    662.25367    76459.742 
   17600    2513.2264   -85394.211            0   -83445.376   -1430.3342    76557.085 
   17650    2480.7074   -85386.974            0   -83463.355    665.49463    76326.611 
   17700     2510.885   -85433.191            0   -83486.171   -2271.4714    76449.446 
   17750    2457.4955   -85432.009            0   -83526.389    -2354.418    76456.839 
   17800    2442.2683   -85428.451            0   -83534.639     78.86878    76443.245 
   17850    2534.5013   -85434.133            0     -83468.8   -668.32213    76402.936 
   17900    2511.0611   -85403.211            0   -83456.055   -3154.7097    76561.788 
   17950    2543.0713   -85430.501            0   -83458.523   -260.75734    76375.169 
   18000    2514.5315   -85434.965            0   -83485.118   -2655.2771    76419.027 
   18050    2472.4021   -85437.143            0   -83519.964    680.85119    76324.413 
   18100    2447.1536   -85429.372            0   -83531.772   -848.09302    76391.087 
   18150    2481.8696   -85412.893            0   -83488.373    1966.6485    76288.972 
   18200    2532.5509   -85416.338            0   -83452.518    -2902.552    76541.253 
   18250    2465.2853   -85367.327            0   -83455.667   -665.16288    76588.116 
   18300     2521.216   -85421.154            0   -83466.123    5043.7309    76248.194 
   18350    2454.6129   -85413.868            0   -83510.484   -2191.7325     76656.83 
   18400    2450.6623   -85413.621            0     -83513.3    5839.8889     76134.88 
   18450    2502.7725   -85415.434            0   -83474.705     -2311.43    76490.307 
   18500    2488.1126    -85389.41            0   -83460.049    2895.3302    76368.036 
   18550    2499.6378   -85393.592            0   -83455.294    1651.8686    76466.243 
   18600    2538.8239   -85411.237            0   -83442.553    512.85553    76419.889 
   18650    2486.8143   -85401.419            0   -83473.065    779.67686    76342.887 
   18700    2462.9502   -85421.389            0   -83511.539   -1209.6945    76449.611 
   18750    2468.3409   -85420.083            0   -83506.054    2402.4937    76268.622 
   18800    2481.7791   -85394.476            0   -83470.026    1105.5837    76457.363 
   18850    2520.9752   -85396.285            0   -83441.441   -1325.9944    76534.683 
   18900    2474.8897   -85363.987            0   -83444.879    2333.2874    76374.551 
   18950    2486.2081   -85391.685            0     -83463.8   -1612.2056    76515.437 
   19000    2523.0238    -85433.23            0   -83476.798     327.6016    76474.704 
   19050    2481.3205   -85436.995            0     -83512.9   -719.77517    76487.011 
   19100    2452.3241    -85449.48            0    -83547.87     2536.873    76168.017 
   19150    2465.0907   -85441.496            0   -83529.986   -2112.7804    76435.578 
   19200    2463.9932   -85377.639            0    -83466.98    619.07337    76413.501 
   19250    2505.0417   -85396.192            0   -83453.703    3276.7053     76326.83 
   19300    2493.4348   -85395.858            0    -83462.37   -3955.4152    76664.099 
   19350    2511.0668    -85421.88            0   -83474.719    4336.6714     76303.69 
   19400    2473.4666   -85429.155            0   -83511.151   -288.42528    76499.009 
   19450    2454.8368   -85405.335            0   -83501.777    1047.7917    76342.532 
   19500    2522.2976   -85411.377            0   -83455.508    3076.4641    76339.875 
   19550    2514.6614   -85396.211            0   -83446.263    -2698.239    76584.524 
   19600    2548.3369   -85428.076            0   -83452.015    2710.5297    76308.798 
   19650    2517.3044   -85426.493            0   -83474.496   -1587.7837    76459.102 
   19700    2501.1955   -85424.364            0   -83484.858   -578.58305    76357.568 
   19750    2507.2688   -85425.387            0   -83481.172    620.12043    76323.727 
   19800    2497.0396   -85418.203            0   -83481.919   -788.08297    76441.895 
   19850    2472.9949   -85420.328            0   -83502.689    2546.1934     76387.51 
   19900    2441.6526   -85400.787            0   -83507.452    1195.1148    76450.956 
   19950    2520.1566   -85430.218            0   -83476.009   -1171.1546    76469.803 
   20000    2504.4581   -85383.524            0   -83441.488     923.3523    76463.894 
   20050    2552.3585    -85406.78            0     -83427.6   -3969.0478    76538.224 
   20100    2514.7715   -85405.205            0   -83455.172    3470.8704    76385.409 
   20150     2471.134   -85409.478            0   -83493.282   -437.53316     76584.15 
   20200    2500.6558   -85435.512            0   -83496.424    2905.9641    76262.743 
   20250    2475.6569   -85417.707            0   -83498.004    -954.0035    76377.752 
   20300    2523.0104   -85430.908            0   -83474.486    597.48644    76374.978 
   20350    2526.1235   -85401.534            0   -83442.698   -1506.6396    76510.064 
   20400    2496.7993   -85382.584            0   -83446.487    4414.7134    76398.533 
   20450    2538.6205   -85468.598            0   -83500.071   -5930.5155    76502.353 
   20500    2468.4904   -85433.897            0   -83519.752     4679.927    76236.608 
   20550    2487.8597   -85424.419            0   -83495.254    85.243659    76472.901 
   20600    2477.6957   -85392.686            0   -83471.403    4211.1352    76302.568 
   20650    2485.6497    -85387.53            0   -83460.079   -3325.4794     76627.63 
   20700    2510.3985   -85404.254            0   -83457.611     4277.975    76262.374 
   20750    2498.9183   -85395.043            0   -83457.303   -4884.5807    76615.351 
   20800    2542.8122   -85405.251            0   -83433.474    4681.1685    76359.481 
   20850    2492.7461   -85378.181            0   -83445.227    488.67589    76520.762 
   20900    2512.7029   -85419.285            0   -83470.856    529.06037    76443.843 
   20950    2524.4758   -85436.669            0   -83479.111    253.48039    76421.474 
   21000    2507.1039   -85432.883            0   -83488.795    92.563808    76499.923 
   21050    2527.9756   -85426.934            0   -83466.662    756.40714    76471.352 
   21100     2481.496   -85359.581            0    -83435.35   -473.08968    76515.405 
   21150    2514.3442   -85368.721            0   -83419.019    263.43943     76559.55 
   21200     2535.004   -85395.089            0   -83429.367   -2436.4755    76605.989 
   21250    2501.3969   -85431.583            0   -83491.921     1591.984    76370.558 
   21300    2464.9819   -85420.309            0   -83508.884   -563.03703    76453.125 
   21350    2510.8564   -85448.198            0   -83501.201   -1038.9134     76463.78 
   21400    2517.9958   -85423.299            0   -83470.766   -513.62366    76471.563 
   21450    2562.5468   -85427.946            0   -83440.867    1026.6686    76414.881 
   21500     2459.845   -85385.802            0    -83478.36   -484.38696    76571.938 
   21550    2500.0099   -85433.124            0   -83494.537   -218.99059    76348.868 
   21600    2479.4041   -85419.668            0   -83497.059   -1043.4024     76360.53 
   21650    2485.0256     -85430.4            0   -83503.432   -185.86979    76445.717 
   21700    2507.0174   -85425.905            0   -83481.885    1022.4293    76325.843 
   21750    2543.3339   -85409.644            0   -83437.463    305.56634    76491.636 
   21800    2537.8651   -85405.603            0   -83437.662    -1960.629    76505.726 
   21850     2502.654   -85414.828            0   -83474.191    2214.1653    76417.187 
   21900    2507.2847   -85440.571            0   -83496.343   -4636.2719     76516.78 
   21950    2510.6113   -85440.699            0   -83493.891    2941.9807    76300.171 
   22000    2490.4139   -85422.626            0    -83491.48    157.95055    76453.956 
   22050    2499.3266   -85409.272            0   -83471.215   -1206.4349    76393.718 
   22100    2517.7936   -85393.401            0   -83441.024    3954.3287    76304.181 
   22150    2539.8452   -85382.801            0   -83413.325   -3148.8559    76594.137 
   22200    2520.7191   -85374.502            0   -83419.856    5663.1137    76337.256 
   22250    2447.6534   -85371.105            0   -83473.117   -3891.9989    76659.717 
   22300    2485.1702   -85401.515            0   -83474.436     3613.856    76292.837 
   22350    2519.3365     -85437.7            0   -83484.127   -766.88196    76389.673 
   22400    2526.1888   -85473.507            0   -83514.621   -2631.2644    76422.032 
   22450    2479.4627   -85479.173            0   -83556.519    4235.7563    76282.609 
   22500    2484.3259   -85473.247            0   -83546.822   -3662.7779    76465.821 
   22550    2494.4927   -85439.009            0     -83504.7     2807.433    76235.746 
   22600    2460.6714   -85401.028            0   -83492.946   -2147.6687    76528.537 
   22650     2522.733    -85439.77            0   -83483.563    339.22667     76371.41 
   22700    2498.1883   -85429.848            0   -83492.674    1508.3431    76380.215 
   22750     2492.196   -85469.712            0   -83537.184   -680.68126    76471.973 
   22800    2447.8928   -85452.835            0   -83554.662   -735.09993    76420.856 
   22850    2497.7634   -85455.682            0   -83518.837    2751.5545     76396.75 
   22900    2505.9166   -85442.549            0   -83499.382    -3194.871    76667.173 
   22950    2528.2886    -85445.91            0   -83485.395    1429.0056    76382.878 
   23000    2529.4792   -85450.796            0   -83489.358   -2309.7033    76545.627 
   23050    2503.3719    -85455.14            0   -83513.947   -2750.2725    76638.054 
   23100    2487.3537   -85473.494            0   -83544.722    3800.8304    76290.235 
   23150    2468.0609   -85439.212            0   -83525.399   -2302.1206     76585.92 
   23200     2465.532   -85382.595            0   -83470.744    4889.5948    76381.414 
   23250    2487.1352   -85393.559            0   -83464.956    -4699.732    76702.462 
   23300    2508.0998   -85428.517            0   -83483.657    3341.9064    76352.836 
   23350    2496.1775   -85458.564            0   -83522.949   -2465.0551    76434.334 
   23400    2473.5534   -85456.541            0    -83538.47    1081.5177    76415.431 
   23450    2528.9451   -85488.954            0    -83527.93    1948.1325    76223.468 
   23500    2470.9486    -85424.19            0   -83508.139   -1812.8021    76449.229 
   23550      2478.93   -85412.185            0   -83489.945    1516.8605    76427.831 
   23600    2500.6829    -85404.05            0   -83464.942    2352.7752    76422.197 
   23650     2497.369   -85383.247            0   -83446.708    3537.2195    76442.672 
   23700    2539.1332   -85418.925            0   -83450.001   -1109.4492    76525.848 
   23750    2490.5638   -85418.469            0   -83487.207    955.44702      76434.9 
   23800    2471.3143   -85443.057            0   -83526.722   -1230.2299    76454.759 
   23850    2480.8188   -85443.029            0   -83519.324   -1445.2295    76408.258 
   23900    2525.5893   -85455.972            0    -83497.55   -1320.7913    76445.292 
   23950    2485.0988   -85419.901            0   -83492.877    877.89635    76471.742 
   24000     2489.158     -85416.5            0   -83486.328   -640.71282    76430.063 
   24050     2469.597   -85390.418            0   -83475.414   -340.21039    76442.604 
   24100    2580.6286   -85426.133            0   -83425.032    248.46263    76504.776 
   24150    2548.9354   -85418.431            0   -83441.906   -405.27591    76469.727 
   24200    2537.4793   -85450.622            0   -83482.981   -353.53946    76425.562 
   24250    2492.0137   -85435.206            0   -83502.819    888.85037    76507.552 
   24300    2484.2076   -85428.789            0   -83502.456   -686.58433    76467.188 
   24350    2512.3212   -85418.101            0   -83469.968    206.21268    76358.495 
   24400    2501.0012   -85374.341            0   -83434.986   -609.79979    76590.382 
   24450    2555.5827   -85377.835            0   -83396.156    971.77231    76592.732 
   24500    2523.3934   -85342.063            0   -83385.344    2611.1081    76470.758 
   24550     2495.856   -85375.148            0   -83439.783   -1559.8868    76621.488 
   24600    2515.8779   -85426.147            0   -83475.256    5713.2132     76296.01 
   24650    2502.5117   -85442.883            0   -83502.356    -5599.487    76500.043 
   24700    2472.7802   -85427.805            0   -83510.334    1524.5668    76357.927 
   24750    2505.3713   -85412.829            0   -83470.085   -660.89391    76533.944 
   24800    2495.9209   -85372.684            0   -83437.268    685.87298    76412.286 
   24850    2524.0076   -85403.393            0   -83446.198    -1938.279    76591.805 
   24900    2461.3194   -85375.221            0   -83466.636    1828.8149    76550.167 
   24950    2496.5052   -85430.641            0   -83494.772    2599.1578    76273.644 
   25000    2469.7984   -85457.593            0   -83542.433   -3481.0661    76457.317 
Loop time of 88.5265 on 24 procs for 10000 steps with 6000 atoms

Performance: 19.520 ns/day, 1.230 hours/ns, 112.961 timesteps/s
99.6% CPU use with 24 MPI tasks x no OpenMP threads

MPI task timing breakdown:
Section |  min time  |  avg time  |  max time  |%varavg| %total
---------------------------------------------------------------
Pair    | 80.996     | 81.828     | 83.432     |   7.0 | 92.43
Bond    | 0.0013464  | 0.0019144  | 0.0030674  |   1.2 |  0.00
Neigh   | 2.0189     | 2.0861     | 2.1442     |   2.4 |  2.36
Comm    | 1.8985     | 3.1789     | 3.8268     |  30.9 |  3.59
Output  | 0.0092563  | 0.0094615  | 0.011735   |   0.5 |  0.01
Modify  | 0.84302    | 1.2824     | 1.8032     |  30.6 |  1.45
Other   |            | 0.1394     |            |       |  0.16

Nlocal:    250 ave 264 max 239 min
Histogram: 2 0 4 3 7 3 2 1 1 1
Nghost:    5061.88 ave 5157 max 4997 min
Histogram: 2 3 5 3 5 2 0 0 2 2
Neighs:    88866.3 ave 92385 max 84486 min
Histogram: 2 1 1 2 2 5 4 3 1 3

Total # of neighbors = 2132791
Ave neighs/atom = 355.465
Ave special neighs/atom = 0
Neighbor list builds = 893
Dangerous builds = 220

unfix thermostat_eq

fix thermostat_nvt all nvt temp ${T} ${T} ${THERMO_DAMP}
fix thermostat_nvt all nvt temp 2500 ${T} ${THERMO_DAMP}
fix thermostat_nvt all nvt temp 2500 2500 ${THERMO_DAMP}
fix thermostat_nvt all nvt temp 2500 2500 0.1

run ${equilsteps}
run 10000
Per MPI rank memory allocation (min/avg/max) = 7.075 | 7.629 | 8.086 Mbytes
Step Temp E_pair E_mol TotEng Press 
   25000    2469.7984   -85457.593            0   -83542.433   -3481.0661 
   25050    2469.3949   -85435.057            0    -83520.21   -957.36541 
   25100    2497.2686   -85412.356            0   -83475.895    2008.2617 
   25150    2520.8152   -85421.416            0   -83466.696    54.233632 
   25200    2501.0878    -85422.99            0   -83483.567    2611.0485 
   25250    2465.8195   -85421.371            0   -83509.297    2776.0369 
   25300    2492.7569   -85454.526            0   -83521.564    544.01713 
   25350    2496.7074   -85461.385            0   -83525.359   -1409.7232 
   25400    2534.4242   -85469.311            0   -83504.038   -1521.1412 
   25450    2515.3969    -85428.71            0   -83478.192    1441.8261 
   25500     2509.587   -85426.787            0   -83480.774    1319.3847 
   25550     2469.944     -85440.1            0   -83524.827   -324.38285 
   25600    2473.2404   -85463.353            0   -83545.524   -2439.0097 
   25650    2503.8284   -85465.163            0   -83523.615   -4727.8252 
   25700    2518.8351   -85453.464            0   -83500.279   -1263.6364 
   25750    2473.4943   -85411.307            0   -83493.282    47.815759 
   25800      2486.51    -85402.43            0   -83474.311   -713.93456 
   25850    2509.2453   -85399.178            0    -83453.43    1049.5818 
   25900    2525.2106   -85404.698            0   -83446.569     2619.679 
   25950    2476.5208   -85395.087            0   -83474.715    1681.4731 
   26000    2472.6598   -85424.208            0   -83506.829   -174.37687 
   26050    2478.5537   -85430.216            0   -83508.268    1264.2445 
   26100    2491.3086   -85402.071            0   -83470.232    609.55844 
   26150    2578.0884   -85437.755            0   -83438.624    26.366906 
   26200    2492.6878    -85396.25            0   -83463.341   -1922.8372 
   26250    2502.7665   -85411.707            0   -83470.983   -564.34359 
   26300    2476.2437     -85400.7            0   -83480.542    288.58983 
   26350    2491.8076   -85445.273            0   -83513.046   -2742.5731 
   26400    2467.9278   -85466.223            0   -83552.513   -2605.1027 
   26450    2485.8355   -85460.186            0    -83532.59    -2407.532 
   26500     2504.696    -85425.67            0    -83483.45   -3090.6787 
   26550     2530.188   -85437.657            0   -83475.669   -1897.9012 
   26600    2460.5626   -85397.822            0   -83489.824   -3623.3578 
   26650    2473.9774   -85405.703            0   -83487.303     491.7409 
   26700     2516.784   -85394.498            0   -83442.904    961.42548 
   26750     2533.723   -85393.526            0   -83428.797   -1395.8789 
   26800    2462.8588   -85360.821            0   -83451.042   -138.43537 
   26850    2490.5933   -85411.838            0   -83480.554   -3508.0352 
   26900      2452.66   -85447.079            0   -83545.209    -6648.906 
   26950    2449.3074   -85455.524            0   -83556.253   -3230.3159 
   27000    2477.8504   -85436.038            0   -83514.635   -3435.7295 
   27050    2471.6148     -85390.5            0   -83473.932    1001.4567 
   27100    2521.2923   -85408.829            0   -83453.739   -386.73695 
   27150    2515.1979   -85410.663            0   -83460.299   -1665.1394 
   27200    2517.1804   -85439.056            0   -83487.155    335.81076 
   27250    2467.2861   -85444.419            0   -83531.208   -4080.9518 
   27300    2514.5558   -85462.062            0   -83512.196   -2329.9435 
   27350    2490.3354   -85419.355            0    -83488.27    936.49103 
   27400    2490.6877   -85405.754            0   -83474.396   -1606.9278 
   27450    2543.4135   -85446.664            0   -83474.421   -997.39575 
   27500    2486.3665   -85421.325            0   -83493.318   -1325.9999 
   27550     2501.809   -85435.586            0   -83495.604   -2221.8336 
   27600    2503.1605   -85429.919            0   -83488.889   -4256.6043 
   27650    2487.7739   -85414.304            0   -83485.206   -1781.2902 
   27700    2543.3947   -85428.558            0    -83456.33   -946.76736 
   27750     2544.647   -85390.319            0    -83417.12    491.10395 
   27800    2503.9046   -85387.546            0   -83445.939   -25.494817 
   27850    2479.1991   -85401.211            0   -83478.762   -1068.9896 
   27900    2501.7312   -85421.665            0   -83481.743    -3055.199 
   27950    2486.5533   -85426.905            0   -83498.753    1534.6131 
   28000    2462.1018   -85433.595            0   -83524.403    -1009.988 
   28050    2462.4339   -85427.304            0   -83517.855   -742.14887 
   28100    2522.3258   -85431.244            0   -83475.353    824.46922 
   28150    2541.9352   -85424.562            0   -83453.465    2448.1584 
   28200    2530.0489   -85443.059            0   -83481.179   -721.20174 
   28250    2502.2298   -85458.943            0   -83518.635   -852.30239 
   28300     2466.145   -85424.283            0   -83511.956    1928.8576 
   28350    2513.1135   -85437.202            0   -83488.455    340.14226 
   28400    2550.5541   -85452.724            0   -83474.944    1049.3633 
   28450    2502.4767   -85422.915            0   -83482.415    3017.4538 
   28500    2469.6382   -85447.533            0   -83532.497   -333.38635 
   28550    2473.7191   -85448.279            0   -83530.079   -243.86385 
   28600    2497.0517   -85422.011            0   -83485.718    2396.3163 
   28650    2516.9602    -85417.51            0    -83465.78   -30.724645 
   28700    2499.5121   -85392.029            0   -83453.828    1291.3739 
   28750     2497.759   -85409.758            0   -83472.917    114.75795 
   28800    2472.5545   -85433.873            0   -83516.576    348.68853 
   28850    2484.4496   -85477.929            0   -83551.409   -4378.0596 
   28900    2439.4333   -85450.179            0   -83558.565   -2033.4079 
   28950    2464.1009   -85405.803            0   -83495.061    695.24901 
   29000    2494.6939   -85397.855            0    -83463.39    2019.1061 
   29050     2502.278   -85384.056            0    -83443.71    2544.1051 
   29100     2496.537   -85408.104            0    -83472.21    1391.5269 
   29150    2528.5828   -85462.552            0   -83501.809   -2304.1294 
   29200    2476.9608   -85423.963            0   -83503.249   -1601.1766 
   29250    2502.0781   -85426.003            0   -83485.813   -2016.8043 
   29300    2530.9594   -85436.642            0   -83474.056   -1243.3432 
   29350    2506.3327   -85419.507            0   -83476.018    348.95707 
   29400    2484.7453   -85401.379            0   -83474.629   -246.50667 
   29450    2523.6973   -85441.795            0    -83484.84    157.57784 
   29500    2498.1953   -85445.613            0   -83508.434   -620.13451 
   29550    2468.9723   -85433.024            0   -83518.504   -649.41408 
   29600    2499.7472   -85422.116            0   -83483.733    1601.6055 
   29650    2521.0503   -85402.488            0   -83447.586    2305.7842 
   29700     2494.852    -85383.07            0   -83448.483    63.003804 
   29750    2498.5237   -85416.994            0    -83479.56   -1506.4449 
   29800    2478.3615   -85429.783            0   -83507.983    1424.1884 
   29850    2450.4345   -85408.518            0   -83508.374   -1642.6181 
   29900    2509.5111   -85425.187            0   -83479.233     308.1454 
   29950    2541.4941   -85429.659            0   -83458.904   -278.38269 
   30000    2505.2694   -85407.505            0    -83464.84   -89.597858 
   30050     2505.231   -85454.649            0   -83512.014   -2735.5956 
   30100    2471.2579   -85456.621            0    -83540.33    1004.2101 
   30150     2471.148    -85434.87            0   -83518.664     -296.786 
   30200    2472.1413   -85404.678            0   -83487.701     181.2631 
   30250    2469.9525   -85394.777            0   -83479.498    3028.7516 
   30300    2492.0393   -85409.756            0    -83477.35    1831.5097 
   30350    2494.9036   -85423.724            0   -83489.097   -997.94499 
   30400      2471.04   -85448.638            0   -83532.515    -1169.678 
   30450    2430.7321   -85425.327            0    -83540.46   -1123.4052 
   30500    2480.6956    -85405.58            0    -83481.97   -818.83682 
   30550    2513.4116   -85411.779            0     -83462.8    3548.3904 
   30600    2540.5159   -85441.243            0   -83471.247   -449.10245 
   30650    2453.9372   -85399.023            0   -83496.162    85.626293 
   30700    2482.5366   -85454.388            0    -83529.35    32.567428 
   30750    2487.9609   -85473.145            0   -83543.901   -2121.5448 
   30800    2469.4596   -85410.409            0   -83495.512    1441.4028 
   30850    2499.9862   -85393.162            0   -83454.594    509.05619 
   30900    2546.0819   -85422.429            0   -83448.117     1099.437 
   30950     2498.999   -85413.803            0   -83476.001   -26.126078 
   31000    2406.1157   -85376.277            0   -83510.499    3456.7553 
   31050    2497.5596    -85423.73            0   -83487.044     -1442.96 
   31100    2483.0198   -85388.568            0   -83463.156    2709.9988 
   31150    2533.1176    -85424.12            0   -83459.861   -491.86005 
   31200    2488.3078    -85396.44            0   -83466.927    2045.2871 
   31250     2472.718   -85409.546            0   -83492.122   -1885.6333 
   31300    2483.5245   -85440.491            0   -83514.687   -1804.6445 
   31350    2489.3813   -85426.143            0   -83495.799   -33.297954 
   31400    2495.5123   -85387.265            0   -83452.166    2982.3701 
   31450    2509.7239     -85393.1            0   -83446.981    1063.0728 
   31500    2502.4012   -85402.251            0    -83461.81    -159.3083 
   31550    2443.0272    -85415.01            0   -83520.609   -678.48199 
   31600    2502.2401    -85466.63            0   -83526.314    292.63119 
   31650    2504.2734   -85441.001            0   -83499.109    1337.9482 
   31700    2509.3977   -85423.357            0   -83477.491    1278.9036 
   31750    2531.3597   -85416.396            0   -83453.499    1068.7302 
   31800    2516.1181   -85345.469            0   -83394.392    1744.5767 
   31850    2554.8844   -85380.956            0   -83399.818    2271.8695 
   31900    2542.4471   -85416.504            0    -83445.01   -874.40677 
   31950    2510.7105   -85422.716            0   -83475.832    1483.7845 
   32000    2487.3967   -85421.878            0   -83493.072    57.759597 
   32050    2461.6996   -85407.363            0   -83498.483    2299.8327 
   32100    2488.6787   -85384.184            0   -83454.384     1344.366 
   32150    2506.5432   -85372.885            0   -83429.232   -1059.0499 
   32200    2535.5426   -85419.201            0   -83453.061   -1082.8174 
   32250    2487.4909   -85404.873            0   -83475.994   -1312.9581 
   32300    2468.1869   -85399.818            0   -83485.908   -1254.4436 
   32350    2504.6796   -85419.001            0   -83476.793   -2482.9532 
   32400    2499.3663   -85396.426            0   -83458.339    283.63692 
   32450    2525.1752   -85416.368            0   -83458.267   -953.85009 
   32500    2480.2033   -85386.278            0    -83463.05   -569.62842 
   32550    2505.4818   -85418.434            0   -83475.604   -27.915888 
   32600    2475.6218   -85435.669            0   -83515.993   -468.32082 
   32650    2499.4701   -85466.077            0   -83527.909   -1770.9318 
   32700    2448.8021   -85381.571            0   -83482.692    2161.5736 
   32750    2557.0768   -85430.335            0   -83447.497   -2299.4127 
   32800    2525.5883   -85425.727            0   -83467.306   -3305.2592 
   32850    2479.4865   -85417.578            0   -83494.906    -709.6256 
   32900    2439.6384   -85408.473            0     -83516.7    1367.2403 
   32950    2446.7781   -85416.433            0   -83519.124   -1828.2289 
   33000    2490.0326   -85393.213            0   -83462.363    1209.8112 
   33050    2542.7679   -85414.804            0   -83443.061   -861.13272 
   33100    2517.7783   -85415.244            0   -83462.879   -3482.6558 
   33150    2494.6737   -85437.234            0   -83502.785    971.06188 
   33200     2484.611   -85430.966            0    -83504.32    271.31125 
   33250    2494.5949   -85430.237            0   -83495.849   -1459.4482 
   33300    2498.9233    -85404.14            0   -83466.396   -704.70159 
   33350    2537.1155   -85382.792            0   -83415.433    69.349366 
   33400    2518.3835   -85389.694            0    -83436.86    1985.3088 
   33450     2513.828   -85418.391            0   -83469.089   -805.24486 
   33500    2455.9627   -85384.437            0   -83480.006   -1053.9975 
   33550    2476.1948   -85402.002            0   -83481.882   -2303.1761 
   33600     2487.857   -85395.021            0   -83465.858    1393.6686 
   33650    2535.1163   -85380.565            0   -83414.756    3086.6111 
   33700    2534.9911   -85382.427            0   -83416.715    2997.1698 
   33750    2466.4782   -85373.157            0   -83460.572    826.28928 
   33800     2516.209   -85428.401            0   -83477.253      212.816 
   33850    2489.4759   -85420.752            0   -83490.334   -756.39877 
   33900    2459.9911   -85389.735            0    -83482.18   -3223.7738 
   33950    2520.3209   -85376.817            0    -83422.48   -1945.4183 
   34000    2536.9715   -85394.401            0   -83427.153    -637.6502 
   34050    2539.1008   -85436.795            0   -83467.896   -4886.9777 
   34100    2502.0664   -85434.726            0   -83494.545   -2626.2996 
   34150    2518.1687   -85432.036            0   -83479.369   -1420.6437 
   34200    2532.9438    -85418.28            0   -83454.155   -2478.3879 
   34250    2564.5997   -85415.668            0   -83426.997   -1597.3795 
   34300    2502.4815   -85378.751            0   -83438.247   -762.81248 
   34350    2482.8008   -85405.115            0   -83479.873    266.64256 
   34400    2505.9058   -85447.207            0   -83504.048   -1174.7294 
   34450    2458.3762   -85412.446            0   -83506.143   -2371.9698 
   34500    2500.9176   -85399.965            0   -83460.675   -1415.2246 
   34550     2496.731   -85379.576            0   -83443.532   -1189.5694 
   34600     2461.764   -85366.387            0   -83457.458    1567.7411 
   34650    2441.2971   -85370.779            0    -83477.72   -1107.4647 
   34700    2480.7518   -85399.836            0   -83476.183   -269.74789 
   34750    2522.5795   -85381.914            0   -83425.826   -1436.2394 
   34800    2536.7025   -85372.895            0   -83405.856    1991.4174 
   34850    2477.0147    -85363.21            0   -83442.454    331.46302 
   34900    2473.4721   -85386.483            0   -83468.474    1500.7326 
   34950    2526.6991   -85432.721            0   -83473.438   -1626.5367 
   35000    2484.7677   -85391.614            0   -83464.847   -330.09892 
Loop time of 87.553 on 24 procs for 10000 steps with 6000 atoms

Performance: 19.737 ns/day, 1.216 hours/ns, 114.217 timesteps/s
99.6% CPU use with 24 MPI tasks x no OpenMP threads

MPI task timing breakdown:
Section |  min time  |  avg time  |  max time  |%varavg| %total
---------------------------------------------------------------
Pair    | 79.904     | 81.24      | 82.871     |   7.8 | 92.79
Bond    | 0.0013934  | 0.0020061  | 0.0036634  |   1.3 |  0.00
Neigh   | 1.9213     | 1.9804     | 2.0529     |   2.2 |  2.26
Comm    | 1.8081     | 3.1813     | 4.073      |  33.8 |  3.63
Output  | 0.0094396  | 0.016525   | 0.019723   |   2.1 |  0.02
Modify  | 0.50126    | 0.97632    | 1.5978     |  36.5 |  1.12
Other   |            | 0.1563     |            |       |  0.18

Nlocal:    250 ave 260 max 240 min
Histogram: 2 0 2 3 6 3 2 1 2 3
Nghost:    5095.79 ave 5151 max 5045 min
Histogram: 2 5 1 4 2 2 1 2 2 3
Neighs:    88870.4 ave 92018 max 85858 min
Histogram: 1 4 4 1 1 4 2 3 1 3

Total # of neighbors = 2132889
Ave neighs/atom = 355.481
Ave special neighs/atom = 0
Neighbor list builds = 851
Dangerous builds = 91

unfix thermostat_nvt

dump atoms all custom 1000000 lattice.out id type x y z c_peratom fx fy fz

reset_timestep 0

fix nve_fix all nve


thermo_modify line one format float %15.15g

variable tempsteps equal step

compute 1 all chunk/atom bin/1d ${dimension} lower ${thickness} units reduced
compute 1 all chunk/atom bin/1d z lower ${thickness} units reduced
compute 1 all chunk/atom bin/1d z lower 0.05 units reduced
fix 3 all ave/chunk 50 10 1050 1 v_temp file tmp_profile.out
fix flux all thermal/conductivity ${swapsteps} ${dimension} 20
fix flux all thermal/conductivity 50 ${dimension} 20
fix flux all thermal/conductivity 50 z 20

thermo_style custom step v_currenttime temp pe c_pe temp f_flux etotal press
WARNING: New thermo_style command, previous thermo_modify settings will be lost (../output.cpp:705)
thermo_style multi
thermo_modify line one format float %15.15g
thermo ${swapsteps}
thermo 50

variable fluxstep equal step-${tempsteps}
variable fluxstep equal step-0
variable fluxtime equal dt*v_fluxstep
variable fflux equal f_flux
variable eetotal equal etotal

fix fluxlog all print ${swapsteps} "${fluxstep} ${fluxtime} ${eetotal} ${fflux} " file flux_log.out
fix fluxlog all print 50 "${fluxstep} ${fluxtime} ${eetotal} ${fflux} " file flux_log.out

run         ${TCsteps}
run         2500000
Per MPI rank memory allocation (min/avg/max) = 8.717 | 9.272 | 9.729 Mbytes
TotEng KinEng Temp PotEng E_bond E_angle E_dihed E_impro E_vdwl E_coul E_long Press 
-83464.8467543913 1926.76739056565 2484.76766497299 -85391.614144957               0               0               0               0 -7487.77416878083 -77903.8399761762               0 -330.098923337191 
50 0.1 -83464.7774016211 1.42707497010064 
-83464.7774016211 1948.87172279826 2513.27350862404 -85413.6491244193               0               0               0               0 -7462.98088738356 -77950.6682370358               0 913.837938733337 
100 0.2 -83464.8620062855 1.80840862715605 
-83464.8620062855 1960.64657067388 2528.4584040113 -85425.5085769594               0               0               0               0 -7514.86583942333 -77910.6427375361               0 -2164.72349024013 
150 0.3 -83464.7086170786 3.19346161764252 
-83464.7086170786 1936.2732833932 2497.02650599357 -85400.9819004718               0               0               0               0 -7453.58993939299 -77947.3919610789               0 1241.81964643448 
200 0.4 -83464.7932180885 4.69757086306239 
-83464.7932180885 1934.66330783528 2494.95027446333 -85399.4565259238               0               0               0               0 -7466.31109488658 -77933.1454310372               0 211.553253117388 
250 0.5 -83465.2525981377 5.84973595893912 
-83465.2525981377 1955.34510886185 2521.62161564124 -85420.5977069996               0               0               0               0 -7448.90985926362 -77971.6878477359               0 1323.20603647355 
300 0.6 -83464.9343495526 6.10287220468594 
-83464.9343495526 1937.06942204243 2498.05320988223 -85402.003771595               0               0               0               0 -7498.22226290064 -77903.7815086943               0 -1833.71609809496 
350 0.7 -83464.7349487693 7.90618415580285 
-83464.7349487693 1944.62673141279 2507.79914914279 -85409.3616801821               0               0               0               0 -7515.37909130061 -77893.9825888815               0 -1819.97632905586 
400 0.8 -83464.6092699437 8.69357097738531 
-83464.6092699437 1956.18013879219 2522.69847389634 -85420.7894087359               0               0               0               0 -7456.36630859442 -77964.4231001415               0 1403.43020413265 
450 0.9 -83464.8348982169 9.02815454883762 
-83464.8348982169 1944.90435747013 2508.15717692217 -85409.739255687               0               0               0               0 -7500.04030313743 -77909.6989525496               0 -1680.67356118801 
500 1 -83464.8197997765 9.74229392731553 
-83464.8197997765 1951.44919171512  2516.597423827 -85416.2689914916               0               0               0               0  -7413.32326611 -78002.9457253816               0 2169.67997662314 
550 1.1 -83464.6548904986 10.8197831812131 
-83464.6548904986 1943.52958405373 2506.38426310369 -85408.1844745524               0               0               0               0 -7443.06364837122 -77965.1208261811               0 1478.96501539579 
600 1.2 -83464.7862527188 11.8491676440947 
-83464.7862527188 1940.7092466324 2502.74714361374 -85405.4954993512               0               0               0               0 -7474.82862645045 -77930.6668729008               0 228.306613925546 
650 1.3 -83464.6035587473 12.7185343992202 
-83464.6035587473 1938.73599538628 2500.20243016506 -85403.3395541336               0               0               0               0 -7408.36190013511 -77994.9776539985               0 2930.01289287734 
700 1.4 -83464.4518234104 14.0731109258888 
-83464.4518234104 1905.95099839552 2457.92275446691 -85370.4028218059               0               0               0               0 -7435.90544863644 -77934.4973731695               0 1548.78743174701 
750 1.5 -83464.7770784154 14.9822677782615 
-83464.7770784154 1939.97240562477 2501.79691022337 -85404.7494840402               0               0               0               0 -7497.03900105147 -77907.7104829887               0 399.79220881986 
800 1.6 -83464.7372101093 17.063257059774 
-83464.7372101093 1943.02067816321 2505.72797583856 -85407.7578882726               0               0               0               0 -7505.84252550505 -77901.9153627675               0 -1590.14894850311 
850 1.7 -83464.5580752524 18.4282903252689 
-83464.5580752524 1939.27901884892 2500.90271560061 -85403.8370941014               0               0               0               0 -7479.50966787395 -77924.3274262274               0 -318.50921060102 
900 1.8 -83464.7985535581 19.5575209834032 
-83464.7985535581 1947.94213084685 2512.07470277243 -85412.740684405               0               0               0               0 -7437.57809208849 -77975.1625923165               0 2152.63619270145 
950 1.9 -83464.9712501754 20.9784561432106 
-83464.9712501754 1986.68236506896 2562.03427848454 -85451.6536152443               0               0               0               0 -7504.64780686115 -77947.0058083832               0 -1061.68035194051 
1000 2 -83464.9779866726 22.3924374460209 
-83464.9779866726 1968.75457096265 2538.91451669193 -85433.7325576352               0               0               0               0 -7509.86893956181 -77923.8636180734               0 -1178.78322678204 
1050 2.1 -83464.7222795804 22.9358817504824 
-83464.7222795804 1924.53661114804 2481.89084206654 -85389.2588907284               0               0               0               0 -7427.25279152568 -77962.0060992027               0 1169.52489524814 
1100 2.2 -83464.9557325325 23.6037605815866 
-83464.9557325325 1938.94831380863 2500.47623693236 -85403.9040463411               0               0               0               0 -7469.44869406029 -77934.4553522808               0 545.364592339123 
1150 2.3 -83464.7504919473 24.6148510052129 
-83464.7504919473 1935.54504656425 2496.08736858971 -85400.2955385116               0               0               0               0 -7447.58963835121 -77952.7059001604               0 1187.95980901483 
1200 2.4 -83465.1877764103 26.4459081135634 
-83465.1877764103 1974.95661165402 2546.91269552878 -85440.1443880643               0               0               0               0 -7479.63771851013 -77960.5066695542               0 -664.337745260431 
1250 2.5 -83464.7864798795 27.7893207478022 
-83464.7864798795 1932.64281900739 2492.34464322235 -85397.4292988869               0               0               0               0 -7463.33113610843 -77934.0981627784               0 830.058081159491 
1300 2.6 -83464.6198287807 29.1982930684825 
-83464.6198287807 1921.03283416783 2477.37235592839 -85385.6526629485               0               0               0               0 -7491.52245938395 -77894.1302035645               0 -1250.46751362748 
1350 2.7 -83464.9465095064 30.6664380830739 
-83464.9465095064 1935.60384899342 2496.16320045989 -85400.5503584998               0               0               0               0 -7489.14335454689 -77911.4070039529               0 -858.185879816631 
1400 2.8 -83464.9294042029 32.1486781433878 
-83464.9294042029 1947.32987687133 2511.2851373643 -85412.2592810742               0               0               0               0 -7541.10381197966 -77871.1554690945               0 -2428.54351346934 
1450 2.9 -83464.851743355 33.448040488964 
-83464.851743355 1935.60757137858 2496.16800086409 -85400.4593147336               0               0               0               0 -7497.73237676011 -77902.7269379735               0 -902.075279282122 
1500 3 -83464.8676770166 34.2226300447389 
-83464.8676770166 1938.59553917104 2500.02129721478 -85403.4632161876               0               0               0               0 -7510.09129540811 -77893.3719207795               0 -2676.92328874904 
1550 3.1 -83464.8946998074 35.1732997053111 
-83464.8946998074 1936.80198201791 2497.70831805538 -85401.6966818253               0               0               0               0 -7501.0774255632 -77900.6192562621               0 -1448.11998745047 
1600 3.2 -83465.00722976 36.1172728276623 
-83465.00722976 1941.57901111568 2503.86879570043 -85406.5862408757               0               0               0               0 -7468.08486535256 -77938.5013755231               0 1049.90515758224 
1650 3.3 -83464.8202240357 37.7766379366192 
-83464.8202240357 1956.58934782741 2523.22619166026 -85421.4095718632               0               0               0               0 -7518.53186626963 -77902.8777055935               0 -2239.18288530015 
1700 3.4 -83464.9067435773 39.5052959128928 
-83464.9067435773 1918.6443151625 2474.29211135882 -85383.5510587398               0               0               0               0 -7482.28291179112 -77901.2681469487               0 -78.9634890614104 
1750 3.5 -83464.9135352437 41.3772071690936 
-83464.9135352437 1933.08670831754 2492.91708482069 -85398.0002435612               0               0               0               0 -7478.30764401247 -77919.6925995488               0 143.828300182112 
1800 3.6 -83464.8325407199 42.7818412672815 
-83464.8325407199 1939.33284083359 2500.97212466775 -85404.1653815535               0               0               0               0 -7487.94167120536 -77916.2237103481               0 -938.331168233485 
1850 3.7 -83464.8493073944 44.0223476954109 
-83464.8493073944 1938.39264612735 2499.75964545708 -85403.2419535218               0               0               0               0 -7454.30568106552 -77948.9362724563               0 603.417863754867 
[...]
624400 1248.8 -78129.7840710385 13067.7856870059 
-78129.7840710385 4209.89244870178 5429.0957386803 -82339.6765197403               0               0               0               0 -5374.87466482605 -76964.8018549143               0 130736.362599349 
624450 1248.9 -78098.8308367377 13070.2279499745 
-78098.8308367377 4231.07217966473 5456.40921248479 -82329.9030164024               0               0               0               0 -5358.52195551035 -76971.381060892               0 129791.407734402 
624500 1249 -78065.1450813374 13072.5978404473 
-78065.1450813374 4207.12564640743 5425.52765832455 -82272.2707277448               0               0               0               0 -5252.54481482142 -77019.7259129234               0 136434.643873118 
624550 1249.1 -78050.6386199466 13076.0207442123 
-78050.6386199466 4257.58928711154 5490.60579037741 -82308.2279070581               0               0               0               0 -5248.84281140915 -77059.385095649               0 137531.522197846 
624600 1249.2 -78016.4035481482 13076.4908284789 
-78016.4035481482 4259.14171437056 5492.60780736936 -82275.5452625188               0               0               0               0 -5178.98970702681 -77096.555555492               0 138980.280817658 
624650 1249.3 -77978.1154253118 13077.498050264 
-77978.1154253118 4255.49973508551 5487.91109493365 -82233.6151603973               0               0               0               0 -5192.01637756329 -77041.598782834               0 140516.051429269 
624700 1249.4 -77931.6168892531 13078.4516803134 
-77931.6168892531 4302.07618581139  5547.976289767 -82233.6930750645               0               0               0               0 -5181.02290053019 -77052.6701745343               0 139619.383445588 
624750 1249.5 -77901.6833484527 13079.2496649271 
-77901.6833484527 4270.63604594672 5507.43094770833 -82172.3193943995               0               0               0               0 -5063.4790107243 -77108.8403836752               0 144780.369535346 
624800 1249.6 -77863.1789303008 13080.9387441722 
-77863.1789303008 4324.8315112928 5577.32165716267 -82188.0104415936               0               0               0               0 -5150.89643190524 -77037.1140096883               0 143481.480312492 
624850 1249.7 -77819.1625446733 13082.6824929441 
-77819.1625446733 4369.4463760484 5634.85718213816 -82188.6089207217               0               0               0               0 -5078.67988732197 -77109.9290333997               0 147772.968259136 
624900 1249.8 -77788.2894136931 13084.6243094678 
-77788.2894136931 4324.56361996011 5576.97618332682 -82112.8530336532               0               0               0               0 -5017.64600564652 -77095.2070280067               0 150421.431089291 
624950 1249.9 -77738.8137418435 13085.6579744386 
-77738.8137418435 4411.07438213717 5688.54084109624 -82149.8881239807               0               0               0               0 -5109.27115430527 -77040.6169696754               0 146127.428660917 
625000 1250 -77689.5211352477 13087.6383225665 
-77689.5211352477 4449.54275677091 5738.14982549259 -82139.0638920187               0               0               0               0 -5135.81318755131 -77003.2507044674               0 145697.992416588 
625050 1250.1 -77648.1802919999 13088.8612048194 
-77648.1802919999 4420.24209401847 5700.36356248751 -82068.4223860184               0               0               0               0 -5100.07698420771 -76968.3454018107               0 146655.787147057 
625100 1250.2 -77609.8299468828 13091.4016444825 
-77609.8299468828 4500.68522428234 5804.10337556904 -82110.5151711651               0               0               0               0 -5078.34123733775 -77032.1739338274               0 150552.640222892 
625150 1250.3 -77582.9239758187 13093.2375191447 
-77582.9239758187 4497.10856307197 5799.49089760849 -82080.0325388907               0               0               0               0 -5112.08115188988 -76967.9513870008               0 147825.277526699 
625200 1250.4 -77536.4982333441 13094.4523970534 
-77536.4982333441 4510.43484288641 5816.6765264184 -82046.9330762305               0               0               0               0 -4990.94557304757 -77055.9875031829               0 153521.288847069 
625250 1250.5 -77476.2189551773 13096.6412872018 
-77476.2189551773 4538.90358915974 5853.38994628872 -82015.122544337               0               0               0               0 -4988.46182865097 -77026.660715686               0 153243.73838507 
625300 1250.6 -77449.2903167334 13099.280130476 
-77449.2903167334 4542.36051168091 5857.8480087113 -81991.6508284143               0               0               0               0 -5131.6232516685 -76860.0275767458               0 146581.13274956 
625350 1250.7 -77405.259439963 13100.0809670935 
-77405.259439963 4567.43226802078 5890.18065548663 -81972.6917079838               0               0               0               0 -5041.55935413108 -76931.1323538527               0 151133.041837698 
625400 1250.8 -77351.2600590398 13101.3976413887 
-77351.2600590398 4607.90691421432 5942.3769364728 -81959.1669732542               0               0               0               0 -4978.99889566794 -76980.1680775862               0 155224.639146349 
625450 1250.9 -77315.5426945403 13102.0537352291 
-77315.5426945403 4566.54024593875 5889.03029990312 -81882.0829404791               0               0               0               0 -4888.21969517537 -76993.8632453037               0 160229.587663045 
625500 1251 -77262.9408432187 13104.1192289008 
-77262.9408432187 4687.23017324673 6044.67255870986 -81950.1710164654               0               0               0               0 -4910.83100400796 -77039.3400124575               0 161360.950704589 
625550 1251.1 -77203.7569395701 13104.6443260448 
-77203.7569395701 4690.27859374608 6048.6038151361 -81894.0355333162               0               0               0               0 -4975.20292661728 -76918.8326066989               0 155427.902699062 
625600 1251.2 -77144.4993024235 13106.9723433174 
-77144.4993024235 4744.31610838593 6118.29083066794 -81888.8154108094               0               0               0               0 -4907.4183758894 -76981.3970349201               0 162629.767847069 
625650 1251.3 -77099.3164520115 13108.9238362779 
-77099.3164520115 4727.03239089854 6096.00167290377 -81826.34884291               0               0               0               0 -5001.65187484634 -76824.6969680637               0 155879.364575642 
625700 1251.4 -77022.4703606969 13109.9352786346 
-77022.4703606969 4832.29506309199 6231.74887595257 -81854.7654237889               0               0               0               0 -4889.20324464356 -76965.5621791453               0 162050.284702546 
625750 1251.5 -76963.5046003743 13112.3148445444 
-76963.5046003743 4813.37302432406 6207.34693189013 -81776.8776246983               0               0               0               0 -4807.42221456814 -76969.4554101302               0 168349.667891841 
625800 1251.6 -76875.8007765457 13114.3533670359 
-76875.8007765457 4807.88816018537 6200.27362707643 -81683.6889367311               0               0               0               0 -4943.9557181363 -76739.7332185947               0 161555.724751567 
625850 1251.7 -76830.2853013021 13115.5528883754 
-76830.2853013021 4827.94943782542 6226.14473857754 -81658.2347391276               0               0               0               0 -4728.68485360734 -76929.5498855202               0 170027.866953333 
625900 1251.8 -76759.6566840728 13116.7519615367 
-76759.6566840728 4899.64362509607 6318.60187645983 -81659.3003091689               0               0               0               0 -4728.73639855285 -76930.563910616               0 173460.818388837 
625950 1251.9 -76705.3386825948 13118.0410246883 
-76705.3386825948 4969.72196264328 6408.9752074623 -81675.0606452381               0               0               0               0 -4728.30585465536 -76946.7547905827               0 173978.384723044 
626000 1252 -76648.196678385 13118.6657359697 
-76648.196678385 5030.01846110523 6486.73383594178 -81678.2151394902               0               0               0               0 -4803.60204634498 -76874.6130931452               0 169443.169021798 
626050 1252.1 -76512.0272568952 13121.8523173393 
-76512.0272568952 5113.34654491203 6594.19409774666 -81625.3738018072               0               0               0               0 -4838.1605534928 -76787.2132483144               0 170831.837642017 
626100 1252.2 -76405.3081470947 13122.7697165153 
-76405.3081470947 5080.47299903726 6551.80022901989 -81485.781146132               0               0               0               0 -4710.01955556514 -76775.7615905668               0 176865.403863777 
626150 1252.3 -76317.7381698752 13124.5556495991 
-76317.7381698752 5126.36432697638 6610.98188650701 -81444.1024968515               0               0               0               0 -4630.0498629583 -76814.0526338932               0 180392.796140616 
626200 1252.4 -76231.4549545922 13126.4604885021 
-76231.4549545922 5203.44404225319 6710.38422489147 -81434.8989968454               0               0               0               0 -4628.27070570668 -76806.6282911387               0 182596.470257864 
626250 1252.5 -76151.8537101631 13128.3847528182 
-76151.8537101631 5160.91941158744 6655.54427495223 -81312.7731217505               0               0               0               0 -4524.65848721737 -76788.1146345332               0 187632.066702721 
626300 1252.6 -76091.11269801 13130.7396472502 
-76091.11269801 5227.69159374353 6741.65397348333 -81318.8042917535               0               0               0               0 -4471.47491196108 -76847.3293797924               0 192126.822769563 
626350 1252.7 -75990.927548468 13131.3191826098 
-75990.927548468 5297.03786294286 6831.08322593835 -81287.9654114109               0               0               0               0 -4543.60013864817 -76744.3652727627               0 188776.583885026 
626400 1252.8 -75910.9038254006 13132.7286692844 
-75910.9038254006 5352.19115802183 6902.20915681094 -81263.0949834224               0               0               0               0 -4540.13803766706 -76722.9569457554               0 189812.212057786 
626450 1252.9 -75803.3431803803 13135.1433761586 
-75803.3431803803 5434.97715195558 7008.97033714151 -81238.3203323359               0               0               0               0 -4513.66428842601 -76724.6560439099               0 190329.456628564 
626500 1253 -75730.2547334539 13135.7356218536 
-75730.2547334539 5435.71454848368 7009.92128693351 -81165.9692819376               0               0               0               0 -4391.42985702368 -76774.5394249139               0 196181.090317135 
626550 1253.1 -75637.224956802 13137.7687048042 
-75637.224956802 5530.98002249369 7132.77605942314 -81168.2049792957               0               0               0               0 -4479.22185535578 -76688.98312394               0 193093.102228074 
626600 1253.2 -75523.2356632009 13138.4835363295 
-75523.2356632009 5558.08744370665 7167.73390853382 -81081.3231069076               0               0               0               0 -4464.40094290551 -76616.9221640021               0 194583.728515505 
626650 1253.3 -75357.7339440228 13138.9227376371 
-75357.7339440228 5634.16322154202 7265.84156479714 -80991.8971655648               0               0               0               0 -4352.8162331617 -76639.0809324032               0 204220.321288364 
626700 1253.4 -75215.8937402558 13139.5023582357 
-75215.8937402558 5727.0559772516 7385.63646937545 -80942.9497175074               0               0               0               0 -4340.28733317205 -76602.6623843353               0 204892.861854621 
626750 1253.5 -75082.6745898985 13141.5808018337 
-75082.6745898985 5816.85955141736 7501.44755190605 -80899.5341413158               0               0               0               0 -4242.13795876708 -76657.3961825488               0 213956.774563278 
626800 1253.6 -74928.9759200174 13143.0455437493 
-74928.9759200174 6064.4331949642 7820.71960684993 -80993.4091149816               0               0               0               0 -4193.82911283129 -76799.5800021503               0 217845.673810073 
626850 1253.7 -74774.1325523412 13145.7855667461 
-74774.1325523412 5954.65199704201 7679.14529323286 -80728.7845493832               0               0               0               0 -4156.36213705891 -76572.4224123243               0 218735.168420394 
626900 1253.8 -74547.9647979775 13146.3905693061 
-74547.9647979775 6139.28840811035 7917.25321754468 -80687.2532060879               0               0               0               0 -4143.94793123445 -76543.3052748534               0 220398.637546807 
626950 1253.9 -74304.1350189156 13146.6502736789 
-74304.1350189156 6263.04091147996 8076.84498785277 -80567.1759303956               0               0               0               0 -3907.6187536394 -76659.5571767562               0 236061.955215081 
627000 1254 -74071.0219847405 13147.5176170493 
-74071.0219847405 6433.92263273362 8297.21480394218 -80504.9446174741               0               0               0               0 -4094.31461152128 -76410.6300059528               0 230526.405015836 
627050 1254.1 -73804.6389384845 13148.3574973433 
-73804.6389384845 6598.86203500465 8509.92137944775 -80403.5009734892               0               0               0               0 -3861.78250549341 -76541.7184679958               0 244536.234169132 
627100 1254.2 -73512.4528317625 13151.0425599632 
-73512.4528317625 6768.34535473354 8728.48781080664 -80280.798186496               0               0               0               0 -4011.3216829901 -76269.476503506               0 245192.791044916 
627150 1254.3 -73292.7895782044 13153.1003666628 
-73292.7895782044 6907.49430405056 8907.93490523582 -80200.283882255               0               0               0               0 -3800.86312480442 -76399.4207574505               0 252868.349720976 
627200 1254.4 -72933.2257613056 13155.4916421494 
-72933.2257613056 7033.10461632412 9069.92251404254 -79966.3303776297               0               0               0               0 -3668.49084747073 -76297.8395301589               0 260536.441933425 
627250 1254.5 -72543.9414909261 13157.9735799459 
-72543.9414909261 7289.52106278141 9400.59828634596 -79833.4625537075               0               0               0               0 -3489.29400286985 -76344.1685508377               0 274286.611263566 
627300 1254.6 -72157.8949824175 13158.8340422695 
-72157.8949824175 7569.59367354142 9761.78115173416 -79727.4886559589               0               0               0               0 -3468.65097295862 -76258.8376830003               0 280543.031391951 
627350 1254.7 -71676.3744883181 13160.0630804177 
-71676.3744883181 7871.58994972634 10151.236872067 -79547.9644380445               0               0               0               0 -3527.73864011007 -76020.2257979344               0 283880.085626632 
627400 1254.8 -71233.8698934892 13162.505771959 
-71233.8698934892 8131.25059769228 10486.0963808437 -79365.1204911815               0               0               0               0 -3058.79336833511 -76306.3271228464               0 305996.677686432 
627450 1254.9 -70755.3633056643 13164.7710796544 
-70755.3633056643 8393.66791879977 10824.5109073762 -79149.0312244641               0               0               0               0 -3130.17024896674 -76018.8609754973               0 311866.55466513 
627500 1255 -70137.6579938816 13166.0753291884 
-70137.6579938816 8951.8834177953 11544.388059534 -79089.5414116769               0               0               0               0 -2954.52182905528 -76135.0195826216               0 327308.843794555 
627550 1255.1 -69389.4839808105 13167.3369807182 
-69389.4839808105 9285.81617797807 11975.0292094933 -78675.3001587886               0               0               0               0 -2681.67158594538 -75993.6285728432               0 351936.831841988 
627600 1255.2 -68499.0536890022 13169.8503151516 
-68499.0536890022 9971.60445461931 12859.4247743962 -78470.6581436215               0               0               0               0 -2538.96998022579 -75931.6881633957               0 367892.181026317 
627650 1255.3 -67585.2829827545 13170.9306064665 
-67585.2829827545 10474.8939744919 13508.4691433337 -78060.1769572464               0               0               0               0 -2327.67498195428 -75732.5019752921               0 384841.970892848 
627700 1255.4 -66226.7939324281 13173.6510663869 
-66226.7939324281 11292.6797063318 14563.0892045315 -77519.4736387599               0               0               0               0 -1871.28842566265 -75648.1852130973               0 422495.953004741 
627750 1255.5 -64925.3344147492 13174.9342217535 
-64925.3344147492 12432.9760543512 16033.6203687597 -77358.3104691004               0               0               0               0 -1642.01705140767 -75716.2934176927               0 453536.45966059 
627800 1255.6 -63576.2141462348 13176.2419301625 
-63576.2141462348 13524.6507298944 17441.4488112284 -77100.8648761293               0               0               0               0 -1659.80127115582 -75441.0636049735               0 466015.713411456 
627850 1255.7 -62115.0412484562 13176.757602379 
-62115.0412484562 14327.2178106052 18476.4428332813 -76442.2590590614               0               0               0               0 -1065.01317935275 -75377.2458797087               0 513796.934753171 
627900 1255.8 -60317.0700073756 13177.4757842937 
-60317.0700073756 15731.7045162588 20287.6750397117 -76048.7745236344               0               0               0               0 -775.76520239028 -75273.0093212441               0 548055.168259593 
627950 1255.9 -58133.5039809521 13180.5574927862 
-58133.5039809521 16995.2561391471 21917.1567461959 -75128.7601200992               0               0               0               0 -35.0837182941443 -75093.676401805               0 604360.533498987 
628000 1256 -56025.5436792305 13181.5534724455 
-56025.5436792305 18679.7973688165 24089.5484932701 -74705.341048047               0               0               0               0  450.8576801458 -75156.1987281928               0 655272.054678226 
628050 1256.1 -53365.8620704286 13182.0906081846 
-53365.8620704286 20601.9675635515 26568.3875943669 -73967.8296339802               0               0               0               0 791.303707588161 -74759.1333415683               0 708087.321873631 
628100 1256.2 -50224.4715324447 13183.7937936753 
-50224.4715324447 22916.3956906774 29553.0842429323 -73140.8672231221               0               0               0               0 1533.01881467429 -74673.8860377964               0 778817.772988842 
628150 1256.3 -46965.1970868116 13185.9071372777 
-46965.1970868116 25152.246850506 32436.4476903506 -72117.4439373176               0               0               0               0 2517.08644402011 -74634.5303813377               0 855599.112854757 
628200 1256.4 -42688.6444734718 13187.8670984653 
-42688.6444734718 28181.8911346905 36343.4902272817 -70870.5356081623               0               0               0               0 3230.33338933415 -74100.8689974964               0 943280.634863684 
628250 1256.5 -37840.6208571982 13189.4194016251 
-37840.6208571982 31586.5064893278 40734.0970988199 -69427.1273465261               0               0               0               0 4428.53382869177 -73855.6611752178               0 1053045.90339321 
628300 1256.6 -30588.189035277 13191.4090730718 
ERROR: Lost atoms: original 6000 current 5999 (../thermo.cpp:441)
Last command: run         ${TCsteps}
