Siesta Version:                                        siesta-trunk-411
Architecture  : x86_64-unknown-linux-gnu--Intel
Compiler flags: mpif90 -shared-intel -O2
PARALLEL version

* Running on   48 nodes in parallel
>> Start of run:   3-MAR-2014  17:49:13

                           ***********************       
                           *  WELCOME TO SIESTA  *       
                           ***********************       

reinit: Reading from standard input
************************** Dump of input data file ****************************
# Final relaxed coordinates
SystemLabel      sunset_yellow_dim4_new
NumberOfAtoms    78
NumberOfSpecies  6
%block ChemicalSpeciesLabel
    1    6  C
    2   16  S
    3   11  Na
    4    7  N
    5    8  O
    6    1  H
%endblock ChemicalSpeciesLabel
LatticeConstant 1.0 Ang
%block LatticeParameters
  35.000000  24.000000  24.000000  90.000000  90.000000  90.000000
%endblock LatticeParameters
AtomicCoordinatesFormat NotScaledCartesianAng
%block AtomicCoordinatesAndAtomicSpecies
   10.77743112   10.63707722   14.47900696   5       1  O
   11.89096399    9.69508380   16.51248192   5       2  O
   11.88096237    8.36929001   14.38948625   5       3  O
   11.99414688    9.80578210   14.96308831   2       4  S
   18.58015436   14.67048374   13.79466670   5       5  O
   17.47166838   14.04190718   13.88349937   1       6  C
   16.23745301   15.86078035   13.86010397   6       7  H
   16.18174503   14.77115006   13.92766434   1       8  C
   14.03722716   14.66639707   14.08778112   6       9  H
   14.97593535   14.10294555   14.05171073   1      10  C
   14.89216774   12.63570668   14.14645157   1      11  C
   12.70650068   12.58575119   14.42796518   6      12  H
   13.62312897   11.99576713   14.35119955   1      13  C
   13.57418302   10.59005293   14.47438663   1      14  C
   14.65193422    8.68867408   14.40992311   6      15  H
   14.74054102    9.77503423   14.34479536   1      16  C
   16.89633806    9.79554430   14.04797958   6      17  H
   15.99245132   10.40057154   14.13854507   1      18  C
   16.10194815   11.83341634   14.07214353   1      19  C
   17.41988549   12.53013874   13.95804836   1      20  C
   18.52432929   11.74462317   13.99189042   4      21  N
   19.73941585   13.37907469   13.84216641   6      22  H
   19.73518549   12.33420525   13.91864836   4      23  N
   22.10912577    8.38736523   14.71235292   6      24  H
   22.11107711    9.46439336   14.53104150   1      25  C
   19.94426683    9.63339671   14.28013357   6      26  H
   20.90067099   10.15736244   14.28851195   1      27  C
   20.92857439   11.57790938   14.08441161   1      28  C
   22.18265404   13.36859110   13.90001897   6      29  H
   22.17367167   12.28836811   14.07293493   1      30  C
   24.34636902   12.11298459   14.33918573   6      31  H
   23.38658121   11.59338677   14.31693019   1      32  C
   23.33681958   10.19328892   14.55953075   1      33  C
   25.19603400    8.12902261   14.10403911   5      34  O
   26.08318368   10.29188172   15.03510010   5      35  O
   24.87255963    9.31969318   15.04259063   2      36  S
   24.73809187    8.74728954   16.48242701   5      37  O
   26.20939807   10.08602320   10.00174077   5      38  O
   24.93386191    9.48771638    9.35413906   2      39  S
   25.10799333    9.60311855    7.81111359   5      40  O
   24.85320640    7.97871325    9.70125958   5      41  O
   23.42419128   10.36233736    9.90489878   1      42  C
   23.47875591   11.77072743   10.10215754   1      43  C
   24.43511083   12.29489177   10.04583348   6      44  H
   22.27268242   12.46993556   10.35660303   1      45  C
   22.28120323   13.55550967   10.49133566   6      46  H
   21.02830038   11.75627716   10.39923296   1      47  C
   20.99846805   10.33002055   10.25586416   1      48  C
   20.04488344    9.80346272   10.31324631   6      49  H
   22.20511475    9.63112256   10.00340772   1      50  C
   22.21337283    8.54760746    9.87112801   6      51  H
   19.84230912   12.52453771   10.55149015   4      52  N
   19.85780419   13.57326429   10.57808455   6      53  H
   18.62278280   11.95170818   10.47507977   4      54  N
   17.53829084   12.76818136   10.44918342   1      55  C
   16.20476718   12.10447367   10.32102044   1      56  C
   16.05603493   10.67384188   10.31373674   1      57  C
   16.93702194   10.04812756   10.46967300   6      58  H
   14.79527471   10.07411849   10.08062408   1      59  C
   14.67631903    8.98897871   10.05697032   6      60  H
   13.65909381   10.91380763    9.86763728   1      61  C
   13.74471147   12.32267791    9.93270373   1      62  C
   12.85033666   12.93558180    9.79368375   6      63  H
   15.02251450   12.93633811   10.16076483   1      64  C
   15.14747316   14.40361432   10.18797338   1      65  C
   14.22883770   14.99145937   10.08786473   6      66  H
   16.36751246   15.04258474   10.32421073   1      67  C
   16.45432618   16.13216475   10.33811061   6      68  H
   17.63291697   14.28024567   10.44765048   1      69  C
   18.75650244   14.88107598   10.53096614   5      70  O
   12.06616955   10.15625372    9.36872831   2      71  S
   11.98872442    8.67399203    9.81836272   5      72  O
   10.86460466   10.92702407    9.97451589   5      73  O
   11.89653893   10.17793634    7.82151811   5      74  O
   26.74582172    8.26126253   15.70144937   3      75  Na
   10.12937681    9.21747792    8.70935803   3      76  Na
   10.07530458    8.83508860   15.62474504   3      77  Na
   26.76449111    8.40686829    8.61171394   3      78  Na
%endblock AtomicCoordinatesAndAtomicSpecies
PAO.SplitNorm         0.15
PAO.SplitNormH        0.5
PAO.EnergyShift  0.001 Ry
PAO.BasisSize    TZP
%block PAO.Basis                                   # Define Basis set
C     2
n=2    0    3
 9.0 2.7 3.6
 1.0 1.0 1.0
n=2    1    3  P 1
 9.0 2.5 3.6
 1.0 1.0 1.0
N     2
n=2    0    3
 9.0 2.5 4.3
 1.0 1.0 1.0
n=2    1    3  P 1
 9.0 2.4 3.8
 1.0 1.0 1.0
O     2
n=2    0    3
 8.5 2.5 5.0
 1.0 1.0 1.0
n=2    1 3 P 1
 9.0 2.4 5.4
 1.0 1.0 1.0
H  1
n=1  0  3 P 1
 8.0 1.8 4.1
 1.0 1.0 1.0
S     2
n=3    0    3
 8.5 2.5 5.0
 1.0 1.0 1.0
n=3    1    3  P 1
 8.5 2.4 5.4
 1.0 1.0 1.0
%endblock PAO.Basis
MD.TypeOfRun    CG
MD.NumCGSteps   0
#MD.Variable-cell True
MD.MaxForceTol  0.01 eV/Ang
#MD.MaxStressTol  200 bar
MaxSCFIterations  500
SolutionMethod diagon
DM.NumberPulay 5
DM.MixingWeight 0.25
DM.Tolerance         1.d-4
XC.Functional VDW
XC.Authors LMKLL
LongOutput true
UseSaveData true
WriteXML false
MeshCutoff  300.0 Ry
************************** End of input data file *****************************

reinit: -----------------------------------------------------------------------
reinit: System Name: 
reinit: -----------------------------------------------------------------------
reinit: System Label: sunset_yellow_dim4_new                                      
reinit: -----------------------------------------------------------------------

initatom: Reading input for the pseudopotentials and atomic orbitals ----------
 Species number:            1  Label: C Atomic number:           6
 Species number:            2  Label: S Atomic number:          16
 Species number:            3  Label: Na Atomic number:          11
 Species number:            4  Label: N Atomic number:           7
 Species number:            5  Label: O Atomic number:           8
 Species number:            6  Label: H Atomic number:           1
Ground state valence configuration:   2s02  2p02
 Processed:          148  lines.
 Processed:          148  lines.
 Processed:          148  lines.
Reading pseudopotential information in formatted form from C.psf

Valence configuration for pseudopotential generation:
2s( 2.00) rc: 1.56
2p( 2.00) rc: 1.56
3d( 0.00) rc: 1.56
4f( 0.00) rc: 1.56
 Processed:          148  lines.
 Processed:          148  lines.
 Processed:          148  lines.
 Processed:          148  lines.
 Processed:          148  lines.
 Processed:          148  lines.
 Processed:          148  lines.
 Processed:          148  lines.
 Processed:          148  lines.
 Processed:          148  lines.
 Processed:          148  lines.
 Processed:          148  lines.
 Processed:          148  lines.
 Processed:          148  lines.
 Processed:          148  lines.
 Processed:          148  lines.
 Processed:          148  lines.
 Processed:          148  lines.
 Processed:          148  lines.
 Processed:          148  lines.
 Processed:          148  lines.
 Processed:          148  lines.
 Processed:          148  lines.
 Processed:          148  lines.
 Processed:          148  lines.
 Processed:          148  lines.
 Processed:          148  lines.
 Processed:          148  lines.
 Processed:          148  lines.
 Processed:          148  lines.
 Processed:          148  lines.
 Processed:          148  lines.
 Processed:          148  lines.
 Processed:          148  lines.
 Processed:          148  lines.
 Processed:          148  lines.
 Processed:          148  lines.
 Processed:          148  lines.
 Processed:          148  lines.
 Processed:          148  lines.
 Processed:          148  lines.
 Processed:          148  lines.
 Processed:          148  lines.
 Processed:          148  lines.
Ground state valence configuration:   3s02  3p04
Reading pseudopotential information in formatted form from S.psf

Valence configuration for pseudopotential generation:
3s( 2.00) rc: 1.61
3p( 4.00) rc: 1.72
3d( 0.00) rc: 1.90
4f( 0.00) rc: 1.90
Ground state valence configuration:   3s01
Reading pseudopotential information in formatted form from Na.psf

Valence configuration for pseudopotential generation:
3s( 1.00) rc: 2.94
3p( 0.00) rc: 3.50
3d( 0.00) rc: 2.94
Ground state valence configuration:   2s02  2p03
Reading pseudopotential information in formatted form from N.psf

Valence configuration for pseudopotential generation:
2s( 2.00) rc: 1.48
2p( 3.00) rc: 1.48
3d( 0.00) rc: 1.48
4f( 0.00) rc: 1.48
Ground state valence configuration:   2s02  2p04
Reading pseudopotential information in formatted form from O.psf

Valence configuration for pseudopotential generation:
2s( 2.00) rc: 1.47
2p( 4.00) rc: 1.47
3d( 0.00) rc: 1.47
4f( 0.00) rc: 1.47
Ground state valence configuration:   1s01
Reading pseudopotential information in formatted form from H.psf

Valence configuration for pseudopotential generation:
1s( 1.00) rc: 1.25
2p( 0.00) rc: 1.25
3d( 0.00) rc: 1.25
4f( 0.00) rc: 1.25
For C, standard SIESTA heuristics set lmxkb to 3
 (one more than the basis l, including polarization orbitals).
Use PS.lmax or PS.KBprojectors blocks to override.
For S, standard SIESTA heuristics set lmxkb to 3
 (one more than the basis l, including polarization orbitals).
Use PS.lmax or PS.KBprojectors blocks to override.
For Na, standard SIESTA heuristics set lmxkb to 2
 (one more than the basis l, including polarization orbitals).
Use PS.lmax or PS.KBprojectors blocks to override.
For N, standard SIESTA heuristics set lmxkb to 3
 (one more than the basis l, including polarization orbitals).
Use PS.lmax or PS.KBprojectors blocks to override.
For O, standard SIESTA heuristics set lmxkb to 3
 (one more than the basis l, including polarization orbitals).
Use PS.lmax or PS.KBprojectors blocks to override.
For H, standard SIESTA heuristics set lmxkb to 2
 (one more than the basis l, including polarization orbitals).
Use PS.lmax or PS.KBprojectors blocks to override.

<basis_specs>
===============================================================================
C                    Z=   6    Mass=  12.010        Charge= 0.17977+309
Lmxo=1 Lmxkb= 3    BasisType=split      Semic=F
L=0  Nsemic=0  Cnfigmx=2
          n=1  nzeta=3  polorb=0
            splnorm:   0.15000    
               vcte:    0.0000    
               rinn:    0.0000    
                rcs:    9.0000      2.7000      3.6000    
            lambdas:    1.0000      1.0000      1.0000    
L=1  Nsemic=0  Cnfigmx=2
          n=1  nzeta=3  polorb=1
            splnorm:   0.15000    
               vcte:    0.0000    
               rinn:    0.0000    
                rcs:    9.0000      2.5000      3.6000    
            lambdas:    1.0000      1.0000      1.0000    
-------------------------------------------------------------------------------
L=0  Nkbl=1  erefs: 0.17977+309
L=1  Nkbl=1  erefs: 0.17977+309
L=2  Nkbl=1  erefs: 0.17977+309
L=3  Nkbl=1  erefs: 0.17977+309
===============================================================================
</basis_specs>

atom: Called for C                     (Z =   6)

read_vps: Pseudopotential generation method:
read_vps: ATM3.3    Troullier-Martins                       
Total valence charge:    4.00000

xc_check: Exchange-correlation functional:
xc_check: VDW LMKLL
xc_check: WARNING: Pseudopotential generated with Unknown atomic XC code functional
V l=0 = -2*Zval/r beyond r=  5.3157
V l=1 = -2*Zval/r beyond r=  5.3157
V l=2 = -2*Zval/r beyond r=  5.3157
V l=3 = -2*Zval/r beyond r=  5.3157
All V_l potentials equal beyond r=  1.5418
This should be close to max(r_c) in ps generation
All pots = -2*Zval/r beyond r=  5.3157
Using large-core scheme for Vlocal

atom: Estimated core radius    5.31569

atom: Including non-local core corrections could be a good idea
atom: Maximum radius for 4*pi*r*r*local-pseudopot. charge    5.72973
atom: Maximum radius for r*vlocal+2*Zval:    5.38256
GHOST: No ghost state for L =  0
GHOST: No ghost state for L =  1
GHOST: No ghost state for L =  2
GHOST: No ghost state for L =  3

KBgen: Kleinman-Bylander projectors: 
   l= 0   rc=  1.600766   el= -1.028746   Ekb=  4.362799   kbcos=  0.292106
   l= 1   rc=  1.600766   el= -0.417779   Ekb= -4.642779   kbcos= -0.389769
   l= 2   rc=  1.600766   el=  0.000137   Ekb= -1.256278   kbcos= -0.011586
   l= 3   rc=  1.600766   el=  0.001231   Ekb= -0.552397   kbcos= -0.001665

KBgen: Total number of  Kleinman-Bylander projectors:   16
atom: -------------------------------------------------------------------------

atom: SANKEY-TYPE ORBITALS:
atom: Selected multiple-zeta basis: split     

SPLIT: Orbitals with angular momentum L= 0

SPLIT: Basis orbitals for state 2s

   izeta = 1
                 lambda =    1.000000
                     rc =    9.099279
                 energy =   -1.028782
                kinetic =    0.818365
    potential(screened) =   -1.847147
       potential(ionic) =   -5.384555

   izeta = 2
                 rmatch =    2.740361
              splitnorm =    0.376993
                 energy =   -0.589586
                kinetic =    1.807161
    potential(screened) =   -2.396748
       potential(ionic) =   -6.344602

   izeta = 3
                 rmatch =    3.607901
              splitnorm =    0.134907
                 energy =   -0.911262
                kinetic =    1.252630
    potential(screened) =   -2.163892
       potential(ionic) =   -5.956700

SPLIT: Orbitals with angular momentum L= 1

SPLIT: Basis orbitals for state 2p

   izeta = 1
                 lambda =    1.000000
                     rc =    9.099279
                 energy =   -0.417701
                kinetic =    2.341737
    potential(screened) =   -2.759439
       potential(ionic) =   -6.120003

   izeta = 2
                 rmatch =    2.542323
              splitnorm =    0.421681
                 energy =    0.194476
                kinetic =    5.514744
    potential(screened) =   -5.320268
       potential(ionic) =   -9.401931

   izeta = 3
                 rmatch =    3.607901
              splitnorm =    0.186223
                 energy =   -0.262948
                kinetic =    3.720245
    potential(screened) =   -3.983193
       potential(ionic) =   -7.803234

POLgen: Perturbative polarization orbital with L=  2

POLgen: Polarization orbital for state 2p

   izeta = 1
                     rc =    9.099279
                 energy =    0.851019
                kinetic =    1.874696
    potential(screened) =   -1.023677
       potential(ionic) =   -3.588173
atom: Total number of Sankey-type orbitals: 17

atm_pop: Valence configuration (for local Pseudopot. screening):
 2s( 2.00)                                                            
 2p( 2.00)                                                            
Vna: chval, zval:    4.00000   4.00000

Vna:  Cut-off radius for the neutral-atom potential:   9.099279

atom: _________________________________________________________________________

<basis_specs>
===============================================================================
S                    Z=  16    Mass=  32.070        Charge= 0.17977+309
Lmxo=1 Lmxkb= 3    BasisType=split      Semic=F
L=0  Nsemic=0  Cnfigmx=3
          n=1  nzeta=3  polorb=0
            splnorm:   0.15000    
               vcte:    0.0000    
               rinn:    0.0000    
                rcs:    8.5000      2.5000      5.0000    
            lambdas:    1.0000      1.0000      1.0000    
L=1  Nsemic=0  Cnfigmx=3
          n=1  nzeta=3  polorb=1
            splnorm:   0.15000    
               vcte:    0.0000    
               rinn:    0.0000    
                rcs:    8.5000      2.4000      5.4000    
            lambdas:    1.0000      1.0000      1.0000    
-------------------------------------------------------------------------------
L=0  Nkbl=1  erefs: 0.17977+309
L=1  Nkbl=1  erefs: 0.17977+309
L=2  Nkbl=1  erefs: 0.17977+309
L=3  Nkbl=1  erefs: 0.17977+309
===============================================================================
</basis_specs>

atom: Called for S                     (Z =  16)

read_vps: Pseudopotential generation method:
read_vps: ATM3.3    Troullier-Martins                       
Total valence charge:    6.00000

xc_check: Exchange-correlation functional:
xc_check: VDW LMKLL
xc_check: WARNING: Pseudopotential generated with Unknown atomic XC code functional
V l=0 = -2*Zval/r beyond r=  6.0641
V l=1 = -2*Zval/r beyond r=  6.0641
V l=2 = -2*Zval/r beyond r=  6.0641
V l=3 = -2*Zval/r beyond r=  6.0641
All V_l potentials equal beyond r=  1.8726
This should be close to max(r_c) in ps generation
All pots = -2*Zval/r beyond r=  6.0641
Using large-core scheme for Vlocal

atom: Estimated core radius    6.06410

atom: Including non-local core corrections could be a good idea
atom: Maximum radius for 4*pi*r*r*local-pseudopot. charge    2.55960
atom: Maximum radius for r*vlocal+2*Zval:    6.14038
GHOST: No ghost state for L =  0
GHOST: No ghost state for L =  1
GHOST: No ghost state for L =  2
GHOST: No ghost state for L =  3

KBgen: Kleinman-Bylander projectors: 
   l= 0   rc=  1.944163   el= -1.280897   Ekb=  6.395246   kbcos=  0.283459
   l= 1   rc=  1.944163   el= -0.534686   Ekb=  1.645939   kbcos=  0.250402
   l= 2   rc=  1.944163   el=  0.000165   Ekb= -3.764048   kbcos= -0.059734
   l= 3   rc=  1.944163   el=  0.001272   Ekb= -1.091229   kbcos= -0.004621

KBgen: Total number of  Kleinman-Bylander projectors:   16
atom: -------------------------------------------------------------------------

atom: SANKEY-TYPE ORBITALS:
atom: Selected multiple-zeta basis: split     

SPLIT: Orbitals with angular momentum L= 0

SPLIT: Basis orbitals for state 3s

   izeta = 1
                 lambda =    1.000000
                     rc =    8.605429
                 energy =   -1.280962
                kinetic =    0.826070
    potential(screened) =   -2.107032
       potential(ionic) =   -7.040627

   izeta = 2
                 rmatch =    2.527802
              splitnorm =    0.583939
                 energy =    0.038605
                kinetic =    3.083455
    potential(screened) =   -3.044850
       potential(ionic) =   -8.363708

   izeta = 3
                 rmatch =    5.090524
              splitnorm =    0.013701
                 energy =   -1.269004
* WARNING: effective split_norm is quite small. Orbitals will be very similar.
                kinetic =    0.936613
    potential(screened) =   -2.205617
       potential(ionic) =   -7.226785

SPLIT: Orbitals with angular momentum L= 1

SPLIT: Basis orbitals for state 3p

   izeta = 1
                 lambda =    1.000000
                     rc =    8.605429
                 energy =   -0.534578
                kinetic =    1.389438
    potential(screened) =   -1.924015
       potential(ionic) =   -6.449639

   izeta = 2
                 rmatch =    2.404512
              splitnorm =    0.643930
                 energy =    0.750024
                kinetic =    4.180831
    potential(screened) =   -3.430807
       potential(ionic) =   -8.937179

   izeta = 3
                 rmatch =    5.487008
              splitnorm =    0.036903
                 energy =   -0.510885
* WARNING: effective split_norm is quite small. Orbitals will be very similar.
                kinetic =    1.634978
    potential(screened) =   -2.145863
       potential(ionic) =   -6.883370

POLgen: Perturbative polarization orbital with L=  2

POLgen: Polarization orbital for state 3p

   izeta = 1
                     rc =    8.605429
                 energy =    0.525734
                kinetic =    1.769545
    potential(screened) =   -1.243810
       potential(ionic) =   -5.158576
atom: Total number of Sankey-type orbitals: 17

atm_pop: Valence configuration (for local Pseudopot. screening):
 3s( 2.00)                                                            
 3p( 4.00)                                                            
Vna: chval, zval:    6.00000   6.00000

Vna:  Cut-off radius for the neutral-atom potential:   8.605429

atom: _________________________________________________________________________

<basis_specs>
===============================================================================
Na                   Z=  11    Mass=  22.990        Charge= 0.17977+309
Lmxo=0 Lmxkb= 2    BasisType=split      Semic=F
L=0  Nsemic=0  Cnfigmx=3
          n=1  nzeta=3  polorb=1
            splnorm:   0.15000    
               vcte:    0.0000    
               rinn:    0.0000    
                rcs:    0.0000      0.0000      0.0000    
            lambdas:    1.0000      1.0000      1.0000    
-------------------------------------------------------------------------------
L=0  Nkbl=1  erefs: 0.17977+309
L=1  Nkbl=1  erefs: 0.17977+309
L=2  Nkbl=1  erefs: 0.17977+309
===============================================================================
</basis_specs>

atom: Called for Na                    (Z =  11)

read_vps: Pseudopotential generation method:
read_vps: ATM3.3    Troullier-Martins                       
Total valence charge:    1.00000

xc_check: Exchange-correlation functional:
xc_check: VDW LMKLL
xc_check: WARNING: Pseudopotential generated with Unknown atomic XC code functional
V l=0 = -2*Zval/r beyond r= 10.7734
V l=1 = -2*Zval/r beyond r= 10.7734
V l=2 = -2*Zval/r beyond r= 10.7734
All V_l potentials equal beyond r=  3.2447
This should be close to max(r_c) in ps generation
All pots = -2*Zval/r beyond r= 10.7734
Using large-core scheme for Vlocal

atom: Estimated core radius   10.77344

atom: Including non-local core corrections could be a good idea
atom: Maximum radius for 4*pi*r*r*local-pseudopot. charge   11.32582
atom: Maximum radius for r*vlocal+2*Zval:   10.90896
GHOST: No ghost state for L =  0
GHOST: No ghost state for L =  1
GHOST: No ghost state for L =  2

KBgen: Kleinman-Bylander projectors: 
   l= 0   rc=  3.326887   el= -0.223037   Ekb=  0.939964   kbcos=  0.286137
   l= 1   rc=  3.497472   el= -0.067121   Ekb=  0.240696   kbcos=  0.324664
   l= 2   rc=  3.368737   el=  0.000162   Ekb= -1.792814   kbcos= -0.038461

KBgen: Total number of  Kleinman-Bylander projectors:    9
atom: -------------------------------------------------------------------------

atom: SANKEY-TYPE ORBITALS:
atom: Selected multiple-zeta basis: split     

SPLIT: Orbitals with angular momentum L= 0

SPLIT: Basis orbitals for state 3s

SPLIT: PAO cut-off radius determined from an
SPLIT: energy shift=  0.001000 Ry

   izeta = 1
                 lambda =    1.000000
                     rc =   11.612537
                 energy =   -0.222079
                kinetic =    0.147697
    potential(screened) =   -0.369777
       potential(ionic) =   -0.537811

   izeta = 2
                 rmatch =    8.710933
              splitnorm =    0.150000
                 energy =   -0.200365
                kinetic =    0.229153
    potential(screened) =   -0.429518
       potential(ionic) =   -0.594738

   izeta = 3
                 rmatch =    9.748190
              splitnorm =    0.075000
                 energy =   -0.210516
                kinetic =    0.202428
    potential(screened) =   -0.412944
       potential(ionic) =   -0.579751

POLgen: Perturbative polarization orbital with L=  1

POLgen: Polarization orbital for state 3s

   izeta = 1
                     rc =   11.612537
                 energy =   -0.044013
                kinetic =    0.282735
    potential(screened) =   -0.326748
       potential(ionic) =   -0.491619
atom: Total number of Sankey-type orbitals:  6

atm_pop: Valence configuration (for local Pseudopot. screening):
 3s( 1.00)                                                            
Vna: chval, zval:    1.00000   1.00000

Vna:  Cut-off radius for the neutral-atom potential:  11.612537

atom: _________________________________________________________________________

<basis_specs>
===============================================================================
N                    Z=   7    Mass=  14.010        Charge= 0.17977+309
Lmxo=1 Lmxkb= 3    BasisType=split      Semic=F
L=0  Nsemic=0  Cnfigmx=2
          n=1  nzeta=3  polorb=0
            splnorm:   0.15000    
               vcte:    0.0000    
               rinn:    0.0000    
                rcs:    9.0000      2.5000      4.3000    
            lambdas:    1.0000      1.0000      1.0000    
L=1  Nsemic=0  Cnfigmx=2
          n=1  nzeta=3  polorb=1
            splnorm:   0.15000    
               vcte:    0.0000    
               rinn:    0.0000    
                rcs:    9.0000      2.4000      3.8000    
            lambdas:    1.0000      1.0000      1.0000    
-------------------------------------------------------------------------------
L=0  Nkbl=1  erefs: 0.17977+309
L=1  Nkbl=1  erefs: 0.17977+309
L=2  Nkbl=1  erefs: 0.17977+309
L=3  Nkbl=1  erefs: 0.17977+309
===============================================================================
</basis_specs>

atom: Called for N                     (Z =   7)

read_vps: Pseudopotential generation method:
read_vps: ATM3.3    Troullier-Martins                       
Total valence charge:    5.00000

xc_check: Exchange-correlation functional:
xc_check: VDW LMKLL
xc_check: WARNING: Pseudopotential generated with Unknown atomic XC code functional
V l=0 = -2*Zval/r beyond r=  4.3886
V l=1 = -2*Zval/r beyond r=  4.3886
V l=2 = -2*Zval/r beyond r=  4.3886
V l=3 = -2*Zval/r beyond r=  4.3886
All V_l potentials equal beyond r=  1.4606
This should be close to max(r_c) in ps generation
All pots = -2*Zval/r beyond r=  4.3886
Using large-core scheme for Vlocal

atom: Estimated core radius    4.38860

atom: Including non-local core corrections could be a good idea
atom: Maximum radius for 4*pi*r*r*local-pseudopot. charge    4.78993
atom: Maximum radius for r*vlocal+2*Zval:    4.44380
GHOST: No ghost state for L =  0
GHOST: No ghost state for L =  1
GHOST: No ghost state for L =  2
GHOST: No ghost state for L =  3

KBgen: Kleinman-Bylander projectors: 
   l= 0   rc=  1.516426   el= -1.384037   Ekb=  5.003330   kbcos=  0.248027
   l= 1   rc=  1.516426   el= -0.553554   Ekb= -6.239124   kbcos= -0.455113
   l= 2   rc=  1.516426   el=  0.000157   Ekb= -1.621527   kbcos= -0.009557
   l= 3   rc=  1.516426   el=  0.001260   Ekb= -0.721831   kbcos= -0.001322

KBgen: Total number of  Kleinman-Bylander projectors:   16
atom: -------------------------------------------------------------------------

atom: SANKEY-TYPE ORBITALS:
atom: Selected multiple-zeta basis: split     

SPLIT: Orbitals with angular momentum L= 0

SPLIT: Basis orbitals for state 2s

   izeta = 1
                 lambda =    1.000000
                     rc =    9.061646
                 energy =   -1.384083
                kinetic =    1.138478
    potential(screened) =   -2.522561
       potential(ionic) =   -8.023340

   izeta = 2
                 rmatch =    2.531849
              splitnorm =    0.279302
                 energy =   -0.984788
                kinetic =    2.167047
    potential(screened) =   -3.151835
       potential(ionic) =   -9.249578

   izeta = 3
                 rmatch =    4.280232
              splitnorm =    0.017802
                 energy =   -1.364927
* WARNING: effective split_norm is quite small. Orbitals will be very similar.
                kinetic =    1.305680
    potential(screened) =   -2.670607
       potential(ionic) =   -8.325817

SPLIT: Orbitals with angular momentum L= 1

SPLIT: Basis orbitals for state 2p

   izeta = 1
                 lambda =    1.000000
                     rc =    9.061646
                 energy =   -0.553581
                kinetic =    3.375830
    potential(screened) =   -3.929411
       potential(ionic) =   -9.175051

   izeta = 2
                 rmatch =    2.408352
              splitnorm =    0.319803
                 energy =   -0.019422
                kinetic =    6.675109
    potential(screened) =   -6.694530
       potential(ionic) =  -12.919528

   izeta = 3
                 rmatch =    3.777250
              splitnorm =    0.083818
                 energy =   -0.477376
                kinetic =    4.399373
    potential(screened) =   -4.876748
       potential(ionic) =  -10.589170

POLgen: Perturbative polarization orbital with L=  2

POLgen: Polarization orbital for state 2p

   izeta = 1
                     rc =    9.061646
                 energy =    1.274251
                kinetic =    2.706331
    potential(screened) =   -1.432079
       potential(ionic) =   -5.376240
atom: Total number of Sankey-type orbitals: 17

atm_pop: Valence configuration (for local Pseudopot. screening):
 2s( 2.00)                                                            
 2p( 3.00)                                                            
Vna: chval, zval:    5.00000   5.00000

Vna:  Cut-off radius for the neutral-atom potential:   9.061646

atom: _________________________________________________________________________

<basis_specs>
===============================================================================
O                    Z=   8    Mass=  16.000        Charge= 0.17977+309
Lmxo=1 Lmxkb= 3    BasisType=split      Semic=F
L=0  Nsemic=0  Cnfigmx=2
          n=1  nzeta=3  polorb=0
            splnorm:   0.15000    
               vcte:    0.0000    
               rinn:    0.0000    
                rcs:    8.5000      2.5000      5.0000    
            lambdas:    1.0000      1.0000      1.0000    
L=1  Nsemic=0  Cnfigmx=2
          n=1  nzeta=3  polorb=1
            splnorm:   0.15000    
               vcte:    0.0000    
               rinn:    0.0000    
                rcs:    9.0000      2.4000      5.4000    
            lambdas:    1.0000      1.0000      1.0000    
-------------------------------------------------------------------------------
L=0  Nkbl=1  erefs: 0.17977+309
L=1  Nkbl=1  erefs: 0.17977+309
L=2  Nkbl=1  erefs: 0.17977+309
L=3  Nkbl=1  erefs: 0.17977+309
===============================================================================
</basis_specs>

atom: Called for O                     (Z =   8)

read_vps: Pseudopotential generation method:
read_vps: ATM3.3    Troullier-Martins                       
Total valence charge:    6.00000

xc_check: Exchange-correlation functional:
xc_check: VDW LMKLL
xc_check: WARNING: Pseudopotential generated with Unknown atomic XC code functional
V l=0 = -2*Zval/r beyond r=  2.6723
V l=1 = -2*Zval/r beyond r=  2.6723
V l=2 = -2*Zval/r beyond r=  2.6723
V l=3 = -2*Zval/r beyond r=  2.6723
All V_l potentials equal beyond r=  1.4482
This should be close to max(r_c) in ps generation
All pots = -2*Zval/r beyond r=  2.6723
Using large-core scheme for Vlocal

atom: Estimated core radius    2.67231

atom: Including non-local core corrections could be a good idea
atom: Maximum radius for 4*pi*r*r*local-pseudopot. charge    3.14389
atom: Maximum radius for r*vlocal+2*Zval:    2.70593
GHOST: No ghost state for L =  0
GHOST: No ghost state for L =  1
GHOST: No ghost state for L =  2
GHOST: No ghost state for L =  3

KBgen: Kleinman-Bylander projectors: 
   l= 0   rc=  1.503585   el= -1.779675   Ekb= -9.464596   kbcos= -0.084701
   l= 1   rc=  1.503585   el= -0.699088   Ekb= -8.000316   kbcos= -0.523182
   l= 2   rc=  1.503585   el=  0.000197   Ekb= -1.973137   kbcos= -0.008602
   l= 3   rc=  1.503585   el=  0.001319   Ekb= -0.877897   kbcos= -0.001222

KBgen: Total number of  Kleinman-Bylander projectors:   16
atom: -------------------------------------------------------------------------

atom: SANKEY-TYPE ORBITALS:
atom: Selected multiple-zeta basis: split     

SPLIT: Orbitals with angular momentum L= 0

SPLIT: Basis orbitals for state 2s

   izeta = 1
                 lambda =    1.000000
                     rc =    8.546503
                 energy =   -1.779728
                kinetic =    1.517373
    potential(screened) =   -3.297102
       potential(ionic) =  -11.177458

   izeta = 2
                 rmatch =    2.510382
              splitnorm =    0.165477
                 energy =   -1.504871
                kinetic =    2.431996
    potential(screened) =   -3.936867
       potential(ionic) =  -12.514426

   izeta = 3
                 rmatch =    5.055603
              splitnorm =    0.001104
                 energy =   -1.778115
* WARNING: effective split_norm is quite small. Orbitals will be very similar.
                kinetic =    1.561881
    potential(screened) =   -3.339996
       potential(ionic) =  -11.273025

SPLIT: Orbitals with angular momentum L= 1

SPLIT: Basis orbitals for state 2p

   izeta = 1
                 lambda =    1.000000
                     rc =    8.984708
                 energy =   -0.699155
                kinetic =    4.481222
    potential(screened) =   -5.180377
       potential(ionic) =  -12.692538

   izeta = 2
                 rmatch =    2.387934
              splitnorm =    0.223278
                 energy =   -0.294690
                kinetic =    7.512089
    potential(screened) =   -7.806779
       potential(ionic) =  -16.470490

   izeta = 3
                 rmatch =    5.449379
              splitnorm =    0.004964
                 energy =   -0.694858
* WARNING: effective split_norm is quite small. Orbitals will be very similar.
                kinetic =    4.668557
    potential(screened) =   -5.363415
       potential(ionic) =  -13.004195

POLgen: Perturbative polarization orbital with L=  2

POLgen: Polarization orbital for state 2p

   izeta = 1
                     rc =    8.984708
                 energy =    1.782562
                kinetic =    3.710549
    potential(screened) =   -1.927987
       potential(ionic) =   -7.553219
atom: Total number of Sankey-type orbitals: 17

atm_pop: Valence configuration (for local Pseudopot. screening):
 2s( 2.00)                                                            
 2p( 4.00)                                                            
Vna: chval, zval:    6.00000   6.00000

Vna:  Cut-off radius for the neutral-atom potential:   8.984708

atom: _________________________________________________________________________

<basis_specs>
===============================================================================
H                    Z=   1    Mass=  1.0100        Charge= 0.17977+309
Lmxo=0 Lmxkb= 2    BasisType=split      Semic=F
L=0  Nsemic=0  Cnfigmx=1
          n=1  nzeta=3  polorb=1
            splnorm:   0.50000    
               vcte:    0.0000    
               rinn:    0.0000    
                rcs:    8.0000      1.8000      4.1000    
            lambdas:    1.0000      1.0000      1.0000    
-------------------------------------------------------------------------------
L=0  Nkbl=1  erefs: 0.17977+309
L=1  Nkbl=1  erefs: 0.17977+309
L=2  Nkbl=1  erefs: 0.17977+309
===============================================================================
</basis_specs>

atom: Called for H                     (Z =   1)

read_vps: Pseudopotential generation method:
read_vps: ATM3.3    Troullier-Martins                       
Total valence charge:    1.00000

xc_check: Exchange-correlation functional:
xc_check: VDW LMKLL
xc_check: WARNING: Pseudopotential generated with Unknown atomic XC code functional
V l=0 = -2*Zval/r beyond r=  1.3644
V l=1 = -2*Zval/r beyond r=  1.3474
V l=2 = -2*Zval/r beyond r=  1.3474
All V_l potentials equal beyond r=  1.2343
This should be close to max(r_c) in ps generation
All pots = -2*Zval/r beyond r=  1.3644

VLOCAL1: 99.0% of the norm of Vloc inside     28.493 Ry
VLOCAL1: 99.9% of the norm of Vloc inside     64.935 Ry
atom: Maximum radius for 4*pi*r*r*local-pseudopot. charge    1.45251
atom: Maximum radius for r*vlocal+2*Zval:    1.21892
GHOST: No ghost state for L =  0
GHOST: No ghost state for L =  1
GHOST: No ghost state for L =  2

KBgen: Kleinman-Bylander projectors: 
   l= 0   rc=  1.625762   el= -0.519992   Ekb= -2.047279   kbcos= -0.354363
   l= 1   rc=  2.519390   el= -0.000771   Ekb= -0.506821   kbcos= -0.022580
   l= 2   rc=  2.927514   el=  0.000176   Ekb= -0.221733   kbcos= -0.002090

KBgen: Total number of  Kleinman-Bylander projectors:    9
atom: -------------------------------------------------------------------------

atom: SANKEY-TYPE ORBITALS:
atom: Selected multiple-zeta basis: split     

SPLIT: Orbitals with angular momentum L= 0

SPLIT: Basis orbitals for state 1s

   izeta = 1
                 lambda =    1.000000
                     rc =    7.962068
                 energy =   -0.519774
                kinetic =    0.910189
    potential(screened) =   -1.429963
       potential(ionic) =   -1.906963

   izeta = 2
                 rmatch =    1.819640
              splitnorm =    0.711859
                 energy =    1.124022
                kinetic =    4.644871
    potential(screened) =   -3.520849
       potential(ionic) =   -3.960301

   izeta = 3
                 rmatch =    4.155379
              splitnorm =    0.140914
                 energy =   -0.434175
                kinetic =    1.462160
    potential(screened) =   -1.896335
       potential(ionic) =   -2.393173

POLgen: Perturbative polarization orbital with L=  1

POLgen: Polarization orbital for state 1s

   izeta = 1
                     rc =    7.962068
                 energy =    0.477749
                kinetic =    1.090716
    potential(screened) =   -0.612967
       potential(ionic) =   -1.043837
atom: Total number of Sankey-type orbitals:  6

atm_pop: Valence configuration (for local Pseudopot. screening):
 1s( 1.00)                                                            
Vna: chval, zval:    1.00000   1.00000

Vna:  Cut-off radius for the neutral-atom potential:   7.962068

atom: _________________________________________________________________________

prinput: Basis input ----------------------------------------------------------

PAO.BasisType split     

%block ChemicalSpeciesLabel
    1    6 C                       # Species index, atomic number, species label
    2   16 S                       # Species index, atomic number, species label
    3   11 Na                      # Species index, atomic number, species label
    4    7 N                       # Species index, atomic number, species label
    5    8 O                       # Species index, atomic number, species label
    6    1 H                       # Species index, atomic number, species label
%endblock ChemicalSpeciesLabel

%block PAO.Basis                 # Define Basis set
C                     2                    # Species label, number of l-shells
 n=2   0   3                         # n, l, Nzeta 
   9.099      2.740      3.608   
   1.000      1.000      1.000   
 n=2   1   3 P   1                   # n, l, Nzeta, Polarization, NzetaPol
   9.099      2.542      3.608   
   1.000      1.000      1.000   
S                     2                    # Species label, number of l-shells
 n=3   0   3                         # n, l, Nzeta 
   8.605      2.528      5.091   
   1.000      1.000      1.000   
 n=3   1   3 P   1                   # n, l, Nzeta, Polarization, NzetaPol
   8.605      2.405      5.487   
   1.000      1.000      1.000   
Na                    1                    # Species label, number of l-shells
 n=3   0   3 P   1                   # n, l, Nzeta, Polarization, NzetaPol
  11.613      8.711      9.748   
   1.000      1.000      1.000   
N                     2                    # Species label, number of l-shells
 n=2   0   3                         # n, l, Nzeta 
   9.062      2.532      4.280   
   1.000      1.000      1.000   
 n=2   1   3 P   1                   # n, l, Nzeta, Polarization, NzetaPol
   9.062      2.408      3.777   
   1.000      1.000      1.000   
O                     2                    # Species label, number of l-shells
 n=2   0   3                         # n, l, Nzeta 
   8.547      2.510      5.056   
   1.000      1.000      1.000   
 n=2   1   3 P   1                   # n, l, Nzeta, Polarization, NzetaPol
   8.985      2.388      5.449   
   1.000      1.000      1.000   
H                     1                    # Species label, number of l-shells
 n=1   0   3 P   1                   # n, l, Nzeta, Polarization, NzetaPol
   7.962      1.820      4.155   
   1.000      1.000      1.000   
%endblock PAO.Basis

prinput: ----------------------------------------------------------------------

coor:   Atomic-coordinates input format  =     Cartesian coordinates
coor:                                          (in Angstroms)

siesta: WARNING: XV file not found

siesta: Atomic coordinates (Bohr) and species
siesta:     20.36640  20.10117  27.36137  5        1
siesta:     22.47067  18.32106  31.20408  5        2
siesta:     22.45177  15.81567  27.19220  5        3
siesta:     22.66566  18.53025  28.27615  2        4
siesta:     35.11142  27.72321  26.06815  5        5
siesta:     33.01668  26.53537  26.23602  1        6
siesta:     30.68435  29.97254  26.19181  6        7
siesta:     30.57908  27.91344  26.31948  1        8
siesta:     26.52653  27.71548  26.62206  6        9
siesta:     28.30043  26.65072  26.55390  1       10
siesta:     28.14213  23.87803  26.73293  1       11
siesta:     24.01182  23.78363  27.26491  6       12
siesta:     25.74399  22.66872  27.11985  1       13
siesta:     25.65150  20.01231  27.35264  1       14
siesta:     27.68815  16.41922  27.23082  6       15
siesta:     27.85560  18.47214  27.10775  1       16
siesta:     31.92946  18.51090  26.54684  6       17
siesta:     30.22137  19.65424  26.71799  1       18
siesta:     30.42828  22.36192  26.59251  1       19
siesta:     32.91883  23.67854  26.37690  1       20
siesta:     35.00592  22.19413  26.44085  4       21
siesta:     37.30210  25.28280  26.15791  6       22
siesta:     37.29411  23.30828  26.30244  4       23
siesta:     41.78021  15.84983  27.80233  6       24
siesta:     41.78390  17.88512  27.45970  1       25
siesta:     37.68922  18.20449  26.98555  6       26
siesta:     39.49656  19.19464  27.00139  1       27
siesta:     39.54929  21.87909  26.61569  1       28
siesta:     41.91916  25.26299  26.26724  6       29
siesta:     41.90218  23.22166  26.59400  1       30
siesta:     46.00799  22.89023  27.09714  6       31
siesta:     44.19425  21.90833  27.05509  1       32
siesta:     44.10022  19.26253  27.51354  1       33
siesta:     47.61362  15.36163  26.65278  5       34
siesta:     49.29009  19.44885  28.41223  5       35
siesta:     47.00234  17.61167  28.42639  2       36
siesta:     46.74824  16.52999  31.14729  5       37
siesta:     49.52860  19.05983  18.90056  5       38
siesta:     47.11819  17.92919  17.67677  2       39
siesta:     47.44725  18.14727  14.76087  5       40
siesta:     46.96577  15.07759  18.33273  5       41
siesta:     44.26532  19.58199  18.71755  1       42
siesta:     44.36844  22.24346  19.09032  1       43
siesta:     46.17569  23.23399  18.98388  6       44
siesta:     42.08929  23.56477  19.57115  1       45
siesta:     42.10539  25.61621  19.82576  6       46
siesta:     39.73774  22.21615  19.65171  1       47
siesta:     39.68137  19.52092  19.38078  1       48
siesta:     37.87935  18.52587  19.48922  6       49
siesta:     41.96160  18.20019  18.90371  1       50
siesta:     41.97721  16.15264  18.65374  6       51
siesta:     37.49654  23.66796  19.93943  4       52
siesta:     37.52583  25.64976  19.98969  6       53
siesta:     35.19197  22.58546  19.79504  4       54
siesta:     33.14258  24.12838  19.74610  1       55
siesta:     30.62258  22.87415  19.50391  1       56
siesta:     30.34152  20.17065  19.49015  1       57
siesta:     32.00635  18.98822  19.78482  6       58
siesta:     27.95903  19.03733  19.04963  1       59
siesta:     27.73423  16.98671  19.00493  6       60
siesta:     25.81196  20.62412  18.64714  1       61
siesta:     25.97375  23.28650  18.77010  1       62
siesta:     24.28363  24.44472  18.50739  6       63
siesta:     28.38845  24.44615  19.20107  1       64
siesta:     28.62459  27.21890  19.25249  1       65
siesta:     26.88862  28.32976  19.06331  6       66
siesta:     30.93013  28.42638  19.50994  1       67
siesta:     31.09418  30.48539  19.53621  6       68
siesta:     33.32140  26.98576  19.74321  1       69
siesta:     35.44467  28.12117  19.90065  5       70
siesta:     22.80176  19.19255  17.70434  2       71
siesta:     22.65541  16.39148  18.55402  5       72
siesta:     20.53114  20.64909  18.84911  5       73
siesta:     22.48121  19.23352  14.78053  5       74
siesta:     50.54230  15.61153  29.67145  3       75
siesta:     19.14176  17.41852  16.45831  3       76
siesta:     19.03957  16.69590  29.52650  3       77
siesta:     50.57758  15.88668  16.27379  3       78

siesta: System type = molecule  

initatomlists: Number of atoms, orbitals, and projectors:     78  1062  1080

siesta: ******************** Simulation parameters ****************************
siesta:
siesta: The following are some of the parameters of the simulation.
siesta: A complete list of the parameters used, including default values,
siesta: can be found in file out.fdf
siesta:
redata: Non-Collinear-spin run           =     F
redata: SpinPolarized (Up/Down) run      =     F
redata: Number of spin components        =     1
redata: Long output                      =     T
redata: Number of Atomic Species         =        6
redata: Charge density info will appear in .RHO file
redata: Write Mulliken Pop.              =     Atomic and Orbital charges
redata: Mesh Cutoff                      =   300.0000  Ry
redata: Net charge of the system         =     0.0000 |e|
redata: Max. number of SCF Iter          =      500
redata: Performing Pulay mixing using    =     5 iterations
redata: Mix DM in first SCF step ?       =     F
redata: Write Pulay info on disk?        =     F
redata: Discard 1st Pulay DM after  kick =     F
redata: New DM Mixing Weight             =     0.2500
redata: New DM Occupancy tolerance       = 0.000000000001
redata: No kicks to SCF
redata: DM Mixing Weight for Kicks       =     0.5000
redata: DM Tolerance for SCF             =     0.000100
redata: Require Energy convergence for SCF =     F
redata: DM Energy tolerance for SCF      =     0.000100 eV
redata: Require Harris convergence for SCF =     F
redata: DM Harris energy tolerance for SCF =     0.000100 eV
redata: Using Saved Data (generic)   =     T
redata: Use continuation files for DM    =     T
redata: Neglect nonoverlap interactions  =     F
redata: Method of Calculation            =     Diagonalization
redata: Divide and Conquer               =     T
redata: Electronic Temperature           =     0.0019  Ry
redata: Fix the spin of the system       =     F
redata: Dynamics option                  =     CG coord. optimization
redata: Variable cell                    =     F
redata: Use continuation files for CG    =     T
redata: Max atomic displ per move        =     0.2000  Bohr
redata: Maximum number of CG moves       =        0
redata: Force tolerance                  =     0.0004  Ry/Bohr
redata: ***********************************************************************
Total number of electrons:   280.000000
Total ionic charge:   280.000000

* ProcessorY, Blocksize:    6  23

 Kpoints in:            1 . Kpoints trimmed:            1

siesta: k-point coordinates (Bohr**-1) and weights:
siesta:    1    0.000000    0.000000    0.000000       1.000000

siesta: k-grid: Number of k-points =     1
siesta: k-grid: Cutoff (effective) =    12.000 Ang
siesta: k-grid: Supercell and displacements
siesta: k-grid:    1   0   0      0.000
siesta: k-grid:    0   1   0      0.000
siesta: k-grid:    0   0   1      0.000

siesta:                 ==============================
                            Begin CG move =      0
                        ==============================

outcoor: Atomic coordinates (Ang):                          
   10.77743112   10.63707722   14.47900696   5       1  O
   11.89096399    9.69508380   16.51248192   5       2  O
   11.88096237    8.36929001   14.38948625   5       3  O
   11.99414688    9.80578210   14.96308831   2       4  S
   18.58015436   14.67048374   13.79466670   5       5  O
   17.47166838   14.04190718   13.88349937   1       6  C
   16.23745301   15.86078035   13.86010397   6       7  H
   16.18174503   14.77115006   13.92766434   1       8  C
   14.03722716   14.66639707   14.08778112   6       9  H
   14.97593535   14.10294555   14.05171073   1      10  C
   14.89216774   12.63570668   14.14645157   1      11  C
   12.70650068   12.58575119   14.42796518   6      12  H
   13.62312897   11.99576713   14.35119955   1      13  C
   13.57418302   10.59005293   14.47438663   1      14  C
   14.65193422    8.68867408   14.40992311   6      15  H
   14.74054102    9.77503423   14.34479536   1      16  C
   16.89633806    9.79554430   14.04797958   6      17  H
   15.99245132   10.40057154   14.13854507   1      18  C
   16.10194815   11.83341634   14.07214353   1      19  C
   17.41988549   12.53013874   13.95804836   1      20  C
   18.52432929   11.74462317   13.99189042   4      21  N
   19.73941585   13.37907469   13.84216641   6      22  H
   19.73518549   12.33420525   13.91864836   4      23  N
   22.10912577    8.38736523   14.71235292   6      24  H
   22.11107711    9.46439336   14.53104150   1      25  C
   19.94426683    9.63339671   14.28013357   6      26  H
   20.90067099   10.15736244   14.28851195   1      27  C
   20.92857439   11.57790938   14.08441161   1      28  C
   22.18265404   13.36859110   13.90001897   6      29  H
   22.17367167   12.28836811   14.07293493   1      30  C
   24.34636902   12.11298459   14.33918573   6      31  H
   23.38658121   11.59338677   14.31693019   1      32  C
   23.33681958   10.19328892   14.55953075   1      33  C
   25.19603400    8.12902261   14.10403911   5      34  O
   26.08318368   10.29188172   15.03510010   5      35  O
   24.87255963    9.31969318   15.04259063   2      36  S
   24.73809187    8.74728954   16.48242701   5      37  O
   26.20939807   10.08602320   10.00174077   5      38  O
   24.93386191    9.48771638    9.35413906   2      39  S
   25.10799333    9.60311855    7.81111359   5      40  O
   24.85320640    7.97871325    9.70125958   5      41  O
   23.42419128   10.36233736    9.90489878   1      42  C
   23.47875591   11.77072743   10.10215754   1      43  C
   24.43511083   12.29489177   10.04583348   6      44  H
   22.27268242   12.46993556   10.35660303   1      45  C
   22.28120323   13.55550967   10.49133566   6      46  H
   21.02830038   11.75627716   10.39923296   1      47  C
   20.99846805   10.33002055   10.25586416   1      48  C
   20.04488344    9.80346272   10.31324631   6      49  H
   22.20511475    9.63112256   10.00340772   1      50  C
   22.21337283    8.54760746    9.87112801   6      51  H
   19.84230912   12.52453771   10.55149015   4      52  N
   19.85780419   13.57326429   10.57808455   6      53  H
   18.62278280   11.95170818   10.47507977   4      54  N
   17.53829084   12.76818136   10.44918342   1      55  C
   16.20476718   12.10447367   10.32102044   1      56  C
   16.05603493   10.67384188   10.31373674   1      57  C
   16.93702194   10.04812756   10.46967300   6      58  H
   14.79527471   10.07411849   10.08062408   1      59  C
   14.67631903    8.98897871   10.05697032   6      60  H
   13.65909381   10.91380763    9.86763728   1      61  C
   13.74471147   12.32267791    9.93270373   1      62  C
   12.85033666   12.93558180    9.79368375   6      63  H
   15.02251450   12.93633811   10.16076483   1      64  C
   15.14747316   14.40361432   10.18797338   1      65  C
   14.22883770   14.99145937   10.08786473   6      66  H
   16.36751246   15.04258474   10.32421073   1      67  C
   16.45432618   16.13216475   10.33811061   6      68  H
   17.63291697   14.28024567   10.44765048   1      69  C
   18.75650244   14.88107598   10.53096614   5      70  O
   12.06616955   10.15625372    9.36872831   2      71  S
   11.98872442    8.67399203    9.81836272   5      72  O
   10.86460466   10.92702407    9.97451589   5      73  O
   11.89653893   10.17793634    7.82151811   5      74  O
   26.74582172    8.26126253   15.70144937   3      75  Na
   10.12937681    9.21747792    8.70935803   3      76  Na
   10.07530458    8.83508860   15.62474504   3      77  Na
   26.76449111    8.40686829    8.61171394   3      78  Na

outcell: Unit cell vectors (Ang):
       35.000000    0.000000    0.000000
        0.000000   24.000000    0.000000
        0.000000    0.000000   24.000000

outcell: Cell vector modules (Ang)   :   35.000000   24.000000   24.000000
outcell: Cell angles (23,13,12) (deg):     90.0000     90.0000     90.0000
outcell: Cell volume (Ang**3)        :  20160.0000
New_DM. Step:     1
Initializing Density Matrix...
New grid distribution:   1
           1       1:  192    1:   22    1:   16
           2       1:  192    1:   22   17:   32
           3       1:  192    1:   22   33:   48
           4       1:  192    1:   22   49:   64
           5       1:  192    1:   22   65:   80
           6       1:  192    1:   22   81:   96
           7       1:  192    1:   22   97:  112
           8       1:  192    1:   22  113:  128
           9       1:  192   23:   44    1:   16
          10       1:  192   23:   44   17:   32
          11       1:  192   23:   44   33:   48
          12       1:  192   23:   44   49:   64
          13       1:  192   23:   44   65:   80
          14       1:  192   23:   44   81:   96
          15       1:  192   23:   44   97:  112
          16       1:  192   23:   44  113:  128
          17       1:  192   45:   65    1:   16
          18       1:  192   45:   65   17:   32
          19       1:  192   45:   65   33:   48
          20       1:  192   45:   65   49:   64
          21       1:  192   45:   65   65:   80
          22       1:  192   45:   65   81:   96
          23       1:  192   45:   65   97:  112
          24       1:  192   45:   65  113:  128
          25       1:  192   66:   86    1:   16
          26       1:  192   66:   86   17:   32
          27       1:  192   66:   86   33:   48
          28       1:  192   66:   86   49:   64
          29       1:  192   66:   86   65:   80
          30       1:  192   66:   86   81:   96
          31       1:  192   66:   86   97:  112
          32       1:  192   66:   86  113:  128
          33       1:  192   87:  107    1:   16
          34       1:  192   87:  107   17:   32
          35       1:  192   87:  107   33:   48
          36       1:  192   87:  107   49:   64
          37       1:  192   87:  107   65:   80
          38       1:  192   87:  107   81:   96
          39       1:  192   87:  107   97:  112
          40       1:  192   87:  107  113:  128
          41       1:  192  108:  128    1:   16
          42       1:  192  108:  128   17:   32
          43       1:  192  108:  128   33:   48
          44       1:  192  108:  128   49:   64
          45       1:  192  108:  128   65:   80
          46       1:  192  108:  128   81:   96
          47       1:  192  108:  128   97:  112
          48       1:  192  108:  128  113:  128

InitMesh: MESH =   384 x   256 x   256 =    25165824
InitMesh: (bp) =   192 x   128 x   128 =     3145728
InitMesh: Mesh cutoff (required, used) =   300.000   314.455 Ry
ExtMesh (bp) on 0 =   328 x   154 x   148 =     7475776
New grid distribution:   2
           1       1:   78    1:   63    1:   51
           2     125:  192    1:   60   66:   72
           3      79:   98    1:   63   66:   71
           4       1:   78    1:   54   52:   65
           5     125:  192   51:   60   73:  128
           6       1:   78    1:   53   73:  128
           7      79:   98    1:   56   54:   65
           8     113:  192   62:   68   53:   65
           9     125:  192    1:   61    1:   50
          10      99:  124   54:   60   72:  128
          11      85:   98   64:   72   72:  128
          12     125:  192    1:   51   51:   65
          13       1:   78    1:   63   66:   72
          14     125:  192    1:   50   73:  128
          15     125:  192   52:   61   51:   65
          16      99:  112   61:  128   66:   71
          17      99:  124    1:   61    1:   53
          18      85:   98   64:  128    1:   53
          19      85:   98   64:  128   66:   71
          20      99:  124    1:   54   54:   65
          21      79:   98   57:   63   72:  128
          22      99:  124    1:   53   72:  128
          23       1:   78   54:   63   73:  128
          24     113:  192   61:   67   72:  128
          25       1:   84   64:  128    1:   52
          26      99:  112   62:  128    1:   54
          27       1:   78   55:   63   52:   65
          28       1:   84   64:   71   53:   65
          29      79:   98    1:   63    1:   53
          30       1:   84   64:   70   72:  128
          31      99:  124    1:   60   66:   71
          32      99:  112   61:   70   72:  128
          33     113:  192   62:  128    1:   52
          34      85:   98   74:  128   54:   65
          35      99:  124   55:   61   54:   65
          36     113:  192   69:  128   53:   65
          37       1:   84   64:  128   66:   71
          38     113:  192   68:  128   72:  128
          39      99:  112   71:  128   72:  128
          40      79:   98   57:   63   54:   65
          41      79:   98    1:   56   72:  128
          42      99:  112   72:  128   55:   65
          43      85:   98   64:   73   54:   65
          44       1:   84   72:  128   53:   65
          45     113:  192   61:  128   66:   71
          46       1:   84   71:  128   72:  128
          47      85:   98   73:  128   72:  128
          48      99:  112   62:   71   55:   65
New grid distribution:   3
           1       1:   59    1:   56    1:   37
           2     145:  192    1:   51    1:   36
           3     101:  131   51:  128   66:   76
           4     101:  144    1:   37   40:   65
           5       1:   71   55:   65   79:  128
           6       1:   59    1:   39   81:  128
           7      60:  100    1:   40   79:  128
           8      72:  100   55:  128   66:   76
           9     101:  131   71:  128   77:  128
          10     101:  144    1:   51    1:   39
          11     145:  192    1:   50   66:   80
          12     132:  192   52:   65   39:   65
          13      72:  100   57:  128    1:   43
          14     145:  192    1:   35   81:  128
          15     145:  192   36:   50   81:  128
          16     101:  144   38:   50   80:  128
          17     101:  131   52:  128    1:   43
          18     101:  144    1:   37   80:  128
          19     132:  192   51:   61   80:  128
          20       1:   59   41:   56   38:   65
          21      60:  100    1:   56    1:   39
          22     132:  192   51:  128   66:   79
          23       1:   59   40:   54   81:  128
          24      60:  100   41:   54   79:  128
          25       1:   71   57:  128    1:   39
          26       1:   59    1:   40   38:   65
          27      72:  100   55:   75   77:  128
          28       1:   71   57:   70   40:   65
          29       1:   71   55:  128   66:   78
          30       1:   71   66:  128   79:  128
          31     101:  131   51:   70   77:  128
          32     145:  192   36:   51   37:   65
          33     132:  192   52:  128    1:   38
          34     145:  192    1:   35   37:   65
          35      60:  100   41:   56   40:   65
          36     101:  131   77:  128   44:   65
          37     101:  144    1:   50   66:   79
          38     132:  192   62:  128   80:  128
          39      72:  100   76:  128   77:  128
          40     101:  131   52:   76   44:   65
          41       1:   59    1:   54   66:   80
          42     101:  144   38:   51   40:   65
          43      72:  100   82:  128   44:   65
          44       1:   71   71:  128   40:   65
          45     132:  192   66:  128   39:   65
          46      60:  100    1:   40   40:   65
          47      60:  100    1:   54   66:   78
          48      72:  100   57:   81   44:   65
Setting up quadratic distribution...
ExtMesh (bp) on 0 =   214 x   195 x   183 =     7636590
PhiOnMesh: Number of (b)points on node 0 =               250614
PhiOnMesh: nlist on node 0 =              1780594

stepf: Fermi-Dirac step function

siesta: Program's energy decomposition (eV):
siesta: Ebs     =     -4841.241272
siesta: Eions   =     18316.795456
siesta: Ena     =      2204.797960
siesta: Ekin    =      8067.495154
siesta: Enl     =     -2124.774126
siesta: DEna    =         0.000005
siesta: DUscf   =         0.000000
siesta: DUext   =         0.000000
siesta: Exc     =     -3534.630404
siesta: eta*DQ  =         0.000000
siesta: Emadel  =         0.000000
siesta: Emeta   =         0.000000
siesta: Emolmec =         0.000000
siesta: Ekinion =         0.000000
siesta: Eharris =    -13741.104577
siesta: Etot    =    -13703.906866
siesta: FreeEng =    -13703.906866

siesta: iscf   Eharris(eV)      E_KS(eV)   FreeEng(eV)   dDmax  Ef(eV)
siesta:    1   -13741.1046   -13703.9069   -13703.9069  9.4491 -8.1922
timer: Routine,Calls,Time,% =    IterSCF     1      39.469  57.12
siesta:    2   -13829.5328   -13619.9897   -13619.9897 39.1267 -1.2145
siesta:    3   -13706.8636   -13714.1050   -13714.2287 16.1007 -7.7779
siesta:    4   -13714.3061   -13679.3881   -13679.3881  9.5837 -6.8871
siesta:    5   -13728.7868   -13575.2344   -13575.2344  9.4090 -4.7749
siesta:    6   -13704.0142   -13575.8569   -13575.9326 10.7866 -4.6533
siesta:    7   -13719.7692   -13544.4501   -13544.4503 12.6515 -3.5587
siesta:    8   -13691.1708   -13647.2028   -13647.2436  5.3278 -5.7250
siesta:    9   -13688.9909   -13649.5743   -13649.5743  2.4486 -5.1723
siesta:   10   -13688.6295   -13665.9887   -13665.9887  1.2357 -5.0742
siesta:   11   -13688.5200   -13687.7917   -13687.7917  0.6469 -5.2424
siesta:   12   -13688.4943   -13687.7039   -13687.7039  0.2235 -5.0853
siesta:   13   -13688.4372   -13687.1941   -13687.1941  0.3232 -5.0322
siesta:   14   -13688.4280   -13687.5275   -13687.5275  0.1480 -5.0214
siesta:   15   -13688.4255   -13687.5006   -13687.5006  0.1024 -4.9982
siesta:   16   -13688.4259   -13687.9090   -13687.9090  0.0606 -4.9890
siesta:   17   -13688.4255   -13688.2189   -13688.2189  0.0540 -4.9833
siesta:   18   -13688.4253   -13688.4758   -13688.4758  0.0172 -4.9769
siesta:   19   -13688.4252   -13688.4677   -13688.4677  0.0104 -4.9783
siesta:   20   -13688.4252   -13688.4642   -13688.4642  0.0031 -4.9783
siesta:   21   -13688.4252   -13688.4540   -13688.4540  0.0038 -4.9790
siesta:   22   -13688.4252   -13688.4347   -13688.4347  0.0014 -4.9792
siesta:   23   -13688.4252   -13688.4256   -13688.4256  0.0009 -4.9796
siesta:   24   -13688.4252   -13688.4220   -13688.4220  0.0006 -4.9798
siesta:   25   -13688.4252   -13688.4226   -13688.4226  0.0003 -4.9797
siesta:   26   -13688.4252   -13688.4237   -13688.4237  0.0003 -4.9797
siesta:   27   -13688.4252   -13688.4246   -13688.4246  0.0002 -4.9797
siesta:   28   -13688.4252   -13688.4250   -13688.4250  0.0001 -4.9797

siesta: E_KS(eV) =           -13688.4251

siesta: E_KS - E_eggbox =    -13688.4251

siesta: Atomic forces (eV/Ang):
     1    0.250429   -0.197765    0.143219
     2    0.013794    0.015395   -0.290963
     3    0.006549    0.304060    0.158183
     4    0.008310    0.008701   -0.113023
     5   -0.595253   -0.310811    0.059979
     6    0.024394    0.150848    0.008940
     7   -0.024590   -0.345135    0.022620
     8   -0.194864   -0.357487    0.040837
     9    0.300986   -0.173190   -0.011892
    10    0.421466   -0.012236   -0.027419
    11   -0.096091   -0.039579    0.027400
    12    0.296848   -0.181200   -0.022538
    13    0.304178   -0.307006   -0.005232
    14    0.411706    0.262621   -0.062395
    15    0.046876    0.356843   -0.014219
    16    0.044118    0.395257   -0.016073
    17   -0.298604    0.183208    0.027507
    18   -0.324414    0.161612    0.055197
    19   -0.072522   -0.087589    0.023736
    20    0.025867   -0.094836    0.046248
    21    0.014468    0.650320   -0.040581
    22    0.014692   -0.388625    0.028788
    23   -0.144277   -0.152024    0.057202
    24   -0.003921    0.360222   -0.059580
    25   -0.000932    0.384964   -0.059421
    26    0.323675    0.153386    0.006162
    27    0.347133    0.174205    0.026226
    28    0.251662   -0.131415    0.049198
    29   -0.004250   -0.338603    0.055394
    30    0.021406   -0.370224    0.084407
    31   -0.324260   -0.160331   -0.012401
    32   -0.343342   -0.208046    0.010975
    33   -0.402434    0.245147   -0.073624
    34   -0.055510    0.235590    0.214013
    35   -0.262163   -0.252452    0.016924
    36   -0.003994    0.049437   -0.032244
    37    0.048078    0.099849   -0.273129
    38   -0.254746   -0.137882   -0.172728
    39   -0.015820   -0.009217    0.104096
    40   -0.028071   -0.025531    0.291168
    41    0.039108    0.328176   -0.114165
    42   -0.408139    0.247398    0.075820
    43   -0.345135   -0.202007    0.010043
    44   -0.325143   -0.162856    0.014270
    45    0.030988   -0.379366   -0.081847
    46   -0.002249   -0.339852   -0.039898
    47    0.242909   -0.134121   -0.056698
    48    0.341538    0.177372   -0.044654
    49    0.320980    0.158620   -0.014815
    50    0.012288    0.393188    0.034134
    51   -0.018964    0.347912    0.044663
    52   -0.137281   -0.157322   -0.074981
    53    0.011517   -0.381870   -0.008691
    54    0.022787    0.645947    0.013180
    55    0.021188   -0.096249   -0.052848
    56   -0.070214   -0.088860   -0.025349
    57   -0.314891    0.160278   -0.070672
    58   -0.295877    0.194750   -0.050451
    59    0.046958    0.388479    0.006251
    60    0.054150    0.350595    0.007788
    61    0.421369    0.261348    0.080889
    62    0.291062   -0.318883    0.031473
    63    0.294785   -0.189967    0.039306
    64   -0.102603   -0.033343   -0.035822
    65    0.422324   -0.026219    0.038339
    66    0.289301   -0.177747    0.032784
    67   -0.200984   -0.351987   -0.043525
    68   -0.035691   -0.343995   -0.004722
    69    0.032246    0.157466   -0.022764
    70   -0.605654   -0.293945   -0.056112
    71    0.013664   -0.011887    0.101910
    72   -0.005468    0.326677   -0.132814
    73    0.234887   -0.171993   -0.152893
    74    0.026352   -0.003011    0.293984
    75    0.105755   -0.051337    0.039805
    76   -0.102880   -0.051371   -0.033862
    77   -0.105533   -0.052535    0.032080
    78    0.094281   -0.059722   -0.035034
----------------------------------------
   Tot    0.020305   -0.031763    0.015055
----------------------------------------
   Max    0.650320
   Res    0.205600    sqrt( Sum f_i^2 / 3N )
----------------------------------------
   Max    0.650320    constrained

Stress-tensor-Voigt (kbar):        1.98        2.03        0.22        0.09       -0.02        0.02
(Free)E + p*V (eV/cell)   -13706.1881
Target enthalpy (eV/cell)   -13688.4251
 
mulliken: Atomic and Orbital Populations:

Species: C                   
Atom  Qatom  Qorb
               2s      2s      2s      2py     2pz     2px     2py     2pz     
               2px     2py     2pz     2px     2Pdxy   2Pdyz   2Pdz2   2Pdxz   
               2Pdx2-y2
   6  3.839   1.018   0.143  -0.032   0.417   0.526   0.401   0.149   0.029
              0.185   0.250   0.222   0.188   0.096   0.041   0.012   0.068

              0.127
   8  3.940   0.973   0.117   0.050   0.410   0.726   0.502   0.165   0.007
              0.148   0.290   0.198   0.197   0.042   0.011   0.005   0.032

              0.069
  10  3.887   0.970   0.120   0.046   0.467   0.655   0.398   0.146   0.007
              0.179   0.242   0.201   0.276   0.065   0.036   0.006   0.021

              0.054
  11  3.925   1.008   0.107   0.031   0.399   0.685   0.458   0.142   0.005
              0.145   0.248   0.237   0.226   0.072   0.039   0.006   0.041

              0.077
  13  3.906   0.962   0.121   0.051   0.450   0.672   0.411   0.163   0.006
              0.164   0.229   0.211   0.294   0.065   0.037   0.007   0.019

              0.045
  14  3.586   0.686   0.115   0.252   0.307   0.626   0.043   0.150   0.013
              0.139   0.314   0.294   0.449   0.071   0.039   0.004   0.024

              0.060
  16  3.907   0.945   0.125   0.056   0.377   0.673   0.493   0.177   0.008
              0.151   0.304   0.209   0.213   0.041   0.012   0.006   0.042

              0.073
  18  3.913   0.962   0.122   0.044   0.481   0.696   0.401   0.154   0.008
              0.165   0.225   0.201   0.281   0.069   0.030   0.006   0.019

              0.048
  19  3.917   1.021   0.104   0.035   0.425   0.671   0.423   0.147   0.004
              0.133   0.241   0.227   0.257   0.075   0.042   0.006   0.042

              0.063
  20  3.919   0.940   0.122   0.045   0.438   0.701   0.430   0.131   0.011
              0.144   0.237   0.240   0.232   0.077   0.036   0.008   0.043

              0.083
  25  3.905   0.942   0.124   0.061   0.377   0.654   0.493   0.174   0.012
              0.150   0.308   0.217   0.218   0.039   0.012   0.007   0.045

              0.074
  27  3.916   0.944   0.122   0.052   0.474   0.720   0.390   0.150   0.009
              0.169   0.225   0.203   0.291   0.058   0.030   0.007   0.017

              0.054
  28  3.828   0.904   0.135   0.041   0.460   0.655   0.347   0.157   0.016
              0.149   0.206   0.246   0.236   0.090   0.049   0.010   0.054

              0.072
  30  3.923   0.940   0.119   0.060   0.411   0.720   0.482   0.164   0.010
              0.147   0.284   0.207   0.211   0.039   0.012   0.006   0.039

              0.072
  32  3.889   0.926   0.128   0.064   0.488   0.659   0.380   0.155   0.011
              0.175   0.209   0.214   0.307   0.061   0.036   0.008   0.019

              0.051
  33  3.582   0.682   0.114   0.254   0.281   0.634   0.074   0.145   0.013
              0.139   0.331   0.292   0.427   0.073   0.034   0.005   0.028

              0.056
  42  3.580   0.678   0.114   0.258   0.288   0.621   0.075   0.144   0.014
              0.140   0.322   0.296   0.434   0.074   0.037   0.004   0.026

              0.055
  43  3.897   0.930   0.126   0.065   0.476   0.666   0.380   0.155   0.010
              0.174   0.221   0.213   0.305   0.061   0.037   0.008   0.018

              0.051
  45  3.923   0.939   0.119   0.060   0.408   0.726   0.479   0.166   0.009
              0.147   0.284   0.205   0.213   0.038   0.012   0.006   0.039

              0.072
  47  3.829   0.904   0.135   0.041   0.453   0.657   0.354   0.160   0.015
              0.148   0.207   0.245   0.234   0.091   0.051   0.009   0.053

              0.072
  48  3.918   0.947   0.121   0.053   0.477   0.718   0.394   0.151   0.009
              0.167   0.222   0.204   0.290   0.058   0.031   0.006   0.016

              0.054
  50  3.897   0.942   0.125   0.058   0.376   0.653   0.493   0.176   0.010
              0.152   0.310   0.217   0.209   0.039   0.012   0.007   0.043

              0.074
  55  3.930   0.948   0.121   0.044   0.447   0.706   0.427   0.131   0.010
              0.143   0.233   0.239   0.236   0.076   0.036   0.008   0.043

              0.084
  56  3.918   1.023   0.104   0.034   0.424   0.672   0.427   0.148   0.004
              0.132   0.241   0.227   0.256   0.074   0.042   0.006   0.042

              0.064
  57  3.911   0.962   0.121   0.044   0.484   0.687   0.405   0.154   0.010
              0.162   0.225   0.204   0.280   0.069   0.030   0.006   0.020

              0.046
  59  3.903   0.944   0.126   0.055   0.380   0.669   0.494   0.177   0.009
              0.151   0.302   0.209   0.212   0.042   0.013   0.008   0.041

              0.072
  61  3.589   0.691   0.115   0.249   0.319   0.624   0.040   0.149   0.014
              0.138   0.306   0.294   0.453   0.070   0.041   0.004   0.023

              0.061
  62  3.907   0.961   0.120   0.052   0.443   0.675   0.417   0.163   0.008
              0.161   0.235   0.210   0.290   0.065   0.037   0.007   0.020

              0.043
  64  3.926   1.008   0.107   0.031   0.407   0.686   0.451   0.141   0.006
              0.144   0.245   0.235   0.230   0.072   0.040   0.007   0.040

              0.077
  65  3.885   0.966   0.120   0.048   0.462   0.653   0.404   0.146   0.007
              0.177   0.246   0.202   0.272   0.066   0.036   0.006   0.022

              0.052
  67  3.945   0.974   0.118   0.049   0.412   0.730   0.501   0.165   0.007
              0.149   0.289   0.196   0.198   0.043   0.011   0.005   0.032

              0.068
  69  3.824   1.000   0.145  -0.023   0.408   0.517   0.404   0.149   0.029
              0.185   0.254   0.227   0.185   0.098   0.041   0.012   0.069

              0.124

Species: S                   
Atom  Qatom  Qorb
               3s      3s      3s      3py     3pz     3px     3py     3pz     
               3px     3py     3pz     3px     3Pdxy   3Pdyz   3Pdz2   3Pdxz   
               3Pdx2-y2
   4  6.146   0.875   0.065   0.445   0.352   0.475   0.453   0.035   0.040
              0.019   0.623   0.482   0.636   0.337   0.344   0.330   0.326

              0.308
  36  6.147   0.872   0.065   0.449   0.447   0.440   0.423   0.034   0.041
              0.020   0.534   0.516   0.661   0.341   0.327   0.338   0.331

              0.309
  39  6.146   0.889   0.065   0.431   0.336   0.473   0.461   0.033   0.039
              0.022   0.652   0.488   0.610   0.356   0.347   0.326   0.328

              0.289
  71  6.147   0.874   0.065   0.447   0.328   0.476   0.483   0.035   0.040
              0.019   0.648   0.482   0.605   0.335   0.348   0.330   0.323

              0.309

Species: Na                  
Atom  Qatom  Qorb
               3s      3s      3s      3Ppy    3Ppz    3Ppx    
  75  0.183   0.011   0.030   0.091   0.015   0.017   0.019
  76  0.183   0.009   0.018   0.106   0.017   0.015   0.018
  77  0.184   0.011   0.017   0.106   0.017   0.016   0.018
  78  0.181   0.007   0.017   0.107   0.017   0.016   0.017

Species: N                   
Atom  Qatom  Qorb
               2s      2s      2s      2py     2pz     2px     2py     2pz     
               2px     2py     2pz     2px     2Pdxy   2Pdyz   2Pdz2   2Pdxz   
               2Pdx2-y2
  21  5.167   1.343   0.115   0.055   1.485   0.855   0.668   0.048   0.015
              0.166  -0.030   0.209   0.086   0.043   0.016   0.011   0.046

              0.036
  23  4.882   0.681   0.196   0.407   0.468   0.969   0.476   0.187   0.010
              0.182   0.432   0.406   0.300   0.050   0.009   0.009   0.040

              0.057
  52  4.883   0.681   0.197   0.407   0.480   0.971   0.479   0.186   0.008
              0.182   0.425   0.404   0.296   0.051   0.009   0.010   0.040

              0.057
  54  5.169   1.347   0.113   0.056   1.489   0.854   0.671   0.049   0.014
              0.163  -0.033   0.208   0.086   0.042   0.017   0.011   0.045

              0.036

Species: O                   
Atom  Qatom  Qorb
               2s      2s      2s      2py     2pz     2px     2py     2pz     
               2px     2py     2pz     2px     2Pdxy   2Pdyz   2Pdz2   2Pdxz   
               2Pdx2-y2
   1  6.379   1.851  -0.014  -0.024   1.607   1.875   1.370   0.016  -0.015
              0.095  -0.071  -0.202  -0.141   0.011   0.003   0.003   0.007

              0.007
   2  6.406   1.731  -0.019   0.107   1.986   1.294   1.759  -0.042   0.163
             -0.048  -0.241  -0.275  -0.040  -0.001   0.006   0.018   0.008

             -0.001
   3  6.382   1.822  -0.015   0.007   1.432   1.861   1.580   0.143  -0.007
             -0.041  -0.336  -0.215   0.122   0.006   0.011   0.002   0.001

              0.012
   5  6.341   1.326   0.043   0.391   1.812   1.092   1.175  -0.007  -0.006
              0.100  -0.114   0.324   0.154   0.015   0.006   0.005   0.013

              0.012
  34  6.379   1.636  -0.013   0.192   1.577   1.576   1.701   0.090   0.036
             -0.029  -0.290  -0.096  -0.034   0.004   0.013   0.004   0.004

              0.007
  35  6.376   1.955  -0.013  -0.134   1.443   1.913   1.391   0.035  -0.039
              0.093   0.021  -0.165  -0.156   0.014   0.001   0.004   0.005

              0.009
  37  6.406   1.670  -0.019   0.168   1.991   1.440   1.692  -0.011   0.136
             -0.049  -0.351  -0.321   0.029  -0.001   0.009   0.013   0.007

              0.001
  38  6.384   1.805  -0.014   0.023   1.693   1.843   1.402  -0.011   0.000
              0.106  -0.062  -0.222  -0.210   0.008   0.003   0.002   0.010

              0.008
  40  6.405   1.733  -0.019   0.105   1.908   1.314   1.811  -0.043   0.162
             -0.046  -0.164  -0.291  -0.095  -0.001   0.007   0.018   0.007

             -0.001
  41  6.377   1.858  -0.014  -0.032   1.382   1.893   1.515   0.164  -0.025
             -0.043  -0.360  -0.186   0.195   0.007   0.009   0.003   0.000

              0.014
  70  6.343   1.265   0.043   0.452   1.829   1.112   1.138  -0.010  -0.006
              0.104  -0.119   0.308   0.175   0.016   0.005   0.005   0.013

              0.012
  72  6.374   1.867  -0.014  -0.042   1.429   1.844   1.472   0.156  -0.018
             -0.043  -0.377  -0.161   0.231   0.006   0.009   0.003   0.000

              0.013
  73  6.385   1.788  -0.015   0.042   1.674   1.867   1.418   0.009  -0.004
              0.090  -0.109  -0.233  -0.174   0.010   0.004   0.002   0.008

              0.007
  74  6.406   1.719  -0.018   0.118   1.973   1.298   1.783  -0.043   0.163
             -0.046  -0.223  -0.277  -0.070  -0.001   0.006   0.018   0.008

             -0.001

Species: H                   
Atom  Qatom  Qorb
               1s      1s      1s      1Ppy    1Ppz    1Ppx    
   7  1.107   0.625   0.065   0.328   0.034   0.032   0.023
   9  1.095   0.605   0.064   0.341   0.026   0.030   0.030
  12  1.097   0.606   0.065   0.332   0.029   0.030   0.035
  15  1.086   0.588   0.066   0.341   0.034   0.031   0.027
  17  1.103   0.601   0.066   0.339   0.028   0.031   0.038
  22  0.986   0.473   0.075   0.259   0.093   0.051   0.035
  24  1.080   0.580   0.065   0.348   0.032   0.032   0.024
  26  1.099   0.584   0.066   0.349   0.028   0.033   0.038
  29  1.103   0.610   0.064   0.338   0.033   0.033   0.024
  31  1.082   0.576   0.066   0.345   0.028   0.030   0.037
  44  1.081   0.579   0.066   0.346   0.027   0.031   0.033
  46  1.102   0.607   0.065   0.340   0.033   0.033   0.025
  49  1.099   0.589   0.066   0.346   0.028   0.032   0.038
  51  1.082   0.578   0.066   0.346   0.035   0.030   0.028
  53  0.984   0.462   0.076   0.264   0.096   0.051   0.035
  58  1.102   0.601   0.066   0.338   0.028   0.031   0.038
  60  1.086   0.587   0.066   0.340   0.034   0.030   0.028
  63  1.097   0.608   0.064   0.331   0.029   0.031   0.034
  66  1.096   0.603   0.065   0.342   0.026   0.031   0.029
  68  1.108   0.625   0.065   0.329   0.034   0.032   0.023

mulliken: Qtot =      280.000

siesta: Eigenvalues (eV):
  ik is    eps
   1  1 -27.42 -27.42 -27.41 -27.41 -26.40 -26.35 -25.57 -25.52 -23.85 -23.84
        -23.84 -23.84 -23.75 -23.72 -23.72 -23.72 -22.37 -22.32 -21.89 -21.85
        -21.13 -21.10 -20.52 -20.47 -19.54 -19.50 -19.20 -19.18 -18.84 -18.81
        -18.78 -18.75 -17.66 -17.63 -16.48 -16.45 -16.44 -16.42 -16.26 -16.23
        -15.90 -15.87 -15.27 -15.24 -14.89 -14.86 -14.76 -14.73 -14.14 -14.11
        -13.78 -13.76 -13.11 -13.08 -12.69 -12.67 -12.55 -12.53 -12.44 -12.41
        -11.95 -11.93 -11.91 -11.89 -11.76 -11.71 -11.69 -11.39 -11.36 -11.33
        -11.30 -11.28 -11.26 -11.21 -11.15 -11.14 -11.14 -11.12 -10.95 -10.93
        -10.88 -10.85 -10.84 -10.84 -10.63 -10.60 -10.59 -10.36 -10.34 -10.09
         -9.84  -9.75  -9.72  -9.61  -9.57  -9.54  -9.44  -9.30  -9.28  -9.27
         -8.39  -8.34  -8.29  -8.24  -8.13  -8.03  -7.99  -7.99  -7.98  -7.98
         -7.97  -7.95  -7.86  -7.85  -7.81  -7.80  -7.78  -7.77  -7.48  -7.25
         -7.24  -7.07  -7.06  -7.06  -7.05  -7.03  -6.95  -6.92  -6.79  -6.62
         -6.59  -6.37  -6.31  -6.27  -6.00  -5.96  -5.96  -5.95  -5.94  -5.66
         -4.34  -3.94  -2.93  -2.59  -2.45  -2.36  -2.20  -2.09  -2.04  -1.87
         -1.76  -1.74  -1.62  -1.62  -1.28  -0.82  -0.62  -0.48  -0.32  -0.32
         -0.26  -0.13  -0.06   0.06   0.10   0.11   0.14   0.24   0.26   0.31
          0.40   0.49   0.52   0.59   0.63   0.68   0.74   0.78   0.81   0.84
          0.93   0.98   0.99   1.00   1.05   1.07   1.15   1.36   1.37   1.41
          1.51   1.60   1.64   1.71   1.75   1.77   1.85   1.89   2.00   2.11
          2.12   2.21   2.25   2.31   2.33   2.38   2.46   2.57   2.61   2.68
          2.70   2.74   2.77   2.86   2.94   2.99   3.02   3.05   3.09   3.19
          3.28   3.33   3.38   3.42   3.50   3.52   3.54   3.64   3.67   3.76
          3.84   3.86   3.88   3.96   3.96   4.07   4.11   4.33   4.36   4.40
          4.43   4.50   4.58   4.61   4.64   4.72   4.80   4.83   4.90   4.98
          5.01   5.05   5.21   5.26   5.28   5.36   5.40   5.47   5.55   5.59
          5.61   5.78   5.79   5.82   5.87   5.92   5.97   6.01   6.05   6.11
          6.18   6.30   6.31   6.33   6.43   6.48   6.52   6.56   6.64   6.65
          6.72   6.74   6.77   6.87   6.91   6.96   7.04   7.10   7.18   7.21
          7.25   7.30   7.32   7.39   7.47   7.54   7.58   7.62   7.66   7.71
          7.77   7.83   7.90   7.96   8.01   8.11   8.14   8.16   8.24   8.28
          8.29   8.32   8.41   8.46   8.56   8.64   8.71   8.77   8.81   8.83
          8.90   8.96   9.02   9.07   9.15   9.18   9.24   9.36   9.43   9.46
          9.51   9.57   9.63   9.70   9.74   9.78   9.83   9.88   9.96  10.02
         10.11  10.14  10.22  10.33  10.39  10.47  10.51  10.54  10.60  10.68
         10.83  10.89  10.97  11.04  11.06  11.14  11.31  11.37  11.46  11.59
         11.69  11.71  11.74  11.90  11.95  12.07  12.12  12.28  12.34  12.43
         12.50  12.55  12.67  12.72  12.75  12.83  12.87  13.05  13.09  13.21
         13.25  13.31  13.39  13.49  13.54  13.59  13.64  13.67  13.78  13.85
         13.96  14.03  14.12  14.15  14.21  14.36  14.40  14.48  14.52  14.60
         14.67  14.78  14.80  14.86  15.00  15.06  15.18  15.18  15.28  15.32
         15.55  15.63  15.67  15.74  15.79  15.88  16.00  16.04  16.09  16.25
         16.34  16.45  16.49  16.57  16.83  17.03  17.07  17.18  17.25  17.26
         17.35  17.48  17.58  17.63  17.77  17.85  17.92  17.98  18.00  18.23
         18.32  18.44  18.60  18.67  18.71  18.80  18.84  18.91  19.06  19.13
         19.19  19.34  19.35  19.46  19.52  19.63  19.80  20.02  20.10  20.15
         20.32  20.46  20.56  20.64  20.84  20.91  20.99  21.05  21.13  21.25
         21.28  21.44  21.48  21.54  21.62  21.88  21.91  21.96  22.03  22.11
         22.47  22.60  22.66  22.83  22.94  23.23  23.37  23.47  23.57  23.83
         23.89  24.01  24.08  24.48  24.54  24.73  24.75  24.78  24.89  25.07
         25.13  25.22  25.31  25.41  25.57  25.67  25.71  25.77  25.87  25.90
         26.00  26.08  26.13  26.18  26.26  26.29  26.42  26.54  26.61  26.64
         26.73  26.82  27.00  27.06  27.20  27.38  27.55  27.65  27.73  28.00
         28.08  28.12  28.41  28.57  28.63  28.66  28.73  28.78  28.82  28.86
         28.91  28.96  28.97  29.00  29.07  29.11  29.22  29.28  29.31  29.44
         29.53  29.60  29.64  29.91  29.93  29.98  30.06  30.12  30.19  30.22
         30.24  30.28  30.34  30.39  30.48  30.54  30.59  30.66  30.67  30.74
         30.82  30.90  30.96  31.05  31.17  31.21  31.25  31.31  31.48  31.53
         31.62  31.70  31.80  32.01  32.05  32.16  32.33  32.43  32.50  32.57
         32.77  32.91  32.95  33.13  33.22  33.31  33.35  33.48  33.50  33.72
         33.82  33.88  34.01  34.09  34.25  34.35  34.39  34.60  34.62  34.70
         34.97  35.03  35.20  35.22  35.34  35.37  35.45  35.47  35.54  35.62
         35.65  35.76  35.80  35.88  36.08  36.18  36.21  36.23  36.29  36.33
         36.53  36.69  36.75  36.82  37.04  37.07  37.10  37.16  37.17  37.27
         37.31  37.36  37.45  37.54  37.60  37.77  37.82  37.95  38.03  38.17
         38.26  38.37  38.45  38.68  38.79  38.88  39.05  39.18  39.30  39.37
         39.48  39.69  39.81  39.91  40.00  40.22  40.23  40.35  40.53  40.56
         40.78  40.84  40.90  40.92  41.12  41.24  41.36  41.37  41.50  41.62
         41.70  41.88  41.95  42.04  42.11  42.33  42.43  42.49  42.62  42.65
         42.88  43.01  43.08  43.18  43.23  43.23  43.30  43.54  43.59  43.72
         43.76  43.89  44.03  44.17  44.21  44.27  44.40  44.56  44.62  44.76
         44.86  44.98  45.03  45.10  45.13  45.16  45.30  45.44  45.55  45.58
         45.70  45.83  45.92  46.09  46.19  46.21  46.28  46.51  46.59  46.67
         46.79  46.86  47.00  47.09  47.19  47.26  47.45  47.56  47.65  47.67
         47.78  47.87  47.95  48.04  48.11  48.16  48.19  48.20  48.26  48.34
         48.36  48.38  48.48  48.57  48.59  48.69  48.88  48.96  48.99  49.06
         49.18  49.29  49.47  49.54  49.64  49.73  49.84  49.91  49.99  50.17
         50.28  50.40  50.61  50.67  50.77  50.87  51.17  51.38  51.44  51.47
         51.66  51.81  51.90  51.97  52.06  52.17  52.32  52.39  52.55  52.69
         52.85  53.00  53.04  53.15  53.23  53.34  53.62  53.75  53.83  53.97
         54.19  54.31  54.54  54.75  54.88  55.16  55.34  55.43  55.67  55.97
         56.10  56.38  56.52  56.73  56.83  56.96  57.07  57.19  57.31  57.49
         57.62  57.80  57.95  58.11  58.25  58.50  58.67  58.78  58.78  58.88
         58.97  59.05  59.10  59.18  59.43  59.60  59.77  59.92  60.17  60.25
         60.33  60.48  60.72  60.77  60.91  61.13  61.24  61.34  61.50  61.56
         61.67  61.81  61.91  61.97  62.12  62.19  62.38  62.55  62.68  62.82
         62.90  63.23  63.27  63.44  63.53  63.68  63.70  63.92  64.02  64.31
         64.50  64.55  64.69  64.76  65.02  65.16  65.26  65.45  65.77  65.81
         65.90  66.14  66.27  66.35  66.60  66.72  66.92  67.01  67.12  67.23
         67.50  67.61  67.81  68.11  68.17  68.30  68.33  68.36  68.56  68.63
         68.83  69.00  69.12  69.16  69.17  69.25  69.40  69.55  69.75  69.78
         69.91  70.15  70.23  70.37  70.51  70.60  70.82  70.89  71.12  71.40
         71.62  71.77  72.05  72.15  72.26  72.46  72.72  72.83  73.01  73.13
         73.20  73.36  73.71  74.08  74.21  74.41  74.48  74.74  74.82  74.83
         75.12  75.25  75.47  75.62  76.16  76.27  76.34  76.94  77.23  77.45
         77.81  77.92  78.16  79.75  80.03  80.60  80.91  81.04  82.52  82.64
         83.18  83.38  83.52  83.71  84.53  85.23  86.07  86.10  87.30  87.56
         88.15  88.64  88.87  89.50  89.58  90.15  90.36  91.10  91.52  91.84
         92.22  92.53  92.74  93.28  93.76  94.20  94.90  94.99  95.40  96.25
         96.68  96.92  97.33  97.49  97.73  98.11  98.18  98.31  98.55  98.79
         99.12  99.45  99.66 100.41 100.60 100.76 101.13 101.40 101.74 102.38
        103.18 103.90 104.02 104.55 105.11 106.12 106.34 106.66 106.96 107.00
        107.48 107.88 108.69 109.10 109.63 109.82 110.14 111.00 111.53 111.60
        112.25 113.63 113.79 115.09 115.88 116.30 116.72 117.03 117.20 117.99
        118.16 118.74 118.96 119.31 119.73 119.93 120.73 121.26 121.98 123.89
        124.50 126.28 127.11 128.74 129.78 130.94 132.93 133.22 134.88 136.39
        138.42 142.32
siesta: Fermi energy =      -4.979675 eV

siesta: Program's energy decomposition (eV):
siesta: Ebs     =     -3719.695692
siesta: Eions   =     18316.795456
siesta: Ena     =      2204.797960
siesta: Ekin    =      9265.857227
siesta: Enl     =     -2883.073354
siesta: DEna    =      -295.668396
siesta: DUscf   =        45.521120
siesta: DUext   =         0.000000
siesta: Exc     =     -3709.064226
siesta: eta*DQ  =         0.000000
siesta: Emadel  =         0.000000
siesta: Emeta   =         0.000000
siesta: Emolmec =         0.000000
siesta: Ekinion =         0.000000
siesta: Eharris =    -13688.425230
siesta: Etot    =    -13688.425127
siesta: FreeEng =    -13688.425127

siesta: Final energy (eV):
siesta:  Band Struct. =   -3719.695692
siesta:       Kinetic =    9265.857227
siesta:       Hartree =   58035.447833
siesta:    Ext. field =       0.000000
siesta:   Exch.-corr. =   -3709.064226
siesta:  Ion-electron = -124304.503437
siesta:       Ion-ion =   47023.837477
siesta:       Ekinion =       0.000000
siesta:         Total =  -13688.425127

siesta: Atomic forces (eV/Ang):
siesta:      1    0.250429   -0.197765    0.143219
siesta:      2    0.013794    0.015395   -0.290963
siesta:      3    0.006549    0.304060    0.158183
siesta:      4    0.008310    0.008701   -0.113023
siesta:      5   -0.595253   -0.310811    0.059979
siesta:      6    0.024394    0.150848    0.008940
siesta:      7   -0.024590   -0.345135    0.022620
siesta:      8   -0.194864   -0.357487    0.040837
siesta:      9    0.300986   -0.173190   -0.011892
siesta:     10    0.421466   -0.012236   -0.027419
siesta:     11   -0.096091   -0.039579    0.027400
siesta:     12    0.296848   -0.181200   -0.022538
siesta:     13    0.304178   -0.307006   -0.005232
siesta:     14    0.411706    0.262621   -0.062395
siesta:     15    0.046876    0.356843   -0.014219
siesta:     16    0.044118    0.395257   -0.016073
siesta:     17   -0.298604    0.183208    0.027507
siesta:     18   -0.324414    0.161612    0.055197
siesta:     19   -0.072522   -0.087589    0.023736
siesta:     20    0.025867   -0.094836    0.046248
siesta:     21    0.014468    0.650320   -0.040581
siesta:     22    0.014692   -0.388625    0.028788
siesta:     23   -0.144277   -0.152024    0.057202
siesta:     24   -0.003921    0.360222   -0.059580
siesta:     25   -0.000932    0.384964   -0.059421
siesta:     26    0.323675    0.153386    0.006162
siesta:     27    0.347133    0.174205    0.026226
siesta:     28    0.251662   -0.131415    0.049198
siesta:     29   -0.004250   -0.338603    0.055394
siesta:     30    0.021406   -0.370224    0.084407
siesta:     31   -0.324260   -0.160331   -0.012401
siesta:     32   -0.343342   -0.208046    0.010975
siesta:     33   -0.402434    0.245147   -0.073624
siesta:     34   -0.055510    0.235590    0.214013
siesta:     35   -0.262163   -0.252452    0.016924
siesta:     36   -0.003994    0.049437   -0.032244
siesta:     37    0.048078    0.099849   -0.273129
siesta:     38   -0.254746   -0.137882   -0.172728
siesta:     39   -0.015820   -0.009217    0.104096
siesta:     40   -0.028071   -0.025531    0.291168
siesta:     41    0.039108    0.328176   -0.114165
siesta:     42   -0.408139    0.247398    0.075820
siesta:     43   -0.345135   -0.202007    0.010043
siesta:     44   -0.325143   -0.162856    0.014270
siesta:     45    0.030988   -0.379366   -0.081847
siesta:     46   -0.002249   -0.339852   -0.039898
siesta:     47    0.242909   -0.134121   -0.056698
siesta:     48    0.341538    0.177372   -0.044654
siesta:     49    0.320980    0.158620   -0.014815
siesta:     50    0.012288    0.393188    0.034134
siesta:     51   -0.018964    0.347912    0.044663
siesta:     52   -0.137281   -0.157322   -0.074981
siesta:     53    0.011517   -0.381870   -0.008691
siesta:     54    0.022787    0.645947    0.013180
siesta:     55    0.021188   -0.096249   -0.052848
siesta:     56   -0.070214   -0.088860   -0.025349
siesta:     57   -0.314891    0.160278   -0.070672
siesta:     58   -0.295877    0.194750   -0.050451
siesta:     59    0.046958    0.388479    0.006251
siesta:     60    0.054150    0.350595    0.007788
siesta:     61    0.421369    0.261348    0.080889
siesta:     62    0.291062   -0.318883    0.031473
siesta:     63    0.294785   -0.189967    0.039306
siesta:     64   -0.102603   -0.033343   -0.035822
siesta:     65    0.422324   -0.026219    0.038339
siesta:     66    0.289301   -0.177747    0.032784
siesta:     67   -0.200984   -0.351987   -0.043525
siesta:     68   -0.035691   -0.343995   -0.004722
siesta:     69    0.032246    0.157466   -0.022764
siesta:     70   -0.605654   -0.293945   -0.056112
siesta:     71    0.013664   -0.011887    0.101910
siesta:     72   -0.005468    0.326677   -0.132814
siesta:     73    0.234887   -0.171993   -0.152893
siesta:     74    0.026352   -0.003011    0.293984
siesta:     75    0.105755   -0.051337    0.039805
siesta:     76   -0.102880   -0.051371   -0.033862
siesta:     77   -0.105533   -0.052535    0.032080
siesta:     78    0.094281   -0.059722   -0.035034
siesta: ----------------------------------------
siesta:    Tot    0.020305   -0.031763    0.015055

siesta: Stress tensor (static) (eV/Ang**3):
siesta:     0.001236    0.000055    0.000015
siesta:     0.000055    0.001268   -0.000011
siesta:     0.000015   -0.000011    0.000140

siesta: Cell volume =      20160.000000 Ang**3

siesta: Pressure (static):
siesta:                Solid            Molecule  Units
siesta:          -0.00000960         -0.00000014  Ry/Bohr**3
siesta:          -0.00088110         -0.00001284  eV/Ang**3
siesta:          -1.41169045         -0.02057685  kBar
(Free)E+ p_basis*V_orbitals  =      -13557.318064
(Free)Eharris+ p_basis*V_orbitals  =      -13557.318297

siesta: Electric dipole (a.u.)  =   -0.443761   -2.542700   -0.055244
siesta: Electric dipole (Debye) =   -1.127930   -6.462904   -0.140417
>> End of run:   3-MAR-2014  18:07:17
