LAMMPS DATA FOR EAM SIMULATON
 
          2000   atoms
             1   atom types
 
  -11.05000000   11.05000000     xlo xhi
  -26.67705994   26.67705994     ylo yhi
  -11.05000000   11.05000000     zlo zhi
 
        Atoms
 
      1      1   -9.94500015  -26.62153091   -7.73500015
      2      1   -9.94500015  -28.18423690   -9.94500015
      3      1   -7.73500015  -26.62153091   -9.94500015
      4      1   -9.94500015  -23.49611894   -7.73500015
      5      1   -9.94500015  -25.05882492   -9.94500015
      6      1   -7.73500015  -23.49611894   -9.94500015
      7      1   -7.73500015  -28.18423690   -7.73500015
      8      1   -7.73500015  -25.05882492   -7.73500015
      9      1   -9.94500015  -26.62153091   -3.31500008
     10      1   -9.94500015  -28.18423690   -5.52500008
     11      1   -7.73500015  -26.62153091   -5.52500008
     12      1   -9.94500015  -23.49611894   -3.31500008
     13      1   -9.94500015  -25.05882492   -5.52500008
     14      1   -7.73500015  -23.49611894   -5.52500008
     15      1   -7.73500015  -28.18423690   -3.31500008
     16      1   -7.73500015  -25.05882492   -3.31500008
     17      1   -9.94500015  -26.62153091    1.10500000
     18      1   -9.94500015  -28.18423690   -1.10500000
     19      1   -7.73500015  -26.62153091   -1.10500000
     20      1   -9.94500015  -23.49611894    1.10500000
     21      1   -9.94500015  -25.05882492   -1.10500000
     22      1   -7.73500015  -23.49611894   -1.10500000
     23      1   -7.73500015  -28.18423690    1.10500000
     24      1   -7.73500015  -25.05882492    1.10500000
     25      1   -9.94500015  -26.62153091    5.52500008
     26      1   -9.94500015  -28.18423690    3.31500008
     27      1   -7.73500015  -26.62153091    3.31500008
     28      1   -9.94500015  -23.49611894    5.52500008
     29      1   -9.94500015  -25.05882492    3.31500008
     30      1   -7.73500015  -23.49611894    3.31500008
     31      1   -7.73500015  -28.18423690    5.52500008
     32      1   -7.73500015  -25.05882492    5.52500008
     33      1   -9.94500015  -26.62153091    9.94500015
     34      1   -9.94500015  -28.18423690    7.73500015
     35      1   -7.73500015  -26.62153091    7.73500015
     36      1   -9.94500015  -23.49611894    9.94500015
     37      1   -9.94500015  -25.05882492    7.73500015
     38      1   -7.73500015  -23.49611894    7.73500015
     39      1   -7.73500015  -28.18423690    9.94500015
     40      1   -7.73500015  -25.05882492    9.94500015
     41      1   -9.94500015  -20.37070694   -7.73500015
     42      1   -9.94500015  -21.93341292   -9.94500015
     43      1   -7.73500015  -20.37070694   -9.94500015
     44      1   -9.94500015  -17.24529496   -7.73500015
     45      1   -9.94500015  -18.80800095   -9.94500015
     46      1   -7.73500015  -17.24529496   -9.94500015
     47      1   -7.73500015  -21.93341292   -7.73500015
     48      1   -7.73500015  -18.80800095   -7.73500015
     49      1   -9.94500015  -20.37070694   -3.31500008
     50      1   -9.94500015  -21.93341292   -5.52500008
     51      1   -7.73500015  -20.37070694   -5.52500008
     52      1   -9.94500015  -17.24529496   -3.31500008
     53      1   -9.94500015  -18.80800095   -5.52500008
     54      1   -7.73500015  -17.24529496   -5.52500008
     55      1   -7.73500015  -21.93341292   -3.31500008
     56      1   -7.73500015  -18.80800095   -3.31500008
     57      1   -9.94500015  -20.37070694    1.10500000
     58      1   -9.94500015  -21.93341292   -1.10500000
     59      1   -7.73500015  -20.37070694   -1.10500000
     60      1   -9.94500015  -17.24529496    1.10500000
     61      1   -9.94500015  -18.80800095   -1.10500000
     62      1   -7.73500015  -17.24529496   -1.10500000
     63      1   -7.73500015  -21.93341292    1.10500000
     64      1   -7.73500015  -18.80800095    1.10500000
     65      1   -9.94500015  -20.37070694    5.52500008
     66      1   -9.94500015  -21.93341292    3.31500008
     67      1   -7.73500015  -20.37070694    3.31500008
     68      1   -9.94500015  -17.24529496    5.52500008
     69      1   -9.94500015  -18.80800095    3.31500008
     70      1   -7.73500015  -17.24529496    3.31500008
     71      1   -7.73500015  -21.93341292    5.52500008
     72      1   -7.73500015  -18.80800095    5.52500008
     73      1   -9.94500015  -20.37070694    9.94500015
     74      1   -9.94500015  -21.93341292    7.73500015
     75      1   -7.73500015  -20.37070694    7.73500015
     76      1   -9.94500015  -17.24529496    9.94500015
     77      1   -9.94500015  -18.80800095    7.73500015
     78      1   -7.73500015  -17.24529496    7.73500015
     79      1   -7.73500015  -21.93341292    9.94500015
     80      1   -7.73500015  -18.80800095    9.94500015
     81      1   -9.94500015  -14.11988296   -7.73500015
     82      1   -9.94500015  -15.68258895   -9.94500015
     83      1   -7.73500015  -14.11988296   -9.94500015
     84      1   -9.94500015  -10.99447099   -7.73500015
     85      1   -9.94500015  -12.55717698   -9.94500015
     86      1   -7.73500015  -10.99447099   -9.94500015
     87      1   -7.73500015  -15.68258895   -7.73500015
     88      1   -7.73500015  -12.55717698   -7.73500015
     89      1   -9.94500015  -14.11988296   -3.31500008
     90      1   -9.94500015  -15.68258895   -5.52500008
     91      1   -7.73500015  -14.11988296   -5.52500008
     92      1   -9.94500015  -10.99447099   -3.31500008
     93      1   -9.94500015  -12.55717698   -5.52500008
     94      1   -7.73500015  -10.99447099   -5.52500008
     95      1   -7.73500015  -15.68258895   -3.31500008
     96      1   -7.73500015  -12.55717698   -3.31500008
     97      1   -9.94500015  -14.11988296    1.10500000
     98      1   -9.94500015  -15.68258895   -1.10500000
     99      1   -7.73500015  -14.11988296   -1.10500000
    100      1   -9.94500015  -10.99447099    1.10500000
    101      1   -9.94500015  -12.55717698   -1.10500000
    102      1   -7.73500015  -10.99447099   -1.10500000
    103      1   -7.73500015  -15.68258895    1.10500000
    104      1   -7.73500015  -12.55717698    1.10500000
    105      1   -9.94500015  -14.11988296    5.52500008
    106      1   -9.94500015  -15.68258895    3.31500008
    107      1   -7.73500015  -14.11988296    3.31500008
    108      1   -9.94500015  -10.99447099    5.52500008
    109      1   -9.94500015  -12.55717698    3.31500008
    110      1   -7.73500015  -10.99447099    3.31500008
    111      1   -7.73500015  -15.68258895    5.52500008
    112      1   -7.73500015  -12.55717698    5.52500008
    113      1   -9.94500015  -14.11988296    9.94500015
    114      1   -9.94500015  -15.68258895    7.73500015
    115      1   -7.73500015  -14.11988296    7.73500015
    116      1   -9.94500015  -10.99447099    9.94500015
    117      1   -9.94500015  -12.55717698    7.73500015
    118      1   -7.73500015  -10.99447099    7.73500015
    119      1   -7.73500015  -15.68258895    9.94500015
    120      1   -7.73500015  -12.55717698    9.94500015
    121      1   -9.94500015   -7.86905899   -7.73500015
    122      1   -9.94500015   -9.43176497   -9.94500015
    123      1   -7.73500015   -7.86905899   -9.94500015
    124      1   -9.94500015   -4.74364701   -7.73500015
    125      1   -9.94500015   -6.30635300   -9.94500015
    126      1   -7.73500015   -4.74364701   -9.94500015
    127      1   -7.73500015   -9.43176497   -7.73500015
    128      1   -7.73500015   -6.30635300   -7.73500015
    129      1   -9.94500015   -7.86905899   -3.31500008
    130      1   -9.94500015   -9.43176497   -5.52500008
    131      1   -7.73500015   -7.86905899   -5.52500008
    132      1   -9.94500015   -4.74364701   -3.31500008
    133      1   -9.94500015   -6.30635300   -5.52500008
    134      1   -7.73500015   -4.74364701   -5.52500008
    135      1   -7.73500015   -9.43176497   -3.31500008
    136      1   -7.73500015   -6.30635300   -3.31500008
    137      1   -9.94500015   -7.86905899    1.10500000
    138      1   -9.94500015   -9.43176497   -1.10500000
    139      1   -7.73500015   -7.86905899   -1.10500000
    140      1   -9.94500015   -4.74364701    1.10500000
    141      1   -9.94500015   -6.30635300   -1.10500000
    142      1   -7.73500015   -4.74364701   -1.10500000
    143      1   -7.73500015   -9.43176497    1.10500000
    144      1   -7.73500015   -6.30635300    1.10500000
    145      1   -9.94500015   -7.86905899    5.52500008
    146      1   -9.94500015   -9.43176497    3.31500008
    147      1   -7.73500015   -7.86905899    3.31500008
    148      1   -9.94500015   -4.74364701    5.52500008
    149      1   -9.94500015   -6.30635300    3.31500008
    150      1   -7.73500015   -4.74364701    3.31500008
    151      1   -7.73500015   -9.43176497    5.52500008
    152      1   -7.73500015   -6.30635300    5.52500008
    153      1   -9.94500015   -7.86905899    9.94500015
    154      1   -9.94500015   -9.43176497    7.73500015
    155      1   -7.73500015   -7.86905899    7.73500015
    156      1   -9.94500015   -4.74364701    9.94500015
    157      1   -9.94500015   -6.30635300    7.73500015
    158      1   -7.73500015   -4.74364701    7.73500015
    159      1   -7.73500015   -9.43176497    9.94500015
    160      1   -7.73500015   -6.30635300    9.94500015
    161      1   -9.94500015   -1.61823501   -7.73500015
    162      1   -9.94500015   -3.18094100   -9.94500015
    163      1   -7.73500015   -1.61823501   -9.94500015
    164      1   -9.94500015    1.50717696   -7.73500015
    165      1   -9.94500015   -0.05552903   -9.94500015
    166      1   -7.73500015    1.50717696   -9.94500015
    167      1   -7.73500015   -3.18094100   -7.73500015
    168      1   -7.73500015   -0.05552903   -7.73500015
    169      1   -9.94500015   -1.61823501   -3.31500008
    170      1   -9.94500015   -3.18094100   -5.52500008
    171      1   -7.73500015   -1.61823501   -5.52500008
    172      1   -9.94500015    1.50717696   -3.31500008
    173      1   -9.94500015   -0.05552903   -5.52500008
    174      1   -7.73500015    1.50717696   -5.52500008
    175      1   -7.73500015   -3.18094100   -3.31500008
    176      1   -7.73500015   -0.05552903   -3.31500008
    177      1   -9.94500015   -1.61823501    1.10500000
    178      1   -9.94500015   -3.18094100   -1.10500000
    179      1   -7.73500015   -1.61823501   -1.10500000
    180      1   -9.94500015    1.50717696    1.10500000
    181      1   -9.94500015   -0.05552903   -1.10500000
    182      1   -7.73500015    1.50717696   -1.10500000
    183      1   -7.73500015   -3.18094100    1.10500000
    184      1   -7.73500015   -0.05552903    1.10500000
    185      1   -9.94500015   -1.61823501    5.52500008
    186      1   -9.94500015   -3.18094100    3.31500008
    187      1   -7.73500015   -1.61823501    3.31500008
    188      1   -9.94500015    1.50717696    5.52500008
    189      1   -9.94500015   -0.05552903    3.31500008
    190      1   -7.73500015    1.50717696    3.31500008
    191      1   -7.73500015   -3.18094100    5.52500008
    192      1   -7.73500015   -0.05552903    5.52500008
    193      1   -9.94500015   -1.61823501    9.94500015
    194      1   -9.94500015   -3.18094100    7.73500015
    195      1   -7.73500015   -1.61823501    7.73500015
    196      1   -9.94500015    1.50717696    9.94500015
    197      1   -9.94500015   -0.05552903    7.73500015
    198      1   -7.73500015    1.50717696    7.73500015
    199      1   -7.73500015   -3.18094100    9.94500015
    200      1   -7.73500015   -0.05552903    9.94500015
    201      1   -5.52500008  -26.62153091   -7.73500015
    202      1   -5.52500008  -28.18423690   -9.94500015
    203      1   -3.31500008  -26.62153091   -9.94500015
    204      1   -5.52500008  -23.49611894   -7.73500015
    205      1   -5.52500008  -25.05882492   -9.94500015
    206      1   -3.31500008  -23.49611894   -9.94500015
    207      1   -3.31500008  -28.18423690   -7.73500015
    208      1   -3.31500008  -25.05882492   -7.73500015
    209      1   -5.52500008  -26.62153091   -3.31500008
    210      1   -5.52500008  -28.18423690   -5.52500008
    211      1   -3.31500008  -26.62153091   -5.52500008
    212      1   -5.52500008  -23.49611894   -3.31500008
    213      1   -5.52500008  -25.05882492   -5.52500008
    214      1   -3.31500008  -23.49611894   -5.52500008
    215      1   -3.31500008  -28.18423690   -3.31500008
    216      1   -3.31500008  -25.05882492   -3.31500008
    217      1   -5.52500008  -26.62153091    1.10500000
    218      1   -5.52500008  -28.18423690   -1.10500000
    219      1   -3.31500008  -26.62153091   -1.10500000
    220      1   -5.52500008  -23.49611894    1.10500000
    221      1   -5.52500008  -25.05882492   -1.10500000
    222      1   -3.31500008  -23.49611894   -1.10500000
    223      1   -3.31500008  -28.18423690    1.10500000
    224      1   -3.31500008  -25.05882492    1.10500000
    225      1   -5.52500008  -26.62153091    5.52500008
    226      1   -5.52500008  -28.18423690    3.31500008
    227      1   -3.31500008  -26.62153091    3.31500008
    228      1   -5.52500008  -23.49611894    5.52500008
    229      1   -5.52500008  -25.05882492    3.31500008
    230      1   -3.31500008  -23.49611894    3.31500008
    231      1   -3.31500008  -28.18423690    5.52500008
    232      1   -3.31500008  -25.05882492    5.52500008
    233      1   -5.52500008  -26.62153091    9.94500015
    234      1   -5.52500008  -28.18423690    7.73500015
    235      1   -3.31500008  -26.62153091    7.73500015
    236      1   -5.52500008  -23.49611894    9.94500015
    237      1   -5.52500008  -25.05882492    7.73500015
    238      1   -3.31500008  -23.49611894    7.73500015
    239      1   -3.31500008  -28.18423690    9.94500015
    240      1   -3.31500008  -25.05882492    9.94500015
    241      1   -5.52500008  -20.37070694   -7.73500015
    242      1   -5.52500008  -21.93341292   -9.94500015
    243      1   -3.31500008  -20.37070694   -9.94500015
    244      1   -5.52500008  -17.24529496   -7.73500015
    245      1   -5.52500008  -18.80800095   -9.94500015
    246      1   -3.31500008  -17.24529496   -9.94500015
    247      1   -3.31500008  -21.93341292   -7.73500015
    248      1   -3.31500008  -18.80800095   -7.73500015
    249      1   -5.52500008  -20.37070694   -3.31500008
    250      1   -5.52500008  -21.93341292   -5.52500008
    251      1   -3.31500008  -20.37070694   -5.52500008
    252      1   -5.52500008  -17.24529496   -3.31500008
    253      1   -5.52500008  -18.80800095   -5.52500008
    254      1   -3.31500008  -17.24529496   -5.52500008
    255      1   -3.31500008  -21.93341292   -3.31500008
    256      1   -3.31500008  -18.80800095   -3.31500008
    257      1   -5.52500008  -20.37070694    1.10500000
    258      1   -5.52500008  -21.93341292   -1.10500000
    259      1   -3.31500008  -20.37070694   -1.10500000
    260      1   -5.52500008  -17.24529496    1.10500000
    261      1   -5.52500008  -18.80800095   -1.10500000
    262      1   -3.31500008  -17.24529496   -1.10500000
    263      1   -3.31500008  -21.93341292    1.10500000
    264      1   -3.31500008  -18.80800095    1.10500000
    265      1   -5.52500008  -20.37070694    5.52500008
    266      1   -5.52500008  -21.93341292    3.31500008
    267      1   -3.31500008  -20.37070694    3.31500008
    268      1   -5.52500008  -17.24529496    5.52500008
    269      1   -5.52500008  -18.80800095    3.31500008
    270      1   -3.31500008  -17.24529496    3.31500008
    271      1   -3.31500008  -21.93341292    5.52500008
    272      1   -3.31500008  -18.80800095    5.52500008
    273      1   -5.52500008  -20.37070694    9.94500015
    274      1   -5.52500008  -21.93341292    7.73500015
    275      1   -3.31500008  -20.37070694    7.73500015
    276      1   -5.52500008  -17.24529496    9.94500015
    277      1   -5.52500008  -18.80800095    7.73500015
    278      1   -3.31500008  -17.24529496    7.73500015
    279      1   -3.31500008  -21.93341292    9.94500015
    280      1   -3.31500008  -18.80800095    9.94500015
    281      1   -5.52500008  -14.11988296   -7.73500015
    282      1   -5.52500008  -15.68258895   -9.94500015
    283      1   -3.31500008  -14.11988296   -9.94500015
    284      1   -5.52500008  -10.99447099   -7.73500015
    285      1   -5.52500008  -12.55717698   -9.94500015
    286      1   -3.31500008  -10.99447099   -9.94500015
    287      1   -3.31500008  -15.68258895   -7.73500015
    288      1   -3.31500008  -12.55717698   -7.73500015
    289      1   -5.52500008  -14.11988296   -3.31500008
    290      1   -5.52500008  -15.68258895   -5.52500008
    291      1   -3.31500008  -14.11988296   -5.52500008
    292      1   -5.52500008  -10.99447099   -3.31500008
    293      1   -5.52500008  -12.55717698   -5.52500008
    294      1   -3.31500008  -10.99447099   -5.52500008
    295      1   -3.31500008  -15.68258895   -3.31500008
    296      1   -3.31500008  -12.55717698   -3.31500008
    297      1   -5.52500008  -14.11988296    1.10500000
    298      1   -5.52500008  -15.68258895   -1.10500000
    299      1   -3.31500008  -14.11988296   -1.10500000
    300      1   -5.52500008  -10.99447099    1.10500000
    301      1   -5.52500008  -12.55717698   -1.10500000
    302      1   -3.31500008  -10.99447099   -1.10500000
    303      1   -3.31500008  -15.68258895    1.10500000
    304      1   -3.31500008  -12.55717698    1.10500000
    305      1   -5.52500008  -14.11988296    5.52500008
    306      1   -5.52500008  -15.68258895    3.31500008
    307      1   -3.31500008  -14.11988296    3.31500008
    308      1   -5.52500008  -10.99447099    5.52500008
    309      1   -5.52500008  -12.55717698    3.31500008
    310      1   -3.31500008  -10.99447099    3.31500008
    311      1   -3.31500008  -15.68258895    5.52500008
    312      1   -3.31500008  -12.55717698    5.52500008
    313      1   -5.52500008  -14.11988296    9.94500015
    314      1   -5.52500008  -15.68258895    7.73500015
    315      1   -3.31500008  -14.11988296    7.73500015
    316      1   -5.52500008  -10.99447099    9.94500015
    317      1   -5.52500008  -12.55717698    7.73500015
    318      1   -3.31500008  -10.99447099    7.73500015
    319      1   -3.31500008  -15.68258895    9.94500015
    320      1   -3.31500008  -12.55717698    9.94500015
    321      1   -5.52500008   -7.86905899   -7.73500015
    322      1   -5.52500008   -9.43176497   -9.94500015
    323      1   -3.31500008   -7.86905899   -9.94500015
    324      1   -5.52500008   -4.74364701   -7.73500015
    325      1   -5.52500008   -6.30635300   -9.94500015
    326      1   -3.31500008   -4.74364701   -9.94500015
    327      1   -3.31500008   -9.43176497   -7.73500015
    328      1   -3.31500008   -6.30635300   -7.73500015
    329      1   -5.52500008   -7.86905899   -3.31500008
    330      1   -5.52500008   -9.43176497   -5.52500008
    331      1   -3.31500008   -7.86905899   -5.52500008
    332      1   -5.52500008   -4.74364701   -3.31500008
    333      1   -5.52500008   -6.30635300   -5.52500008
    334      1   -3.31500008   -4.74364701   -5.52500008
    335      1   -3.31500008   -9.43176497   -3.31500008
    336      1   -3.31500008   -6.30635300   -3.31500008
    337      1   -5.52500008   -7.86905899    1.10500000
    338      1   -5.52500008   -9.43176497   -1.10500000
    339      1   -3.31500008   -7.86905899   -1.10500000
    340      1   -5.52500008   -4.74364701    1.10500000
    341      1   -5.52500008   -6.30635300   -1.10500000
    342      1   -3.31500008   -4.74364701   -1.10500000
    343      1   -3.31500008   -9.43176497    1.10500000
    344      1   -3.31500008   -6.30635300    1.10500000
    345      1   -5.52500008   -7.86905899    5.52500008
    346      1   -5.52500008   -9.43176497    3.31500008
    347      1   -3.31500008   -7.86905899    3.31500008
    348      1   -5.52500008   -4.74364701    5.52500008
    349      1   -5.52500008   -6.30635300    3.31500008
    350      1   -3.31500008   -4.74364701    3.31500008
    351      1   -3.31500008   -9.43176497    5.52500008
    352      1   -3.31500008   -6.30635300    5.52500008
    353      1   -5.52500008   -7.86905899    9.94500015
    354      1   -5.52500008   -9.43176497    7.73500015
    355      1   -3.31500008   -7.86905899    7.73500015
    356      1   -5.52500008   -4.74364701    9.94500015
    357      1   -5.52500008   -6.30635300    7.73500015
    358      1   -3.31500008   -4.74364701    7.73500015
    359      1   -3.31500008   -9.43176497    9.94500015
    360      1   -3.31500008   -6.30635300    9.94500015
    361      1   -5.52500008   -1.61823501   -7.73500015
    362      1   -5.52500008   -3.18094100   -9.94500015
    363      1   -3.31500008   -1.61823501   -9.94500015
    364      1   -5.52500008    1.50717696   -7.73500015
    365      1   -5.52500008   -0.05552903   -9.94500015
    366      1   -3.31500008    1.50717696   -9.94500015
    367      1   -3.31500008   -3.18094100   -7.73500015
    368      1   -3.31500008   -0.05552903   -7.73500015
    369      1   -5.52500008   -1.61823501   -3.31500008
    370      1   -5.52500008   -3.18094100   -5.52500008
    371      1   -3.31500008   -1.61823501   -5.52500008
    372      1   -5.52500008    1.50717696   -3.31500008
    373      1   -5.52500008   -0.05552903   -5.52500008
    374      1   -3.31500008    1.50717696   -5.52500008
    375      1   -3.31500008   -3.18094100   -3.31500008
    376      1   -3.31500008   -0.05552903   -3.31500008
    377      1   -5.52500008   -1.61823501    1.10500000
    378      1   -5.52500008   -3.18094100   -1.10500000
    379      1   -3.31500008   -1.61823501   -1.10500000
    380      1   -5.52500008    1.50717696    1.10500000
    381      1   -5.52500008   -0.05552903   -1.10500000
    382      1   -3.31500008    1.50717696   -1.10500000
    383      1   -3.31500008   -3.18094100    1.10500000
    384      1   -3.31500008   -0.05552903    1.10500000
    385      1   -5.52500008   -1.61823501    5.52500008
    386      1   -5.52500008   -3.18094100    3.31500008
    387      1   -3.31500008   -1.61823501    3.31500008
    388      1   -5.52500008    1.50717696    5.52500008
    389      1   -5.52500008   -0.05552903    3.31500008
    390      1   -3.31500008    1.50717696    3.31500008
    391      1   -3.31500008   -3.18094100    5.52500008
    392      1   -3.31500008   -0.05552903    5.52500008
    393      1   -5.52500008   -1.61823501    9.94500015
    394      1   -5.52500008   -3.18094100    7.73500015
    395      1   -3.31500008   -1.61823501    7.73500015
    396      1   -5.52500008    1.50717696    9.94500015
    397      1   -5.52500008   -0.05552903    7.73500015
    398      1   -3.31500008    1.50717696    7.73500015
    399      1   -3.31500008   -3.18094100    9.94500015
    400      1   -3.31500008   -0.05552903    9.94500015
    401      1   -1.10500000  -26.62153091   -7.73500015
    402      1   -1.10500000  -28.18423690   -9.94500015
    403      1    1.10500000  -26.62153091   -9.94500015
    404      1   -1.10500000  -23.49611894   -7.73500015
    405      1   -1.10500000  -25.05882492   -9.94500015
    406      1    1.10500000  -23.49611894   -9.94500015
    407      1    1.10500000  -28.18423690   -7.73500015
    408      1    1.10500000  -25.05882492   -7.73500015
    409      1   -1.10500000  -26.62153091   -3.31500008
    410      1   -1.10500000  -28.18423690   -5.52500008
    411      1    1.10500000  -26.62153091   -5.52500008
    412      1   -1.10500000  -23.49611894   -3.31500008
    413      1   -1.10500000  -25.05882492   -5.52500008
    414      1    1.10500000  -23.49611894   -5.52500008
    415      1    1.10500000  -28.18423690   -3.31500008
    416      1    1.10500000  -25.05882492   -3.31500008
    417      1   -1.10500000  -26.62153091    1.10500000
    418      1   -1.10500000  -28.18423690   -1.10500000
    419      1    1.10500000  -26.62153091   -1.10500000
    420      1   -1.10500000  -23.49611894    1.10500000
    421      1   -1.10500000  -25.05882492   -1.10500000
    422      1    1.10500000  -23.49611894   -1.10500000
    423      1    1.10500000  -28.18423690    1.10500000
    424      1    1.10500000  -25.05882492    1.10500000
    425      1   -1.10500000  -26.62153091    5.52500008
    426      1   -1.10500000  -28.18423690    3.31500008
    427      1    1.10500000  -26.62153091    3.31500008
    428      1   -1.10500000  -23.49611894    5.52500008
    429      1   -1.10500000  -25.05882492    3.31500008
    430      1    1.10500000  -23.49611894    3.31500008
    431      1    1.10500000  -28.18423690    5.52500008
    432      1    1.10500000  -25.05882492    5.52500008
    433      1   -1.10500000  -26.62153091    9.94500015
    434      1   -1.10500000  -28.18423690    7.73500015
    435      1    1.10500000  -26.62153091    7.73500015
    436      1   -1.10500000  -23.49611894    9.94500015
    437      1   -1.10500000  -25.05882492    7.73500015
    438      1    1.10500000  -23.49611894    7.73500015
    439      1    1.10500000  -28.18423690    9.94500015
    440      1    1.10500000  -25.05882492    9.94500015
    441      1   -1.10500000  -20.37070694   -7.73500015
    442      1   -1.10500000  -21.93341292   -9.94500015
    443      1    1.10500000  -20.37070694   -9.94500015
    444      1   -1.10500000  -17.24529496   -7.73500015
    445      1   -1.10500000  -18.80800095   -9.94500015
    446      1    1.10500000  -17.24529496   -9.94500015
    447      1    1.10500000  -21.93341292   -7.73500015
    448      1    1.10500000  -18.80800095   -7.73500015
    449      1   -1.10500000  -20.37070694   -3.31500008
    450      1   -1.10500000  -21.93341292   -5.52500008
    451      1    1.10500000  -20.37070694   -5.52500008
    452      1   -1.10500000  -17.24529496   -3.31500008
    453      1   -1.10500000  -18.80800095   -5.52500008
    454      1    1.10500000  -17.24529496   -5.52500008
    455      1    1.10500000  -21.93341292   -3.31500008
    456      1    1.10500000  -18.80800095   -3.31500008
    457      1   -1.10500000  -20.37070694    1.10500000
    458      1   -1.10500000  -21.93341292   -1.10500000
    459      1    1.10500000  -20.37070694   -1.10500000
    460      1   -1.10500000  -17.24529496    1.10500000
    461      1   -1.10500000  -18.80800095   -1.10500000
    462      1    1.10500000  -17.24529496   -1.10500000
    463      1    1.10500000  -21.93341292    1.10500000
    464      1    1.10500000  -18.80800095    1.10500000
    465      1   -1.10500000  -20.37070694    5.52500008
    466      1   -1.10500000  -21.93341292    3.31500008
    467      1    1.10500000  -20.37070694    3.31500008
    468      1   -1.10500000  -17.24529496    5.52500008
    469      1   -1.10500000  -18.80800095    3.31500008
    470      1    1.10500000  -17.24529496    3.31500008
    471      1    1.10500000  -21.93341292    5.52500008
    472      1    1.10500000  -18.80800095    5.52500008
    473      1   -1.10500000  -20.37070694    9.94500015
    474      1   -1.10500000  -21.93341292    7.73500015
    475      1    1.10500000  -20.37070694    7.73500015
    476      1   -1.10500000  -17.24529496    9.94500015
    477      1   -1.10500000  -18.80800095    7.73500015
    478      1    1.10500000  -17.24529496    7.73500015
    479      1    1.10500000  -21.93341292    9.94500015
    480      1    1.10500000  -18.80800095    9.94500015
    481      1   -1.10500000  -14.11988296   -7.73500015
    482      1   -1.10500000  -15.68258895   -9.94500015
    483      1    1.10500000  -14.11988296   -9.94500015
    484      1   -1.10500000  -10.99447099   -7.73500015
    485      1   -1.10500000  -12.55717698   -9.94500015
    486      1    1.10500000  -10.99447099   -9.94500015
    487      1    1.10500000  -15.68258895   -7.73500015
    488      1    1.10500000  -12.55717698   -7.73500015
    489      1   -1.10500000  -14.11988296   -3.31500008
    490      1   -1.10500000  -15.68258895   -5.52500008
    491      1    1.10500000  -14.11988296   -5.52500008
    492      1   -1.10500000  -10.99447099   -3.31500008
    493      1   -1.10500000  -12.55717698   -5.52500008
    494      1    1.10500000  -10.99447099   -5.52500008
    495      1    1.10500000  -15.68258895   -3.31500008
    496      1    1.10500000  -12.55717698   -3.31500008
    497      1   -1.10500000  -14.11988296    1.10500000
    498      1   -1.10500000  -15.68258895   -1.10500000
    499      1    1.10500000  -14.11988296   -1.10500000
    500      1   -1.10500000  -10.99447099    1.10500000
    501      1   -1.10500000  -12.55717698   -1.10500000
    502      1    1.10500000  -10.99447099   -1.10500000
    503      1    1.10500000  -15.68258895    1.10500000
    504      1    1.10500000  -12.55717698    1.10500000
    505      1   -1.10500000  -14.11988296    5.52500008
    506      1   -1.10500000  -15.68258895    3.31500008
    507      1    1.10500000  -14.11988296    3.31500008
    508      1   -1.10500000  -10.99447099    5.52500008
    509      1   -1.10500000  -12.55717698    3.31500008
    510      1    1.10500000  -10.99447099    3.31500008
    511      1    1.10500000  -15.68258895    5.52500008
    512      1    1.10500000  -12.55717698    5.52500008
    513      1   -1.10500000  -14.11988296    9.94500015
    514      1   -1.10500000  -15.68258895    7.73500015
    515      1    1.10500000  -14.11988296    7.73500015
    516      1   -1.10500000  -10.99447099    9.94500015
    517      1   -1.10500000  -12.55717698    7.73500015
    518      1    1.10500000  -10.99447099    7.73500015
    519      1    1.10500000  -15.68258895    9.94500015
    520      1    1.10500000  -12.55717698    9.94500015
    521      1   -1.10500000   -7.86905899   -7.73500015
    522      1   -1.10500000   -9.43176497   -9.94500015