ITEM: TIMESTEP
0
ITEM: NUMBER OF ATOMS
6000
ITEM: BOX BOUNDS pp pp pp
1.6453765831538369e-01 2.7176462341684783e+01
1.6211772327491047e-01 2.7178882276724881e+01
6.4768780451335317e-01 1.0871631219548495e+02
ITEM: ATOMS id type x y z c_peratom fx fy fz 
121 3 5.53426 5.70974 0.736 -29.2822 0.0779058 -0.607418 -1.01536 
122 2 5.48464 5.70843 5.9206 -25.5834 -0.0674207 -1.11214 1.30853 
601 2 5.52046 2.929 3.18446 -25.2344 0.383467 -0.34673 1.19756 
602 2 5.52691 2.93592 8.68074 -25.6216 0.288282 0.106421 -0.348808 
1002 2 2.8477 0.273701 8.61349 -25.6755 -1.66175 0.0823327 0.8114 
1021 2 2.84514 5.63176 3.25558 -25.5219 -0.277904 0.37304 0.986834 
1022 2 2.75911 5.65643 8.76608 -25.1398 0.219468 -1.20895 -1.02606 
1502 2 2.734 2.92393 5.99872 -25.6724 0.776231 0.70034 0.588146 
2001 1 1.5991 1.46857 1.94782 -7.59774 -1.42668 1.19921 0.66789 
2002 1 1.29194 1.51988 7.32272 -7.3297 1.2045 1.44574 1.23802 
2501 1 4.28503 4.33611 4.56925 -7.62383 -0.44337 -0.0611837 0.280952 
3001 1 4.26098 4.2425 1.934 -7.70147 -0.38957 0.688998 -0.147549 
3002 1 4.1347 4.22499 7.32983 -7.33187 -0.418075 1.34805 0.0132633 
3501 1 1.49095 1.5996 4.73955 -7.48863 -0.559056 -0.416321 -1.51889 
4001 1 4.09016 1.58206 4.612 -7.47281 1.07303 -0.604921 0.0672295 
4501 1 1.55997 4.24911 1.94698 -7.74398 -0.174417 -0.0134399 -0.490753 
4502 1 1.41288 4.29069 7.37929 -7.50579 0.851806 0.0908806 0.0409239 
5001 1 1.49896 4.30188 4.60065 -7.62355 0.13154 0.396245 0.732812 
5501 1 4.0957 1.50939 1.93081 -7.53284 2.69855 -0.342746 0.304437 
5502 1 4.12243 1.62829 7.36426 -7.5688 0.188227 -0.746057 -0.960997 
1001 2 2.81122 0.170953 3.25388 -25.4282 0.830442 -0.682771 0.580756 
2102 1 6.88366 1.50035 7.31758 -7.59837 -0.507296 0.776944 0.3908 
4601 1 6.87902 4.2473 1.86946 -7.21945 -0.445009 -0.0379365 1.70656 
2101 1 6.88612 1.54073 1.88203 -8.02646 -1.0267 0.334058 -0.128771 
3601 1 6.84086 1.61638 4.65068 -7.99493 -0.58808 -0.351879 -0.633732 
4602 1 6.816 4.33073 7.30222 -7.57648 0.215214 -0.79965 -0.421022 
501 2 0.227763 2.89529 3.29181 -25.3725 -0.482237 1.15375 0.946691 
102 2 5.53138 0.18171 5.96158 -25.1081 -0.472689 0.602346 -0.426514 
21 2 0.181725 5.68564 0.684974 -25.1332 -1.11375 -0.962357 0.449926 
1 2 0.188049 0.239734 0.700875 -25.5527 0.396577 -1.71245 -1.99455 
5101 1 7.07695 4.31408 4.56246 -7.36055 -1.77537 -0.772114 0.181886 
1702 2 13.6616 2.87777 6.02958 -25.4548 -0.0461747 0.432422 0.262467 
222 2 10.8822 5.68745 6.11431 -25.3432 1.28706 -2.1248 -1.60968 
701 2 10.8875 2.86729 3.32394 -25.5643 0.743122 0.0533236 -1.06912 
702 2 10.9933 2.83897 8.74112 -26.0785 -0.806225 0.436622 0.0321169 
1121 2 8.29984 5.54996 3.22885 -25.7697 -1.18801 0.744748 0.29645 
1122 2 8.23623 5.52055 8.61548 -25.1053 -0.302665 0.238908 1.10662 
1602 2 8.24186 2.97059 5.90839 -25.5932 -0.0818522 -1.52163 0.336532 
2201 1 12.2289 1.51516 1.88691 -8.11713 -0.0649514 0.172303 -0.473262 
2202 1 12.2308 1.54101 7.38278 -7.41317 1.29528 -0.278686 -0.546558 
2601 1 9.68111 4.27325 4.52416 -7.47782 -0.000636862 0.119863 0.85725 
3101 1 9.51871 4.24695 1.82179 -7.24005 0.268447 -0.396224 -0.156066 
3102 1 9.55779 4.06791 7.25356 -7.43839 -0.0428437 2.25261 0.821661 
3701 1 12.3698 1.49063 4.66068 -7.51561 -1.14447 0.584753 -0.199697 
4101 1 9.569 1.49898 4.53067 -7.53983 0.0507624 -0.0476464 0.821104 
4701 1 12.2062 4.30231 2.02176 -7.46536 0.115609 -1.46669 -0.294318 
4702 1 12.1844 4.29341 7.44536 -7.50875 1.37947 0.180493 0.166158 
5201 1 12.3382 4.27401 4.77003 -7.37492 0.187533 -0.807298 0.0116206 
5601 1 9.53831 1.5895 1.89852 -6.85011 -0.135153 -0.107952 0.796686 
5602 1 9.58918 1.53348 7.23194 -7.05189 -0.257027 -0.755945 0.99577 
1102 2 8.20131 0.207635 8.64557 -25.7977 0.246245 0.733199 0.616266 
1101 2 8.10415 0.285266 3.30397 -25.313 1.98109 -1.11877 -1.56899 
2221 1 12.2199 6.88668 1.98858 -7.18316 0.709267 0.536422 -0.311315 
5622 1 9.60992 6.86937 7.42322 -8.11462 0.133551 0.36131 0.53537 
1221 2 13.566 5.56529 3.36777 -25.8034 0.855712 0.582871 -0.845847 
1222 2 13.6475 5.55274 8.79568 -25.6839 0.352588 0.597334 -0.20754 
1201 2 13.5337 0.232573 3.17509 -25.561 1.69512 -1.23166 1.53099 
2021 1 1.40079 7.03488 2.00795 -7.81861 1.24796 0.339051 -0.975266 
5522 1 4.09716 7.02589 7.39608 -7.81037 0.45218 -0.770102 0.192077 
3521 1 1.49483 7.04561 4.67779 -7.43264 -1.32693 -0.8735 -0.190108 
5521 1 4.11286 6.9766 2.02225 -7.55265 0.766996 0.304849 -0.277955 
142 2 5.51584 11.1223 6.0411 -25.6325 -1.00248 -0.680534 0.365539 
621 2 5.52309 8.47652 3.45582 -25.6676 0.529824 -0.769773 -0.912953 
622 2 5.37634 8.33572 8.74031 -25.4478 1.13574 0.800706 -0.33312 
1041 2 2.70972 11.2042 3.36814 -25.2114 0.314571 -1.49922 -0.0797672 
1042 2 2.65691 11.0009 8.81613 -25.3748 1.84433 2.70864 -1.39761 
1522 2 2.69255 8.31536 6.07079 -25.3592 1.9578 1.4668 -1.04405 
2022 1 1.44087 7.04025 7.31904 -8.01282 -0.836698 -0.884885 1.05227 
2041 1 1.23748 12.5326 2.00406 -7.62232 1.98526 0.73082 -0.908082 
2042 1 1.44174 12.3423 7.3387 -7.52628 -0.350755 -0.121812 0.281906 
2521 1 4.17997 9.82913 4.71221 -7.48751 0.151399 0.22188 -0.0293836 
3021 1 4.28198 9.70192 1.99819 -7.3535 -1.00108 0.307468 -0.0209221 
3022 1 4.05086 9.74211 7.41187 -7.18349 -0.164936 -0.162868 0.118007 
3541 1 1.32669 12.5167 4.59151 -7.51243 -0.409612 -0.703363 0.917827 
4021 1 4.09148 7.10793 4.7272 -7.43798 0.519439 -0.403524 -0.415233 
4041 1 3.90176 12.5528 4.75524 -7.57951 2.55524 -1.39444 -1.32616 
4521 1 1.60546 9.83156 1.82964 -8.19934 -0.2946 -0.40149 1.00366 
4522 1 1.44373 9.67739 7.40914 -8.07469 -0.825182 -0.474218 -0.144176 
5021 1 1.47169 9.68894 4.56725 -7.96229 0.495324 0.981095 1.04245 
5541 1 3.94286 12.4289 2.03914 -8.06529 1.05069 0.676072 -1.28444 
5542 1 4.14753 12.4881 7.45575 -7.13141 -0.229038 -0.783333 -0.462146 
2121 1 6.84411 6.94504 2.00221 -7.52866 -0.282752 0.840434 -0.665735 
3621 1 6.77402 6.93379 4.66395 -7.25912 0.710319 1.39425 -0.36854 
2141 1 6.7563 12.4517 1.86749 -7.43052 -0.124749 -0.345261 0.449501 
3641 1 6.6734 12.4289 4.61172 -7.76206 1.08116 -0.166525 -0.296515 
4621 1 6.80674 9.82578 1.9418 -7.31409 1.2371 -1.22036 0.228528 
2142 1 6.89124 12.3039 7.34544 -7.7355 0.834259 -0.263275 0.411692 
4622 1 6.67931 9.58751 7.33353 -7.36142 1.16513 0.659918 0.0907821 
521 2 0.197761 8.46895 3.22956 -25.156 -0.621987 -1.50971 1.48333 
522 3 0.26833 8.37837 8.77847 -28.4056 -2.02627 0.00528637 -0.70589 
41 2 0.218147 11.0759 0.684964 -24.7773 -0.962621 0.808613 -1.53845 
5621 1 9.51279 6.91925 2.05756 -7.69626 0.875713 1.35631 -1.32023 
2222 1 12.3241 7.01188 7.38013 -7.89062 -0.428774 0.147554 0.175575 
2122 1 6.96941 6.96415 7.34217 -7.44349 -1.47071 -0.530289 0.787891 
4121 1 9.52982 6.96795 4.75601 -7.53588 -0.351758 0.025215 0.205521 
3721 1 12.2055 6.91958 4.63958 -7.67472 0.906286 0.628977 1.18404 
242 2 10.9142 11.0729 6.00377 -25.661 -0.39745 -1.1352 0.133746 
721 2 10.8857 8.20531 3.39792 -25.6002 -0.589762 1.76799 -1.00433 
722 3 10.9412 8.21082 8.5997 -28.8716 -0.0859608 1.38491 1.09476 
1141 3 8.22625 11.1608 3.26638 -29.0437 -0.458325 -1.16433 0.226059 
1142 3 8.19822 11.0549 8.73568 -29.1705 -0.0397754 0.0081711 0.090412 
1622 2 8.20434 8.30055 6.14962 -25.6997 -0.0388199 0.860127 -2.4378 
2241 1 12.1959 12.3051 1.91827 -7.62059 0.646896 -0.609322 0.0979399 
2242 1 12.3004 12.2963 7.28922 -7.67301 0.849428 1.01056 0.840394 
2621 1 9.56535 9.71707 4.73888 -6.78652 0.918959 -0.114275 -0.41676 
3121 1 9.45347 9.7995 2.08806 -7.25194 1.05748 -1.04304 -0.608566 
3122 1 9.5549 9.54369 7.32429 -7.50112 -0.246507 1.04832 1.04885 
3741 1 12.3829 12.3656 4.66721 -7.65693 -0.890616 0.105075 -0.893482 
4141 1 9.57784 12.4122 4.67659 -8.10465 -0.342557 -0.441887 -1.13365 
4721 1 12.3135 9.4866 1.92159 -7.4868 -0.227456 0.787146 1.16453 
4722 1 12.1845 9.72038 7.40447 -7.377 0.328779 -1.06341 -0.0203224 
5121 1 7.04874 9.74431 4.67228 -7.29572 -1.5995 0.139739 -0.116604 
5221 1 12.2479 9.67017 4.69153 -7.97882 0.713354 -0.564921 -0.323028 
5641 1 9.51433 12.4084 1.90482 -7.8013 -0.282838 0.363963 0.359658 
5642 1 9.64521 12.4218 7.39495 -7.41248 -1.01614 -1.8045 -1.26755 
1241 2 13.6102 10.8899 3.32558 -25.2612 0.527126 1.04457 -0.574807 
1242 2 13.6213 11.0092 8.74956 -25.5752 -0.0791717 0.426098 -0.418931 
1722 2 13.642 8.39021 6.03495 -25.2644 0.279325 -1.00489 -0.0757621 
1742 2 13.6456 13.6417 6.02222 -25.4394 1.22027 1.26306 -0.00718508 
1642 2 8.29488 13.6603 6.00645 -25.4613 -1.10417 1.0123 0.275074 
104 2 5.43882 0.185443 16.7684 -25.247 1.08159 0.405382 0.606003 
1003 2 2.89713 0.181926 14.0862 -25.17 -1.12163 1.33861 0.431334 
103 2 5.5657 0.245014 11.4202 -25.362 1.18318 0.373691 -1.18081 
123 3 5.53503 5.61834 11.3524 -28.8176 -0.212754 -0.0439056 0.233051 
124 2 5.56043 5.67069 16.747 -25.5358 -0.705715 -0.545797 -0.598784 
603 2 5.66623 3.00679 14.0678 -25.4715 -1.9795 0.0333808 0.271595 
1023 2 2.86252 5.61861 13.9518 -25.8197 -1.4121 -1.20655 1.75688 
1503 2 2.90143 2.89094 11.3853 -25.5114 -1.59664 0.288402 0.898163 
1504 3 2.92629 2.88818 16.6845 -29.5179 -1.33197 1.1489 -0.0223882 
2003 1 1.49925 1.58243 12.7668 -7.69207 0.351076 -0.854812 0.55258 
2004 1 1.30534 1.39036 18.1548 -7.18198 1.05163 0.724678 0.152968 
2502 1 4.10345 4.21989 10.0796 -7.68788 0.0442348 1.57134 -0.848723 
2503 1 4.22332 4.22025 15.456 -7.44522 0.0677305 0.76715 -0.676445 
3003 1 4.27158 4.26128 12.6589 -7.56006 -0.674546 -0.115799 0.656967 
3004 1 4.399 4.3311 18.1029 -7.31506 -0.230928 -0.23776 0.0296717 
3502 1 1.39051 1.69619 10.0625 -7.5851 0.551919 0.809357 -0.157261 
3503 1 1.42643 1.71531 15.5145 -7.27776 0.492498 -1.28515 -0.454971 
4002 1 4.20801 1.63739 9.97185 -7.73413 0.00454939 -1.12276 1.10312 
4003 1 4.12358 1.61737 15.4305 -7.63236 0.459073 -1.08487 0.150137 
4503 1 1.48205 4.18963 12.7698 -7.09754 0.567566 0.451882 -0.922573 
4504 1 1.78232 4.10326 18.0321 -7.15027 -0.613366 0.159997 0.0490922 
5002 1 1.3087 4.45723 10.0836 -7.76242 0.430044 -0.0494672 -0.143486 
5003 1 1.51161 4.32129 15.3301 -6.92549 0.357848 0.46486 0.585513 
5503 1 4.23571 1.52227 12.7778 -7.56418 -0.441546 0.719657 -0.541703 
5504 1 4.03132 1.67785 18.1002 -8.26222 0.63751 -1.23171 0.254853 
3603 1 6.87126 1.78511 15.5214 -7.57541 0.0699073 -1.22693 -0.322341 
2024 1 1.4976 6.84589 17.9951 -7.30033 -0.365744 0.165507 0.672795 
5102 1 6.80684 4.27996 9.97597 -7.83437 0.787052 0.5169 0.637857 
2103 1 6.85839 1.64134 12.7611 -7.58559 0.0408922 0.0470866 0.0916599 
2104 1 6.85421 1.32181 18.2087 -7.418 -0.851693 0.963505 -0.654951 
4603 1 6.81467 4.33155 12.6289 -7.9153 1.66717 0.0616253 0.203941 
5523 1 4.15827 6.87837 12.7204 -7.57796 1.12049 0.907127 -1.20987 
2023 1 1.4504 6.89285 12.6161 -7.99796 -0.0824874 -0.175018 0.336745 
24 3 0.214846 5.60123 16.687 -29.7304 0.51609 -0.600955 0.182369 
1103 2 8.28215 0.257262 14.0347 -25.6104 -0.0521933 -1.0557 1.35552 
1223 2 13.6321 5.54823 14.201 -25.4824 0.574958 0.288885 -1.17726 
5103 1 6.94253 4.397 15.3589 -7.70367 0.382362 0.119782 -0.0258812 
4604 1 7.02846 4.1293 18.1632 -7.65642 -0.0704561 0.412688 -0.796688 
223 2 10.8946 5.65809 11.4088 -25.5244 1.4298 -0.719334 -0.283036 
224 3 11.0078 5.64222 16.7432 -29.2083 -1.31071 0.0161334 0.33685 
703 2 10.865 2.97841 14.0517 -25.0498 0.934747 -0.462238 0.176248 
1123 3 8.22172 5.68658 14.0337 -29.0464 0.474636 0.59287 0.675667 
1603 3 8.24199 3.02109 11.5033 -28.7111 -0.232343 -1.10758 -1.5743 
1604 2 8.32903 2.93163 16.7646 -25.3123 -0.21773 0.0514715 -0.0773044 
2203 1 12.3991 1.39288 12.687 -7.55477 -0.874523 1.40991 0.531962 
2204 1 12.2558 1.42905 18.0402 -7.93276 -0.134189 0.855301 0.52997 
2602 1 9.61937 4.24994 9.96421 -7.70697 -1.14173 0.666145 0.432697 
2603 1 9.61899 4.44034 15.3052 -7.48241 -0.717221 -1.5192 0.194633 
3103 1 9.55658 4.37187 12.6438 -8.21409 -0.733789 -0.782641 0.500737 
3104 1 9.75175 4.19355 18.0286 -7.77375 -0.45697 0.541682 -0.175056 
3602 1 7.01361 1.59657 10.1064 -7.45249 -0.422433 0.372191 -0.413509 
3702 1 12.3832 1.56397 10.0177 -7.07287 -0.0349138 -0.674765 0.340993 
3703 1 12.4012 1.49774 15.3643 -7.44267 -0.0772702 0.553241 0.0913346 
4102 1 9.75865 1.57697 10.1703 -7.04427 -0.841385 0.195607 -0.494605 
4103 1 9.65276 1.56762 15.4236 -7.92195 -0.147659 0.326124 -0.286361 
4703 1 12.3344 4.25997 12.8215 -7.55614 -0.642587 -0.88857 0.119367 
4704 1 12.375 4.23495 18.2162 -7.57973 0.274539 0.242328 -0.955152 
5202 1 12.3019 4.22933 10.1701 -7.07508 -0.110251 -0.0590938 -0.305089 
5203 1 12.1898 4.24629 15.4724 -7.77849 1.3053 -0.789981 0.870113 
5603 1 9.3873 1.65413 12.8038 -7.65256 2.21497 1.21705 -0.510525 
5604 1 9.56902 1.47595 18.039 -7.39938 -0.0347646 0.846692 0.858138 
3723 1 12.1275 6.84885 15.4717 -7.59651 1.63277 0.587321 -0.126425 
5624 1 9.65509 6.89697 18.1237 -7.56331 -0.666884 0.0975485 0.318099 
3722 1 12.2743 6.8945 10.1376 -7.59866 1.03144 0.729734 -1.41925 
1704 2 13.631 2.78633 16.7764 -25.0358 0.0850926 1.11257 0.368004 
3523 1 1.46193 7.01614 15.3846 -7.18501 0.840532 0.63927 -0.872439 
5524 1 4.09537 7.05563 17.8607 -6.99994 0.354487 -0.128429 0.217418 
3522 1 1.55293 7.13921 9.96359 -8.31884 -1.23983 0.404245 0.0687283 
4022 1 4.12737 6.98704 10.0872 -8.04913 0.643484 -0.2947 0.0559733 
4023 1 4.11444 6.98923 15.2713 -7.48191 0.746525 0.273588 0.604183 
44 2 0.216242 11.0258 16.7585 -25.3779 -0.280407 -0.144372 0.420038 
2143 1 6.68269 12.4016 12.8319 -7.52472 1.35561 -0.283524 -1.48036 
143 2 5.46918 10.9571 11.431 -25.7333 0.301991 1.43958 0.263429 
144 2 5.51666 10.9387 16.7552 -25.2767 0.496824 1.14291 0.10313 
623 2 5.54335 8.35424 14.1401 -25.3031 0.253038 -0.564071 -0.979556 
1043 3 2.78967 11.0419 14.0766 -29.0541 0.274696 -0.182074 0.0224602 
1523 2 2.78666 8.28344 11.4104 -24.9162 0.600975 1.07924 1.27926 
1524 3 2.72325 8.37241 16.6048 -29.2636 0.459716 -1.09396 0.681064 
2043 1 1.33659 12.2827 12.5968 -7.7674 1.29726 0.206113 1.14652 
2044 1 1.61344 12.4356 18.0948 -7.94486 -0.0075728 -0.388552 0.433882 
2522 1 4.02535 9.80771 10.1257 -7.89285 -0.547065 -2.14413 0.228881 
2523 1 4.15353 9.74026 15.4187 -7.7735 1.09456 -0.788463 0.417115 
3023 1 4.21686 9.60632 12.8117 -7.7288 -0.799169 0.355291 -0.500632 
3024 1 4.18753 9.67593 18.1348 -7.73477 -0.29794 0.0573577 -0.0897238 
3542 1 1.40928 12.5699 10.0155 -7.52244 1.06526 -0.689401 -0.162565 
3543 1 1.50937 12.4103 15.4263 -7.97638 0.0165125 0.111593 -0.670273 
4042 1 4.22836 12.3819 10.0894 -7.40012 -1.32943 0.831467 1.10375 
4043 1 4.19557 12.3797 15.4465 -7.32406 -0.338609 0.120379 1.1143 
4523 1 1.48878 9.51447 12.7565 -7.55944 0.137646 0.579643 -0.122659 
4524 1 1.38805 9.58719 18.0762 -7.68979 1.68972 0.337866 -0.391146 
5022 1 1.28373 9.89777 10.0626 -8.18949 0.178663 -1.52595 0.806831 
5023 1 1.63474 9.75661 15.376 -7.67915 -1.60107 -0.0524157 0.409233 
5543 1 4.07769 12.3555 12.897 -7.47191 -1.40616 -0.793133 -1.54671 
5544 1 4.27537 12.3349 18.1441 -7.43903 -0.508589 -0.548934 -0.789119 
3642 1 6.8927 12.3906 10.1204 -7.28109 0.352137 0.0664218 -0.0747525 
2124 1 6.7868 7.04089 18.0898 -7.88472 1.33826 -1.85565 -0.194418 
3622 1 6.82088 7.01446 10.0423 -7.91301 0.315749 -0.556865 0.211013 
4623 1 6.90226 9.58851 12.6642 -7.48906 -0.527409 0.731914 0.514897 
5122 1 6.73933 9.79083 9.98995 -7.36587 0.532077 -1.16869 -0.244593 
3643 1 6.91435 12.35 15.3407 -7.45797 -0.854039 0.226899 1.63373 
723 2 10.9358 8.40982 14.0314 -25.4407 -0.682948 -2.15333 0.57933 
244 3 10.9975 10.9258 16.7481 -29.6648 -0.93959 -0.552273 0.761808 
1243 2 13.6117 10.9396 14.1232 -25.7115 -0.314164 -0.448913 -0.170756 
243 2 10.9074 10.8648 11.3595 -25.4264 -0.372623 2.79571 -1.23389 
4724 1 12.2717 9.61905 18.1593 -7.36393 0.813605 -0.304126 0.294788 
3742 1 12.3681 12.4569 10.012 -7.65465 -0.173868 -0.698028 0.297563 
3743 1 12.301 12.1095 15.5572 -7.71489 -0.522979 0.977281 -1.05203 
2123 1 6.96998 6.95855 12.7741 -7.56461 -1.04611 -0.505869 -0.268991 
4123 1 9.52127 6.98749 15.4141 -6.94599 -0.0227737 0.930835 -0.325999 
5623 1 9.56975 7.01167 12.6524 -7.79752 0.954848 -0.067044 1.18001 
2223 1 12.4798 6.95484 12.7549 -7.49702 -2.17251 -0.130461 1.28264 
2224 1 12.3421 6.96126 18.184 -7.79152 -0.00765185 -0.882273 -0.104846 
5222 1 12.1597 9.61876 10.0682 -7.6926 1.0263 -0.608244 -0.82527 
1723 2 13.6272 8.24967 11.4407 -25.4521 0.873681 0.214665 -0.919549 
2243 1 12.1868 12.2751 12.6807 -7.48698 0.290969 1.31534 0.767053 
5223 1 12.2169 9.53592 15.4766 -7.38975 1.62989 -0.217235 0.00853552 
1623 2 8.22365 8.26162 11.3296 -25.5751 -0.41351 1.00132 -0.477089 
1143 2 8.25027 11.0446 14.0269 -25.6447 -0.47531 -0.85164 0.143372 
743 2 10.8183 13.6652 14.1393 -25.2447 0.257518 0.0333438 -1.22244 
3623 1 6.92438 7.00582 15.4465 -7.74215 -1.30395 0.00764513 -0.55915 
1624 2 8.14787 8.32141 16.7751 -25.5598 3.41342 -0.220958 -0.0898868 
4624 1 6.97323 9.62992 18.1406 -7.63568 -0.594401 1.0963 -0.105419 
5123 1 7.05478 9.69891 15.4147 -7.88471 -2.16618 -0.202862 -0.0227114 
3124 1 9.64701 9.66182 17.9539 -7.28692 -0.286437 -0.207714 0.803279 
3123 1 9.51997 9.70866 12.5816 -7.62816 0.19571 -0.713332 1.09742 
2623 1 9.70394 9.73879 15.2965 -6.99377 -0.827273 -0.345753 0.0160348 
2622 1 9.45352 9.75059 9.95006 -7.26881 -0.154027 -0.915925 -0.156579 
2244 1 12.2713 12.1926 18.1771 -7.46495 0.188819 0.998457 0.477387 
2144 1 6.94966 12.2986 18.2024 -7.80829 0.0571881 -0.241677 -0.54351 
5644 1 9.63219 12.3628 18.1803 -7.39579 -0.392235 -0.147487 -0.279835 
5643 1 9.52487 12.3875 12.7472 -8.11412 -0.287959 0.640391 -0.601685 
4723 1 12.2497 9.67711 12.7049 -7.76323 0.13564 -0.774828 0.639899 
1644 2 8.14231 13.6087 16.7479 -25.3442 1.01882 1.08082 0.847836 
4142 1 9.59953 12.3455 9.89139 -6.99738 -0.1393 -0.413366 2.13778 
4122 1 9.70006 7.04645 10.0393 -7.65233 -1.3242 -0.379555 -0.632545 
4143 1 9.54966 12.2888 15.4618 -7.69297 0.7531 1.23629 0.400665 
1744 2 13.5292 13.5299 16.8456 -25.3706 1.3126 0.944827 -0.634065 
125 3 5.48737 5.48223 22.0252 -29.4796 0.647069 0.653251 0.463446 
504 3 0.177139 2.7961 19.5255 -29.3264 0.401394 0.0696459 -0.649285 
604 2 5.48028 2.82652 19.4673 -25.2964 1.0281 0.507344 -0.100039 
605 2 5.46568 2.74914 24.8152 -25.2399 1.64946 0.499551 -0.109522 
1024 2 2.92795 5.57751 19.3893 -25.9083 -1.2433 -0.111063 -1.66203 
1025 3 2.81552 5.34736 24.8659 -28.8259 0.158894 1.29961 -1.04257 
1505 3 2.78711 2.98988 22.1159 -28.797 0.0711133 -1.41175 -0.0546906 
2005 1 1.56742 1.67708 23.2991 -7.22532 -0.357057 -0.617328 1.03327 
2504 1 4.26429 4.35397 20.7183 -7.90912 -0.295825 -1.65335 1.11782 
2505 1 4.29166 4.20717 26.1236 -7.90267 -0.202067 -0.705723 0.150653 
3005 1 4.09848 4.12281 23.4149 -7.81169 -0.649837 -0.711541 0.191263 
3504 1 1.47567 1.46277 20.7399 -7.37402 -0.975757 -0.0459173 0.0883224 
3505 1 1.42112 1.46779 26.0823 -7.5684 0.315052 0.681611 -0.235132 
4004 1 4.04856 1.44232 20.8839 -7.9904 1.19096 1.42822 -0.573722 
4005 1 4.22804 1.40394 26.1841 -7.76328 -0.884247 0.938029 0.0419762 
4505 1 1.32865 4.17152 23.4683 -7.94067 1.08243 -0.0927975 0.429637 
5004 1 1.64215 4.11527 20.7503 -7.78925 -0.683169 0.11534 0.300446 
5005 1 1.65655 4.11237 26.056 -7.78234 -0.373858 0.166661 0.638097 
5505 1 4.16924 1.47238 23.556 -7.88728 0.150016 -0.206489 -0.609872 
2105 1 6.9151 1.47176 23.3917 -7.74455 -0.756649 0.0786201 0.773694 
4605 1 6.77839 4.27465 23.4165 -7.42615 0.0867872 -1.48838 0.711036 
5104 1 6.9035 4.19528 20.7892 -7.15969 -0.202362 -0.747533 0.224187 
4025 1 4.00515 6.79426 25.9566 -7.63867 1.15006 0.626653 0.587038 
3624 1 6.76961 6.81744 20.7546 -7.15444 0.818353 0.360639 0.149155 
126 2 5.66056 5.38094 27.6435 -24.9897 0.200475 1.09334 -1.14867 
1506 2 2.92955 2.85283 27.5037 -25.311 -1.1324 -1.32684 -0.0394627 
1004 2 2.83238 0.174689 19.3887 -25.419 -1.28433 -0.549044 0.480983 
3524 1 1.50105 6.79214 20.7853 -7.78618 0.180958 0.836465 0.0633854 
25 2 0.194157 5.46735 22.1775 -25.2374 -1.03234 0.363167 -0.313265 
1005 3 2.91816 0.221433 24.7524 -29.3476 -1.2345 -0.842512 1.21751 
3604 1 6.89018 1.49684 20.7646 -7.73087 -0.636052 -0.272401 0.209851 
2025 1 1.36186 6.79887 23.5257 -7.78476 0.919831 1.47208 0.485914 
5525 1 4.03567 6.6941 23.2102 -7.52345 0.460968 0.402608 0.554644 
3625 1 6.85131 6.84122 26.2668 -7.64478 -1.11439 -0.869115 -0.303846 
3525 1 1.47392 6.88948 26.2526 -7.60613 -0.938162 -0.785893 -0.739442 
2125 1 6.78223 6.83791 23.4084 -7.41763 -0.499896 0.367393 0.82073 
5105 1 6.92904 3.96466 26.1902 -7.75332 -0.524937 0.303474 0.171237 
3605 1 6.91911 1.2951 26.1618 -7.04067 -0.264371 0.240016 -0.443176 
225 2 10.9771 5.56425 22.4049 -24.8033 -0.881499 -0.013313 -2.54323 
704 2 10.9804 2.86724 19.3807 -25.6356 -0.0691125 -0.359826 1.40992 
705 2 10.9089 2.78849 24.9394 -25.2246 0.222817 -0.335707 -0.366278 
1124 2 8.23267 5.5461 19.4598 -25.606 0.540379 0.139425 0.467693 
1125 2 8.14428 5.38487 24.8583 -25.3451 -0.221974 1.37289 0.624823 
1605 2 8.28115 2.74015 22.1398 -25.5993 -0.109243 0.999728 -0.630496 
2205 1 12.2543 1.40219 23.548 -7.5026 0.460461 0.821619 0.0196533 
2604 1 9.58845 4.15108 20.8225 -7.28213 0.37166 0.450716 -0.087843 
2605 1 9.54603 4.22308 26.3149 -7.31767 0.877584 -0.594265 -1.6939 
3105 1 9.55703 4.09088 23.5692 -8.17924 0.129174 0.324179 0.150299 
3704 1 12.4311 1.4524 20.8428 -7.68631 -0.206885 -0.268821 -0.100759 
3705 1 12.3003 1.43006 26.2523 -7.70402 0.00911865 0.194992 0.516643 
4104 1 9.64925 1.4728 20.7643 -7.40383 -0.0182303 0.222194 0.0351274 
4105 1 9.57663 1.46356 26.2372 -7.58221 0.0779794 -0.0947952 -0.229781 
4705 1 12.3049 4.27033 23.5966 -7.94852 1.12731 -0.800526 0.0459254 
5204 1 12.3192 4.09101 20.8357 -7.44116 0.274709 1.56994 0.671203 
5205 1 12.3334 4.15056 26.237 -8.15761 0.471385 0.0849049 0.222638 
5605 1 9.58445 1.31289 23.539 -7.53997 0.11355 1.34304 -0.301253 
226 2 11.0547 5.46183 27.5045 -25.1137 -1.8113 1.52548 1.29579 
1606 3 8.16321 2.62551 27.6108 -29.4101 0.381904 1.18522 -0.804939 
1706 2 13.6668 2.81175 27.64 -25.1498 0.18581 -0.915058 -0.361955 
4124 1 9.52312 6.87816 20.8855 -7.73577 1.12112 0.0662954 0.068501 
1224 3 13.6049 5.62796 19.5346 -28.891 0.739794 -0.522204 0.287595 
1104 3 8.14826 0.182271 19.4448 -29.574 0.461528 -0.739208 0.174799 
4024 1 4.18829 7.00231 20.5173 -7.38303 -0.530414 0.326455 1.3756 
525 3 0.199934 8.1914 24.8451 -28.9386 -1.04652 0.25046 0.732115 
145 2 5.53168 10.8591 22.2586 -25.3597 1.49965 0.670597 -0.512848 
624 2 5.57159 8.31701 19.3919 -25.6501 -0.965896 0.332593 0.608233 
625 2 5.46317 8.14347 24.8062 -25.1996 0.947348 -0.523999 0.756426 
1044 2 2.88261 10.9918 19.5328 -25.4279 -0.410701 -0.279199 -1.33154 
1045 2 2.76656 10.9113 24.837 -25.1674 0.612099 -0.449164 0.559126 
1525 2 2.86222 8.23298 22.116 -24.977 -1.22766 -0.982702 -0.577986 
2045 1 1.42835 12.3974 23.4906 -7.58618 1.14717 0.198991 0.769331 
2524 1 4.17278 9.68836 20.9342 -7.78814 0.0528022 -0.348237 -0.727014 
2525 1 4.26774 9.54267 26.2652 -7.52487 -0.888573 -0.587487 -0.922473 
3025 1 4.08562 9.42891 23.5679 -8.11643 0.013045 -0.13003 0.165603 
3544 1 1.55179 12.2308 20.8547 -7.57791 0.101973 1.0855 -0.586195 
3545 1 1.63161 12.2424 26.2226 -8.15426 -0.249648 0.590712 0.478753 
4044 1 4.20658 12.3941 20.7583 -7.6763 0.608985 -0.439412 0.93549 
4045 1 4.40474 12.1952 26.1539 -7.44192 -2.21927 0.592151 1.14063 
4525 1 1.27956 9.74123 23.5288 -7.82328 2.37458 -2.4965 0.55408 
5024 1 1.47666 9.62613 20.7766 -7.69579 0.161157 -1.39414 0.39308 
5025 1 1.44553 9.52881 26.1862 -7.68581 0.861703 0.114044 0.343288 
5545 1 4.17826 12.0889 23.5576 -7.71303 -0.360238 1.48785 -0.939388 
1526 2 2.88115 8.16287 27.4796 -25.2735 -0.336365 0.297013 0.587478 
1546 2 2.93618 13.6009 27.5541 -25.2619 0.117097 0.584297 0.576695 
545 3 0.273275 13.6241 24.8901 -29.1907 -0.89408 0.647674 -0.276426 
2145 1 6.91232 12.2001 23.5879 -7.57249 0.010237 0.905144 0.206146 
5124 1 6.87097 9.53069 20.7905 -7.47496 0.0140155 0.42976 1.0396 
146 2 5.58344 10.8698 27.6018 -25.6056 0.608924 0.803115 0.479861 
645 2 5.58886 13.634 24.949 -25.3689 0.134046 0.888723 -0.601951 
644 2 5.57152 13.6197 19.4138 -25.2112 0.239132 0.238662 1.46037 
1545 2 2.89549 13.6075 22.1711 -25.4333 -0.624839 0.706357 0.61478 
3724 1 12.3946 7.02045 20.8486 -7.84904 -0.607886 -1.9134 0.0752022 
2225 1 12.3135 6.9658 23.5467 -7.74014 0.00950014 -0.286112 -0.373422 
1746 2 13.6293 13.6094 27.6489 -25.3478 0.867741 -0.484492 -0.298338 
3644 1 6.999 12.2642 20.978 -7.01144 -0.705866 -0.69543 -0.899769 
5625 1 9.46697 6.96113 23.6429 -7.88169 0.959135 -2.14626 0.174811 
4125 1 9.47149 6.96866 26.364 -7.32601 1.9464 -1.17464 -0.966801 
4625 1 6.94828 9.52234 23.6423 -7.72728 -0.711415 0.0999349 -0.325931 
5125 1 6.95937 9.54709 26.3821 -7.53471 0.239902 0.851431 -0.815393 
1725 3 13.6427 8.27331 22.1027 -29.1955 0.959693 -0.00915787 1.40849 
245 2 10.9867 10.8871 22.2575 -25.5754 -0.179843 1.40223 -0.762001 
724 2 10.982 8.30812 19.5032 -25.4128 -0.749013 -0.649977 -0.797855 
725 2 10.8371 8.2732 24.9306 -25.5274 2.08986 -0.0856967 0.318471 
1144 3 8.36149 10.9582 19.5311 -29.1517 -0.846198 0.687256 -0.509513 
1145 2 8.28753 10.9945 24.978 -25.4773 0.0871058 -0.346948 -0.0476349 
1625 2 8.22531 8.1935 22.2144 -25.5711 -1.08013 0.178863 -1.16175 
2245 1 12.2949 12.204 23.6332 -7.30883 0.974766 1.23857 0.0364652 
2624 1 9.49931 9.63183 20.6606 -7.791 1.18886 -0.074369 0.593472 
2625 1 9.71055 9.64655 26.2807 -7.81448 -0.549964 0.49057 -0.0864973 
3125 1 9.65169 9.50603 23.3954 -7.7053 -0.350412 1.04859 0.746261 
3645 1 6.91795 12.4392 26.237 -7.55728 0.954107 -1.07628 1.52665 
3725 1 12.3656 6.9223 26.1708 -7.61451 -1.16404 -1.20729 1.16579 
3744 1 12.3185 12.2523 20.895 -7.49499 0.179156 0.0100025 -0.24981 
3745 1 12.1116 12.2188 26.3655 -7.28781 1.61263 -0.390754 -0.103307 
4144 1 9.63113 12.3809 20.8993 -7.36583 0.253332 -0.5194 0.164454 
4145 1 9.51281 12.3493 26.3695 -6.76607 -0.169647 -0.788602 -0.301525 
4725 1 12.3244 9.62272 23.5697 -7.24637 -0.507582 -0.990407 0.392462 
5224 1 12.3322 9.5413 20.896 -7.93883 -0.04411 0.826686 -0.17828 
5225 1 12.4683 9.42673 26.3572 -7.14273 0.413471 1.54838 -0.341714 
5645 1 9.69577 12.2683 23.6915 -7.41263 -0.76956 -0.236355 -0.511852 
1626 2 8.26566 8.24058 27.6644 -25.7176 -0.777347 -0.15556 0.492102 
745 3 11.073 13.6056 24.9532 -29.8226 -1.6751 -0.425475 0.102499 
1646 3 8.22338 13.6038 27.6473 -29.9075 0.746766 1.17669 -0.157778 
507 3 0.33507 2.63955 35.8179 -28.3465 -0.535127 1.55145 0.0348609 
506 2 0.194968 2.86455 30.3053 -25.8933 -0.31625 -0.262056 -0.770847 
127 2 5.77021 5.635 33.0252 -25.8675 -1.38108 -0.460118 -0.930101 
606 2 5.60393 2.82568 30.2147 -25.6864 0.379465 -1.15392 1.21889 
607 2 5.64683 3.04852 35.678 -25.558 -0.477242 -1.41196 0.68337 
1026 2 2.96193 5.61738 30.274 -25.0732 -1.26583 -1.67469 1.60496 
1027 2 2.75402 5.53341 35.8143 -25.2955 2.92071 -0.157117 -1.89627 
1507 2 2.86405 2.83231 32.9735 -25.857 0.984018 1.08871 -1.27179 
2006 1 1.45927 1.53263 28.8434 -7.14582 1.42998 -0.39204 -0.525516 
2007 1 1.61982 1.46204 34.2402 -8.47427 -0.299101 0.180501 1.47943 
2506 1 4.25766 4.13208 31.5846 -7.21036 -0.65144 0.900183 -0.854644 
3006 1 4.29646 4.0486 28.8125 -7.96257 0.547986 0.238397 0.569226 
3007 1 4.27342 4.21806 34.2253 -7.00413 -0.403482 -0.192892 1.2976 
3506 1 1.59943 1.54994 31.4903 -7.01079 -0.199481 -0.546594 1.03198 
4006 1 4.21228 1.41524 31.6266 -7.256 0.898162 0.389176 -0.464609 
4506 1 1.66946 4.1936 28.9048 -7.47739 -1.1844 0.851944 -0.526875 
4507 1 1.54676 4.21051 34.2808 -7.34537 0.578816 -0.738768 1.0071 
5006 1 1.39729 4.23127 31.5927 -7.44737 0.620868 0.941357 0.190447 
5506 1 4.26406 1.28721 28.8702 -7.43792 -1.45794 1.92943 0.688397 
5507 1 4.3655 1.53981 34.2765 -7.64141 -1.17014 0.120972 1.77196 
5526 1 4.21057 6.76495 28.9666 -7.86353 -0.211686 0.757751 -1.60582 
2106 1 6.83379 1.40132 28.8182 -7.36759 0.544844 0.426153 0.900933 
2027 1 1.57618 6.90954 34.4227 -7.36088 0.184415 -0.134253 0.474226 
2026 1 1.41256 6.89781 28.8896 -7.98533 1.03542 -0.13019 0.824713 
5527 1 4.3624 6.86239 34.3239 -7.17751 -0.793246 0.974665 1.09533 
2126 1 6.77753 6.84358 29.0837 -7.49831 1.15919 -0.354203 -0.96845 
107 2 5.60677 0.250303 33.0379 -25.6371 0.716858 -1.55074 -1.28478 
1227 2 13.585 5.59992 35.697 -25.5596 0.355136 -0.0399948 0.97695 
2226 1 12.3608 6.90528 28.9617 -7.61683 -0.303099 -0.961693 -0.501935 
4606 1 7.06814 4.13925 28.9423 -7.49934 -1.63698 -0.553897 -0.469684 
4607 1 6.94949 4.32833 34.3932 -7.83434 0.809755 -0.199398 0.30778 
3606 1 7.04904 1.51091 31.6124 -6.9522 -1.33947 -1.11565 -0.544586 
5106 1 6.92784 4.10033 31.5934 -7.3381 0.511814 1.95787 0.830688 
1226 2 13.6547 5.52887 30.2967 -24.9666 0.402089 -0.743386 0.435525 
227 3 10.941 5.64815 32.9839 -28.8712 0.704667 -1.7832 1.71915 
706 2 10.8979 2.86625 30.2575 -25.6799 -0.169319 -0.512993 1.11533 
707 2 10.9129 2.82752 35.8595 -25.7814 0.778826 1.28212 -1.72885 
1126 2 8.34447 5.55638 30.3171 -25.506 -1.48492 -0.262811 0.371764 
1127 2 8.30386 5.66935 35.7791 -25.7816 0.339949 -0.578788 -0.279355 
1607 2 8.35625 2.91733 33.1164 -25.6961 0.272384 0.0553676 -2.54107 
2107 1 7.04881 1.60784 34.2437 -7.4689 -0.635363 -0.667302 1.76157 
2206 1 12.3171 1.51048 29.0779 -7.54893 -0.888121 -0.480291 -1.40705 
2207 1 12.3059 1.57977 34.4448 -7.27285 0.889577 -0.777542 0.665599 
2606 1 9.64593 4.31214 31.6369 -7.73687 0.264352 -0.29162 0.0885987 
3106 1 9.54418 4.29493 28.8387 -6.92807 2.06318 -0.951818 1.2844 
3107 1 9.59428 4.29461 34.3542 -7.39306 -0.42393 0.463014 0.18862 
3706 1 12.3804 1.38279 31.7894 -6.50431 -1.1751 -0.0891821 -0.145645 
4106 1 9.59486 1.54277 31.6218 -7.2877 1.18653 -0.49296 0.158091 
4706 1 12.3015 4.08719 28.9899 -7.94881 0.0977057 1.74294 -0.751753 
4707 1 12.1206 4.30507 34.4345 -7.22301 1.83051 0.361942 -0.201624 
5206 1 12.3232 4.04182 31.7058 -7.04051 -0.274665 0.503811 -0.300571 
5606 1 9.4647 1.52581 28.8663 -7.64717 1.23728 -0.583584 0.660739 
5607 1 9.71731 1.46713 34.3607 -7.83947 -0.764589 -0.113346 0.902444 
3726 1 12.3736 6.61381 31.6618 -7.94727 -0.360476 2.31974 0.915844 
1207 2 13.6494 0.17951 35.8327 -25.4838 -0.164363 -0.692752 -0.876163 
527 2 0.255984 8.24716 35.8491 -25.5113 -1.30855 0.182855 -1.69911 