LAMMPS data file via write_data, version 22 Dec 2022, timestep = 40000

21952 atoms
3 atom types

-3.331229056905709 53.331229056906636 xlo xhi
-6.662458113811418 106.66245811381327 ylo yhi
-3.331229056905709 53.331229056906636 zlo zhi

Masses

1 63.546
2 91.224
3 26.982

Atoms # atomic

21068 2 -3.125905115089435 -3.538786291596947 -1.7470857106276672 0 1 1
47 1 -0.5519350762804645 -3.546151240216353 0.5690333223198789 1 0 0
13274 1 -0.4093224152925621 -5.27788691210524 -2.62694028829575 0 1 0
21841 2 1.0400675769035672 -5.947664429508003 0.4902599774546337 0 1 1
853 1 -0.8525060198209631 -2.5551006493124637 -2.5034397276648663 0 0 0
13226 2 1.323371745386912 -3.578911335313138 -1.3556348865703227 0 1 0
10236 1 -3.028696648744232 -3.682224801077456 1.0657661584570128 1 0 1
11604 2 -1.7064345342584317 -5.779472412731398 -0.4164191719836632 0 1 0
2354 2 2.814811177062663 -2.768418975831879 0.9046980488728096 0 0 0
1579 2 5.528636024073492 -3.069329852431438 -0.7975190276774713 0 0 0
21792 2 5.574669581767704 -5.968422473663618 -2.2596380434206944 0 1 1
1577 2 5.849006538575301 -5.743718895685951 0.8804186133727612 0 0 0
928 1 3.6312649393106406 -5.017632618719264 -0.5823995001477962 0 0 0
21056 2 2.2191810088538757 -6.316300447402544 -2.3814947089176544 1 1 1
5551 1 3.5548898821401123 -3.7352432821565547 -2.6993613221942114 0 0 1
9475 1 7.243024789031411 -3.5974228199442786 -2.879065663826546 0 0 1
852 2 8.112784315011707 -4.774946190901828 -0.7027762155020456 0 0 0
133 2 9.20376997778845 -2.261994417161576 -1.8976832718439458 0 0 0
79 2 10.247589442455011 -3.509229955994003 0.6769482717199864 0 0 0
14920 2 14.240779833870032 49.946700324803 22.329220910529784 0 0 0
11650 1 10.441988997433187 -4.7350843661506765 -2.003523300838424 0 1 0
2357 2 12.215869468368316 -2.8143585223790613 -1.5294211838049496 0 0 0
9595 1 14.98729102786955 -3.931395696371376 -0.36776898676675795 0 0 1
918 1 13.680503212201916 -5.399651809798031 -1.9407890880040102 0 0 0
19461 1 32.910921820704104 -6.503751041682166 24.674428244709866 0 1 0
14020 1 12.192899797713126 -5.171886981857231 -0.098826792051105 0 1 0
979 1 13.290812305556326 -3.2490314278457366 1.1693406994024729 0 0 0
193 1 18.977272283052436 -5.6716772402605065 -0.6719768889522988 0 0 0
13290 1 17.437881756938513 -3.5800286977640363 -1.0780988037844104 0 1 0
21084 1 19.859323565773654 -3.374899096863857 -1.5335003906318585 0 1 1
915 1 17.05426693135662 -5.505459157740473 1.0789902325095717 0 0 0
3381 2 19.20746460934791 -3.8549155838487366 1.3090839133569192 0 0 0
74 2 16.478174563417845 -6.167947725852626 -1.5925624377026677 0 0 0
2547 1 22.25901977112804 -3.5772574160708484 -0.6968972730993674 0 0 0
1598 2 23.803813129212898 -6.373583028459582 -0.4358256432701135 0 0 0
911 2 21.241797815717177 -5.933465446044176 -2.2014146727670783 0 0 0
8877 2 23.905410655780788 -4.279927479895753 -2.722040959352859 0 0 1
28 1 21.159445779390225 -5.558141445921262 0.40446008640069264 0 0 0
807 2 24.819435004759427 -3.677887520030132 0.25795960837676635 0 0 0
10274 1 20.934285800706977 -1.9458796986261522 0.8507132004701132 0 0 1
2381 2 27.77781156365899 -2.677604466077491 -0.6597675687510054 0 0 0
10275 2 29.007802027243283 -5.476837790491097 -0.5743717633693 0 0 1
812 1 29.670161636491354 -2.7600775039214995 1.027246315394172 0 0 0
10215 1 26.636254420270003 -4.836770165939123 -1.9666772757399098 0 0 1
2374 1 26.618932411141532 -5.705361492754154 0.49343495705390517 0 0 0
10297 1 29.183625454957127 -4.184498198231568 -3.0870454961295533 0 0 1
1705 1 30.989917813098774 -3.6261171085422172 -1.0503485843209122 0 0 0
2511 1 31.322906639647908 -5.996265238377377 0.5908438681541219 0 0 0
12532 2 31.584587310099973 -5.883839655178267 -2.646310259173628 0 1 0
1604 2 33.71885432310803 -4.639755189195931 -0.5105525873856407 0 0 0
13320 2 32.162175973294836 -3.0635128424876052 1.3647388319803522 0 1 0
40 2 34.666284413262105 -6.414477470311692 -2.829892404967388 0 0 0
820 2 33.0847590369807 -1.9600873695534213 -1.6511474222989342 0 0 0
2447 1 34.69792885358899 -2.109676364763714 0.8156503463318288 0 0 0
10231 2 36.05236328972376 -3.0672174595937656 -1.3055405664025592 0 0 1
11692 1 38.11857287119764 -3.350981807534966 0.6282358646707946 0 1 0
2489 1 38.499975037922056 -1.5673339854582435 -1.4265946234249196 0 0 0
2449 2 38.591311379061224 -4.670820422198635 -1.5951332648057783 0 0 0
14878 1 36.2413963687589 -5.644227256436162 -1.0551879499599868 0 1 0
17188 2 37.01862000612452 -6.360296776746297 21.082494098411427 0 1 0
9618 2 41.046770272255415 -2.590067650984758 -0.7832250500729527 0 0 1
13259 2 41.3130080040264 -5.816739976823846 -1.7258832144723901 0 1 0
97 1 43.292494693853584 -3.7458559731034184 -1.1678233676514491 0 0 0
15722 1 49.33248109449251 46.76973404730784 24.35090917942274 0 0 0
1668 2 40.38776449656173 -4.732283360002107 1.242030358034154 0 0 0
58 1 42.969543892448016 -3.844948785168068 1.2656478915760365 -1 0 0
21108 1 44.40112560550351 -5.541749571607862 -2.5672430273331526 0 1 1
13264 2 45.43922935130065 -4.882633015421478 0.024498860898027885 0 1 0
1665 1 46.81138145596296 -2.5782900449349055 0.35010772251101185 0 0 0
51 2 45.61441415925283 -3.1931117879770814 -2.3937315464164195 0 0 0
21000 1 47.89259454236766 -1.9696218039005435 -2.218862899531519 0 1 1
13275 1 47.400431315061695 -6.362384666650044 1.2706754820020842 -1 1 0
3189 2 48.29486101369834 -4.487614273657211 -0.748854543876591 0 0 0
4664 2 51.204901836318115 48.78442856405061 24.17574113356518 -1 0 0
13280 1 50.2903781350078 -2.8550102274098985 -1.8231010855067777 -1 1 0
791 2 50.923248556182784 -5.314398864574606 -2.5053337860133835 -1 0 0
3239 1 51.33751727123176 -4.16700360655871 -0.033665778333809904 0 0 0
9530 2 52.26701058981408 -1.2234507620815567 -3.2505379253593225 -1 0 1
1537 2 17.335049558603046 41.0811183785567 -2.936489122251526 0 0 0
8853 1 -1.7281703706923732 -1.4803389576800754 -0.2771994182263433 0 0 1
890 2 -0.30307314540876273 0.7305005233125694 -1.2810387306743052 1 0 0
10248 2 -3.1510252641430996 1.1601247550941958 -0.2794364813559498 1 0 1
8909 1 -2.1843419997788107 -0.34166410192121077 -2.5261721253608105 0 0 1
10246 1 -2.1850599366278565 2.3356298623437297 -2.4839562826188053 1 0 1
834 2 0.41163286944357447 3.353330579742634 -2.492753123561185 1 0 0
11654 1 0.9552888910766271 -1.2481314223058577 -0.2988270311263803 0 1 0
21057 1 3.457395074196209 -1.5495938001442973 -1.57110438673125 0 1 1
1739 2 2.625736667588259 0.40253795970234396 1.1044226958171084 0 0 0
13276 1 2.503576185002414 0.8685378493049001 -1.6133119282776358 0 1 0
9517 1 4.992405434540936 -1.135609008854476 1.2710469196247844 1 0 1
178 2 5.15769283571527 0.6673602196058379 -0.9701623968149611 0 0 0
857 2 5.550088151359514 -1.4913525274066348 -3.28176842489306 0 0 0
758 1 31.077098476983533 46.628943772572 -3.132373131433714 0 0 0
3204 1 10.409061728846805 0.038789540658155985 -1.786632365479519 0 0 0
1869 1 7.29727142083552 -1.002607867723591 -0.36199907269481724 0 0 0
2535 1 8.341170357005915 1.445791408683089 -0.24403105512361467 0 0 0
21916 2 7.802588770550166 0.3550978489982439 -2.7822809995894673 0 1 1
2365 2 9.70490081021017 2.853452376576721 -2.0434486008228108 0 0 0
10263 2 9.749673154139563 -0.682943632798449 0.8609994158164147 0 0 1
3262 1 12.325924835537243 -0.8019460293841547 0.3209095267793498 0 0 0
1761 2 14.879055321265803 -1.36371954234777 -0.8640563782937498 0 0 0
13288 2 12.944861065494951 0.536189522100254 -2.1758681877466284 0 1 0
10203 1 11.439778413745252 1.534220755858673 -0.21984972621281074 0 0 1
196 2 14.056616212244485 1.645276142942853 0.3202517692196549 0 0 0
8031 1 16.589882333005292 -1.133517034086073 -2.885721718660516 0 0 1
914 1 16.213050801559834 1.0658375642483255 -1.3241184983242582 0 0 0
866 1 18.63164318192999 1.1601343215223938 -0.25592652920563763 0 0 0
12444 1 18.129436053631785 0.7824115079731264 -2.847911343358554 0 1 0
10323 1 17.583297178783532 -1.2028391561386105 -0.6671974563432101 0 0 1
129 2 20.161627046234894 -0.639804713066046 -1.3947051505644814 0 0 0
135 2 23.260522002306633 -1.0961346418887352 0.19880091678125966 0 0 0
11611 2 22.605489900549944 -1.649361936353304 -2.818789675089482 0 1 0
870 1 24.94403475077898 1.1539005723607678 -0.5964756303451901 0 0 0
1653 2 21.00990933625905 0.8571560477465292 0.8229921164071321 0 0 0
872 2 20.607254148657915 2.2308919677962304 -2.514274773130801 0 0 0
865 1 22.724488716197556 0.7073630929326207 -1.8239788598361861 0 0 0
26 1 25.142757411381478 -1.8803264176199574 -1.6503853087090659 0 0 0
9539 1 26.90700697468976 -0.19662506290503856 -1.2582267407045507 0 0 1
934 2 29.33020595252925 1.0241691275536526 -1.2046673255942992 0 0 0
8751 1 28.62014216990036 -0.3801659257487664 0.9302074175257893 0 0 1
10292 1 29.33442060911867 -1.6669709185793007 -2.3493091730272004 0 0 1
10453 2 26.528060953549005 2.1526593242389858 1.3794996475232697 0 0 1
12506 1 29.1560671737852 2.1754819766163624 1.178248654179943 0 1 0
9440 1 30.93548191151225 -0.9551150923132692 -0.47994028988638515 0 0 1
78 2 31.521610992083982 2.0457313623936226 0.025108807683337453 0 0 0
3385 1 33.16999933665733 0.6562545670526987 -2.0633630186816507 0 0 0
13295 1 33.16628937135475 -0.17804582574250816 0.488029257559186 0 1 0
12536 2 35.64112267086509 -0.32527943577648966 -1.0738333654850516 0 1 0
836 1 37.43404469128852 -1.0660408949285518 0.9339543372420165 0 0 0
3293 1 37.144144818882225 1.649270671786427 0.047581389527921125 0 0 0
9721 2 34.42771839874253 2.557636006734418 -0.8209564933976559 0 0 1
11696 2 38.15822049240781 0.9284863439002669 -2.4218968147536195 0 1 0
895 2 39.83233506580197 0.2653411731063713 -0.026030584698992332 0 0 0
941 1 40.68126368287375 2.066083532461761 -2.0594172058610023 0 0 0
15551 1 42.39762925363904 -0.03426501778575286 -0.6566503529972416 0 1 0
10343 2 40.63913766216302 -0.5220838316115737 -2.983323280814985 0 0 1
937 2 43.219139009014384 1.591454894926125 -2.8128311303862716 0 0 0
213 1 39.22128327882132 2.930148388230636 -0.17979038081749232 0 0 0
12368 1 42.22062166378541 -1.4087312509420507 1.4402164298209055 0 1 0
1578 1 43.327538864469446 -1.2140972489778097 -2.6555450197919805 -1 0 0
14111 2 44.68671646204132 -1.3040849938793162 -0.17562608903282628 0 1 0
10193 1 44.756703808295796 1.4383737038748894 -0.4192180484406207 -1 0 1
1671 2 47.22774408160436 0.23016014168231536 -0.7889458288780982 0 0 0
21114 1 45.706575085778724 -0.5250854225242803 -2.854975995677676 -1 1 1
10465 2 46.165505006060954 2.155053011070418 -3.0334338825372766 0 0 1
1633 2 49.258679197080994 -1.8823962456853662 0.606147007426554 -1 0 0
157 1 51.9992575609665 1.9048600410783063 -2.4978550309364422 0 0 0
2402 2 52.20904513839815 -1.5700330514385712 -0.047760487535979834 0 0 0
21898 2 49.999858799435074 -0.07727034902118746 -1.8137642613150677 -1 1 1
12491 2 48.76672977273937 1.867867022794778 1.1946402412005748 -1 1 0
7907 2 48.780861515411246 2.8578289283642757 -1.8345746994691856 -1 0 1
1740 1 50.927093006621035 2.0151973430582366 -0.41924335239274857 -1 0 0
21117 1 52.53759408229551 -6.457555642859694 -0.3649007086575651 -1 1 1
2526 1 -1.137455411791552 3.319608896580636 -0.34566554369338576 0 0 0
9467 2 53.093475610416604 4.0211603555228095 -0.4544087357296851 -1 0 1
892 1 -1.8347452346437834 5.8073117113244805 0.5506254727581141 1 0 0
1752 1 -0.8894254959501042 5.702677135641521 -1.85307037473928 0 0 0
287 1 1.2211236551478217 7.221504890086377 -2.498639361634548 0 0 0
1623 2 1.5057870210530053 5.473887842181604 -0.38602860706294884 1 0 0
10299 2 -2.9455510001546243 7.549263342943117 -1.4037528437545213 1 0 1
55 1 1.3793050520965409 2.544598718755573 -0.0730037742787295 1 0 0
10310 2 3.630247915398429 3.6119086948970835 -1.4862984192842317 0 0 1
1622 1 3.683613981380237 6.388692173911558 -1.6204519166056397 1 0 0
21850 1 5.653881265953322 5.133779503705071 -0.47488522953472145 0 1 1
6 1 4.324615362889533 6.640083076964121 1.2654401257969292 0 0 0
20536 1 22.081768971479114 49.59671112065025 -3.0692800006680865 0 0 1
8684 1 6.056681480114726 2.7978809224425465 0.6083750963099623 0 0 1
862 1 7.770209728339278 5.683672019638697 -1.557889043722023 0 0 0
804 2 6.791798381215973 3.1135134544937166 -1.9366286980116763 0 0 0
10250 3 7.529926665971582 7.144010613877821 1.2890361274369058 0 0 1
14062 2 8.495652908276433 4.171267813928228 0.6349347448386351 0 1 0
10255 2 10.455564118677083 5.736912408333392 -2.1729632026054997 0 0 1
2473 2 10.074939024390623 6.586657383781592 0.800072553514589 0 0 0
10307 2 11.834725523199431 4.110721576095099 0.21869780048066634 0 0 1
3325 1 12.34670567561027 3.0391567246893025 -2.474681608204451 0 0 0
1025 2 13.513223749703421 6.111367739025692 -1.1148831038032325 0 0 0
919 2 14.807680910987223 3.5114539082638334 -1.973166406503907 0 0 0
10546 1 14.60965106708591 4.351854596270302 1.0055792571637046 0 0 1
9819 1 15.595147517062898 6.483487269919314 1.3411246474887992 0 0 1
9127 2 5.310646956739715 29.954329861859854 -3.121958460533343 1 0 1
3940 1 19.78977101723832 5.1676472090644445 -1.462201524178158 0 0 0
192 2 18.78365635880576 5.516315600610085 1.0392723440181602 0 0 0
10267 2 16.742942159178238 5.92768837943059 -1.2020346215574298 0 0 1
1650 2 19.662144381471432 7.779493162012338 -0.8090199934479938 0 0 0
2544 2 17.077929029512358 3.2838644477127925 -0.030998912754364838 0 0 0
1839 2 50.31880120560895 16.50453606621908 -3.178120600085779 0 0 0
19619 2 17.829674759447762 47.335926957616856 -3.238179463369626 0 0 1
3942 1 19.83820730339352 3.29998658675515 -0.19989111545884564 0 0 0
189 1 24.179169374140514 6.913917213604526 1.3308493622317803 0 0 0
2534 2 21.95817698476242 5.805672226121745 0.20116460206791675 0 0 0
9485 1 22.11777219328352 4.612860773941586 -2.426941179547964 0 0 1
368 2 22.683083987662425 3.033678700758804 0.015177479232566515 0 0 0
2434 2 24.0717657875747 2.7894493832601057 -2.7204385157679836 0 0 0
926 2 24.697417919608473 5.52971329504148 -1.5522909159486877 0 0 0
2500 1 24.975790385903043 4.129535618450328 0.6030802169293374 0 0 0
9551 2 26.91592943544928 2.7704714181525087 -1.5967675754726995 0 0 1
8897 1 27.74103755435998 5.638356837782638 -1.926603599111762 0 0 1
2492 1 27.383500139270545 4.452317256145378 0.29371769077297527 0 0 0
10327 2 26.726377726133553 7.093333094476261 0.28461546813122096 0 0 1
201 1 29.620980898956372 3.753235706578012 -1.1036730222908222 0 0 0
871 2 32.23877350263017 5.028521214195962 -0.7990556566237483 0 0 0
1717 2 29.77529007237818 6.0583209869601635 0.19134235783039388 0 0 0
10399 2 31.908293593425416 2.974341400635552 -2.889361008234519 0 0 1
2767 1 31.087479751521013 4.125756777504671 1.6610390263908945 0 0 0
24 2 33.99591327093438 3.684909138635545 1.7457345724839985 0 0 0
91 2 30.15502932710886 5.745067140074589 -3.0616098596893226 0 0 0
88 1 36.95297757435347 3.1370043545593287 -2.196215568267746 0 0 0
1654 1 34.58353583373558 5.848205242090158 0.22861491408077228 0 0 0
7863 2 35.072903676452654 4.955072486201878 -2.3453991878861418 0 0 1
12486 1 36.616796570628665 6.810881589248172 -0.9534963694895926 0 1 0
145 2 36.78819822704793 4.393377561523129 0.22960441867432158 0 0 0
203 2 37.87217139150445 6.830950108898174 1.2490399156262875 0 0 0
4506 2 25.4790108725924 22.988093007500392 24.886219316980295 0 0 0
1659 1 42.40129351286315 2.486628588994275 -0.4314841119842665 0 0 0
1835 2 39.29894770406189 5.585638602052297 -1.1910965034338297 0 0 0
12538 1 41.729914201331624 6.713193794764264 -1.434492136713727 0 1 0
2563 2 41.12519004819282 4.421850941249367 0.8364796701867219 0 0 0
165 1 41.561051714993226 4.3688462674236135 -2.3796016578051127 0 0 0
1658 2 43.22596321992596 6.520070347471107 0.9381159537558421 0 0 0
998 1 40.444365565290454 7.110340419949397 0.7087752925850799 0 0 0
9933 2 10.429137441226924 34.65864676770089 -2.9093703563742235 0 0 1
13207 1 46.60722054291132 3.1979564134865797 -0.2986310389541771 0 1 0
169 2 44.01920126071997 4.42650585843154 -1.7003435792541581 -1 0 0
8076 1 46.784453126591615 4.905730108440746 -2.3654306472840068 -1 0 1
10303 2 46.1252927576281 6.11367258790623 -0.03231132731626252 0 0 1
9410 2 44.20232080924332 3.7750669108205184 1.2746829865114258 -1 0 1
21935 1 46.09657281606191 7.160601550577319 -3.029391762166942 0 1 1
10363 1 51.51348686625607 6.558940306881569 -2.954996389594967 -1 0 1
8733 1 50.289881142848216 4.090133757043995 0.9425442144869729 0 0 1
1792 2 50.981538603095245 6.292671540090478 -0.27985959082723655 0 0 0
1724 1 48.62242105709355 5.289996299705196 -0.6594844003522842 0 0 0
1008 1 51.01935495221706 4.138592443117419 -1.954021702580131 0 0 0
1735 2 -0.23409070190553338 7.996981876179394 -0.3792721742410783 1 0 0
10481 2 -1.5193483615818026 10.470794411582425 -1.937870095940653 0 0 1
273 2 -1.4058295895333253 10.046821526847694 1.2976229874030238 1 0 0
846 1 0.7097941760949702 10.570402679393126 -0.10514679268042659 0 0 0
162 1 -0.9832737421423792 8.094722837431858 -3.087971619854452 1 0 0
112 2 1.7644223094375588 10.01616571341426 -2.434765380750341 1 0 0
238 2 2.834609139973516 8.411870343044855 -0.09532266823479496 0 0 0
10495 1 4.828709555891267 10.627526104502774 -1.035074566350596 0 0 1
128 2 5.943228648369095 7.854151820098918 -1.2826713655782518 0 0 0
21900 1 4.327288282317754 9.083293730374292 -2.8536096922511276 0 1 1
1628 2 3.0773608405134523 11.214162805873421 1.0803674928866016 0 0 0
64 2 5.789781808692961 9.492774886264975 1.0804120721086514 0 0 0
3324 1 8.602280605611044 7.993811526480007 -1.3275623536918664 0 0 0
174 2 9.925364413277112 10.087924313993774 -2.3110007675978723 0 0 0
2467 2 9.082851971286898 9.590368319486053 0.8491968177789548 0 0 0
3251 1 7.434841607324627 10.460527172774352 -0.9901867236233355 0 0 0
10260 1 11.383560831745532 10.636001045823424 -0.18250027937238 0 0 1
408 1 7.390538075894627 11.646760689535242 1.4884601298269198 0 0 0
6363 2 33.41854209406711 -1.5933155347906327 24.982431584571366 0 0 0
796 1 11.166955508293606 8.02637134247487 -1.1715018373696515 0 0 0
847 1 12.737251510328147 8.173609313773223 0.5388425825879342 0 0 0
2760 1 13.858129251354402 10.774814599787476 0.20296535733378462 0 0 0
9705 1 11.855060282513113 12.074824316336645 -2.3188907459638326 0 0 1
9643 2 13.056061887241064 9.57319779975833 -2.084229183611193 0 0 1
3314 2 15.43944087014286 8.573827415644585 -0.5655600429922956 0 0 0
130 2 18.439292726331143 10.828896223768208 -0.8125863807272196 0 0 0
2936 1 16.255204371321106 10.681302370778685 1.0993458718157152 0 0 0
353 1 15.840509130189407 11.110531121454787 -1.4982334104988053 0 0 0
905 1 17.614640345612926 8.537354445677899 -2.2562953704436706 0 0 0
1919 1 20.147465085303775 9.305099335745954 1.276306711612773 0 0 0
1692 2 17.61621359549396 8.378479819193796 1.3090289876792012 0 0 0
17240 1 30.85057435733297 -6.6528827850656285 23.205165385298894 0 1 0
2597 2 22.239402594734138 7.328171958612245 -2.2143946745195193 0 0 0
9619 2 22.461412884075482 8.90531682740345 0.5587629115780626 0 0 1
10271 1 21.068032912705167 10.131996776083955 -1.4680465208081281 0 0 1
1092 2 24.05672005224209 11.226510792186236 -0.2048080622854367 0 0 0
1041 2 21.13325802618848 11.819614307489143 0.7172373437060857 0 0 0
10387 1 23.672203830339686 9.682597896678946 -2.400843630314116 0 0 1
9662 1 24.63618780745588 8.272036216013094 -0.7463961390978318 0 0 1
4266 1 7.573802696746613 21.71688501980064 24.963819312271873 0 0 0
248 2 26.642200104900763 10.236449533051417 -0.7942880956571865 0 0 0
1104 1 28.991319032311065 11.213243560449992 -1.165333293190265 0 0 0
7973 1 26.54710493184895 8.11629350150958 -2.245786746724376 0 0 1
10278 2 29.065739866529473 8.312905145021993 -1.3024444243217164 0 0 1
10397 1 24.609058357167214 12.198405030912387 -2.552265101690133 0 0 1
8705 1 31.632568017723084 7.695977460024441 -2.014057356400138 0 0 1
205 1 32.362710560489276 7.5238457214060155 0.3675258450737857 0 0 0
981 1 31.11558015067227 10.083969843731083 -2.4526366466182643 0 0 0
10513 2 33.20113781976487 10.111438394670795 -0.6291815939180476 0 0 1
251 1 30.798729727840463 9.769910231756032 0.5415830975354843 0 0 0
247 1 31.28898550514059 11.969781253769902 -0.6578234733331412 0 0 0
14875 1 36.68607832543671 8.376457220063767 -3.11263887623156 0 1 0
880 2 34.30648513015922 7.67375504799776 -1.7953364658406092 0 0 0
9615 1 34.902777769501114 10.505961341787401 -2.813587087195551 0 0 1
1930 2 36.38694608206998 9.589936715448331 -0.5709203805580021 0 0 0
10243 2 37.44795829107265 10.998694140970922 -2.8785018911716036 0 0 1
12534 1 38.53996678660164 11.202338837856068 -0.32558812207879884 0 1 0
2553 1 36.09269810977338 12.087764718633096 -0.9009097497904577 0 0 0
10516 1 34.972251850218115 8.037308373435609 0.8388995255545293 0 0 1
1209 1 34.865125920555045 11.188257902658851 1.063680387432857 0 0 0
1884 1 38.92343585030841 9.211763029896733 0.9426552434874091 0 0 0
10510 2 39.04188502028808 8.41856586844642 -1.75138430552652 0 0 1
9725 2 41.52635663978282 9.613330036702731 0.08295799602958231 0 0 1
8845 2 40.504060680564706 11.254441525384998 -2.34962882797277 0 0 1
2786 1 43.22089501105198 10.982585676025543 -2.108519404757901 0 0 0
843 1 41.68594279830424 8.749402890035622 -2.777993174341311 -1 0 0
12530 1 40.87612493232207 12.166852970381886 0.5348102133894317 0 1 0
2465 2 48.53635671296068 7.7791434228866265 -2.0192730447971683 -1 0 0
2561 1 43.415567068468064 11.490724175959969 0.44683609870130825 0 0 0
10358 2 44.11267706974722 8.10638872101674 -1.4582063194361514 0 0 1
944 1 46.477551882061135 8.575482643698908 -0.24970897176098505 0 0 0
10394 1 44.133374107133335 9.030754125106359 1.1223166500759785 0 0 1
9564 2 45.63202464357859 10.999584098672603 -1.006433666017171 0 0 1
258 2 48.56066900154748 10.244574104174617 -0.41297034745480055 0 0 0
7956 1 48.66705393174988 7.555415104230262 0.7993251200455047 -1 0 1
2461 1 53.04923156227761 10.019539028347989 -0.2116735251050068 0 0 0
1781 3 50.96791767377519 8.922287724458227 -1.3412425825843008 0 0 0
10530 2 52.28826210717857 11.953670892986253 -1.9757869105058765 -1 0 1
9518 1 51.02875032808983 10.880413196726163 0.4933335936595111 0 0 1
1728 1 52.62977763009238 9.428092610940656 -3.1238598837337204 0 0 0
9574 1 50.05456274087129 10.986200727684839 -2.570087775836756 0 0 1
120 2 -0.2598693405340686 15.595988205927068 -0.664735290829007 0 0 0
10035 1 -0.8742388724555226 12.330097304013567 0.007435707619693588 0 0 1
1897 1 -2.2968177908119083 13.869616904575746 -1.6708454439556795 1 0 0
10463 1 -3.0048086246570707 15.588657548436093 0.7141647168158967 1 0 1
150 1 27.12507517286935 -6.234911729267995 3.127462334126025 0 0 0
10427 1 0.6565008658921436 12.38233881037839 -1.909684560008185 0 0 1
1769 1 17.379054460945245 -5.696367485476759 6.187440954684764 0 0 0
1129 1 1.2918416763031466 13.700457525763316 0.5318529491119488 0 0 0
969 1 1.7818240064537028 14.537184046083077 -1.9166348043988792 0 0 0
2028 2 1.9027714044799593 16.18877859286175 1.4978438517792458 0 0 0
2476 2 3.7782280409866864 14.780381015357893 0.03347040944592283 0 0 0
906 1 3.1334826105265403 12.425716131723888 -1.511711580329922 0 0 0
9798 2 4.4295082740485965 14.560846096325616 -3.052195689420192 1 0 1
1173 2 6.405383095476006 12.835486137453007 -1.6909896028793914 1 0 0
301 2 9.213015455042214 12.863168235145078 -2.9795936740401876 0 0 0
1573 2 7.441666565011191 15.397745781534166 -2.7042405282872597 0 0 0
1080 2 9.421886433146547 12.495230286249026 0.01627053558504432 0 0 0
1140 1 9.006531339369923 15.440066516801469 -0.5879590627415685 0 0 0
350 1 10.195865773355635 15.450770352062197 -2.7961836959410515 0 0 0
1742 2 6.83831843670216 14.71776089089752 0.6261027734580895 0 0 0
2646 1 11.346836250828595 14.155845132732399 -0.8591586302952994 0 0 0
10560 2 14.105722801446657 13.232275618628417 -1.228458914018982 0 0 1
2539 1 12.392774618515322 12.731245396505344 1.0795798338169957 0 0 0
9764 1 12.716520670170915 15.627559140045499 -2.3132911856824734 0 0 1
1809 2 13.458036966290297 15.357588184942212 0.6243975603164746 0 0 0
10601 2 15.18789962192798 16.37477758958101 -2.0435882602941877 0 0 1
1745 3 11.053108164439138 16.617839991113474 -0.0446666917211469 0 0 0
1029 1 17.920558789371327 16.245804159070822 -2.8300639261521487 0 0 0
898 1 19.291213557429803 13.366324887590036 -0.5863998217597031 0 0 0
1032 2 18.6327174134321 15.852135364315071 -0.15565299809746502 0 0 0
2055 1 16.04465889900261 16.311221403266448 0.5766942682861029 0 0 0
1142 2 16.444144320442025 13.293594123534035 0.5546495640081277 0 0 0
9760 2 17.029621279301523 13.747295374744152 -2.246397351434248 0 0 1
10383 1 20.94941765878868 14.551926699878543 1.2322683478542213 0 0 1
8937 2 22.444078830079263 13.638718829577183 -1.3281507343471337 0 0 1
1932 2 21.575117729706598 16.414612834080334 -0.4005387699822731 0 0 0
1883 1 24.036056980176493 15.434675343046468 0.32829666723494544 0 0 0
10539 1 23.029926562440696 16.127835328640575 -2.74318070058533 0 0 1
8933 1 23.31113701594902 13.394215509622185 1.382284978220902 0 0 1
364 2 20.318376294600647 14.986817022030387 -2.6508679558619024 0 0 0
10506 2 26.099892010145567 13.404398410999875 0.4771492136674773 0 0 1
8814 1 28.455830111544675 14.425819546839008 -0.43565565072450685 0 0 1
8208 1 27.139272056149363 12.631113248509845 -1.9460720572423318 0 0 1
307 2 25.379280511692954 14.843910179817513 -2.022700084922281 0 0 0
8887 1 29.504885429341943 16.706901447945437 -0.7967800407523491 0 0 1
10568 1 26.69646211012734 16.275818675721354 -0.14296330709097393 0 0 1
1045 2 28.189696918907515 15.3940167251891 -3.2006425278011967 0 0 0
263 2 30.02115051996324 13.111893155531188 -2.8135780065078047 0 0 0
10454 1 30.926707998580103 15.709114920036193 -2.514622829964388 0 0 1
9780 1 33.81234610628289 12.687133491393126 -0.5394195272287958 0 0 1
1091 2 31.119035031438937 14.535274473175175 0.07575124753412421 0 0 0
10604 2 33.48696619886684 15.098154740285388 -1.5415281085774324 0 0 1
1871 1 32.67875623857715 11.998879582185566 -2.544258707227803 0 0 0
9923 2 17.151151730383816 30.73395723321279 -3.0915992614820715 0 0 1
365 1 36.08102388737606 14.548835569742593 -0.444449230429667 0 0 0
8206 2 36.058914357459216 16.255848946135767 -2.56874882199456 0 0 1
440 1 37.92154728167117 16.30009418317894 -0.36925991264990454 0 0 0
10284 2 38.33097114665182 13.538977382419922 -1.6246708854925764 0 0 1
315 2 35.26271369977296 13.498410201254014 -3.245241260131459 0 0 0
9672 1 38.80862301206946 16.511282250844694 -3.0299700348620258 0 0 1
1283 2 42.18413487330629 13.402314136128716 -1.2538554291702169 0 0 0
10390 1 40.17004909489272 15.192709868789084 -1.1457474802859267 0 0 1
1112 1 41.80846298745567 16.19476319607461 0.5537422099540668 0 0 0
8840 2 42.35385737378955 16.101888802856756 -2.543976909368938 0 0 1
10511 2 39.52239742267233 14.315775975154107 1.2087734866593998 0 0 1
10424 1 43.86893736292387 15.591858840573057 -0.31357586239544366 -1 0 1
8112 1 45.08070850078332 13.41969782166392 0.19508779304502832 0 0 1
10414 2 46.53773211396839 15.637867700581186 -0.9267465929537431 0 0 1
10405 2 47.62812330690409 12.977488534007946 0.6264049977778017 0 0 1
202 2 44.87321317988905 13.768785031762743 -2.496320968911408 0 0 0
9582 2 47.70641835573559 12.621946414274547 -2.474614023330098 -1 0 1
6649 1 42.58924371144808 8.968489045812046 24.921068613937116 0 0 0
997 2 53.01797904508824 12.794179334826847 0.6207233358470039 0 0 0
10357 1 50.16074195572557 12.853806658442764 -0.8110958771755223 0 0 1
110 1 49.00244715147143 14.932295375891105 -1.2246884606453117 0 0 0
1063 1 50.007311442298985 12.464072579860801 1.8949249849041472 0 0 0
282 2 51.99376844257665 15.116029031594941 -1.265655610571104 -1 0 0
13328 2 41.510439545583964 -6.635947497898172 8.597096935003655 0 1 0
10353 1 48.29538887901465 15.764757812877182 1.0979785773906547 0 0 1
9588 2 -2.4184801589331784 16.560050979356614 -2.762985270183894 0 0 1
1057 2 0.19447699489964876 18.096709605877603 -2.4011152086712726 1 0 0
1910 1 -1.855630095136326 17.968107569464827 -0.18354299401070184 0 0 0
1953 1 0.03743137162390253 20.43580670802397 -1.134991673858528 1 0 0
10480 2 -2.465798105709442 20.24490548592012 -2.042063398361167 0 0 1
1339 1 -2.9904205632706784 20.24798318997825 0.4269590356637676 1 0 0
549 1 0.6930376994089427 18.064895402323653 0.22564648787648212 1 0 0
1293 1 5.215764459593446 16.395507517560056 -1.1848247222884485 0 0 0
1120 1 2.4265901283846896 16.82276682460923 -1.3048661190441448 1 0 0
10533 2 2.5060206438381014 19.81876323975015 -1.8281449628773532 0 0 1
1013 1 5.7409220808235 17.14380172688986 1.2780161662282286 0 0 0
1126 1 3.7180556077646933 18.073968581759882 0.30796778159120164 0 0 0
10660 2 5.376850974478032 19.463862035589436 -1.5688208003518507 0 0 1
1182 2 5.995990276304587 19.89219115709869 1.2797229732284991 0 0 0
1170 1 2.3769306659654843 20.089793236738853 0.9559647035665799 1 0 0
511 2 7.626106614602445 17.671167599191957 -0.4220074344003426 0 0 0
2716 1 10.74534877834327 19.103665430554273 -0.5054429804173193 0 0 0
1066 1 8.276690147895179 20.23289822309748 -1.2730369182656038 0 0 0
9752 2 9.364334655067282 17.870376707431046 -2.5832068893967057 0 0 1
10589 1 10.518268982811358 20.50780202614316 -2.5687712361579074 0 0 1
786 1 -2.50138577972515 -6.398664321649141 4.951947850142007 0 0 0
1860 2 13.959991935293292 18.221126095597437 0.002845188927901532 0 0 0
1085 1 12.819503225167512 20.530988146146644 -0.7552645171623991 0 0 0
963 2 12.32674148846685 18.3363023396681 -2.527515688266904 0 0 0
3378 1 14.939865442217094 19.141586934873704 -2.3258228915223125 0 0 0
10492 2 17.285343625678312 20.721405806207336 -2.8062160719096045 0 0 1
2658 2 17.382444812280763 18.32100505621396 -1.0393410811850128 0 0 0
1268 1 15.802747910854656 20.373018988493996 -0.09774050996548755 0 0 0
415 2 19.754821114021453 20.317516599826952 -1.0303634345065285 0 0 0
10559 1 20.03401248047324 17.7362746599816 -1.7420256532126042 0 0 1
1933 2 20.017691399556004 18.12739535539546 1.4526042333848928 0 0 0
10505 1 22.237620476695703 19.071320143206897 0.06179211604547641 0 0 1