ITEM: TIMESTEP
0
ITEM: NUMBER OF ATOMS
6000
ITEM: BOX BOUNDS pp pp pp
2.8576742479025086e-04 2.7340714232575174e+01
-1.8596653830584842e-03 2.7342859665383067e+01
-9.5398710242591278e-03 1.0937353987102384e+02
ITEM: ATOMS id type x y z c_peratom fx fy fz 
102 2 5.41057 0.0700691 5.5441 -25.8039 0.304462 -0.375399 -1.25389 
122 2 5.4579 5.44625 5.53004 -25.6312 -0.602103 -0.212603 -1.06931 
601 2 5.51968 2.81416 2.72118 -25.6745 -0.892264 -0.830906 0.302696 
602 2 5.49707 2.73939 8.27847 -25.838 -0.640628 0.379089 -0.654557 
1021 2 2.6573 5.4758 2.69601 -25.3301 1.18036 0.140169 0.469136 
1022 2 2.6818 5.40586 8.23718 -25.5864 0.61479 1.22093 -0.374539 
1502 2 2.66129 2.80247 5.4713 -25.703 1.02125 -0.495487 -0.3905 
2001 1 1.42593 1.47256 1.49164 -7.40934 0.273879 -0.27533 -1.1216 
2002 1 1.47394 1.315 6.77064 -7.29005 -1.31788 0.491252 0.863931 
2501 1 4.08026 4.15369 4.11235 -7.48856 -0.703463 0.118518 0.248537 
3001 1 4.08125 4.11259 1.37425 -7.56005 0.240226 0.602323 -0.0959617 
3002 1 4.15748 4.14732 6.94882 -7.59814 -0.655348 -0.275234 -0.403118 
3501 1 1.3236 1.44687 4.13768 -7.18336 0.272951 -0.479795 -0.079749 
4001 1 4.07946 1.44972 4.06516 -7.13682 0.205975 0.221665 -0.09284 
4501 1 1.30942 4.20048 1.39897 -7.66474 0.231524 -0.442435 0.0326155 
4502 1 1.33206 4.11182 6.81032 -7.67935 0.788375 0.052525 0.643809 
5001 1 1.1934 4.08509 4.12891 -7.60223 1.20773 0.580011 -0.192829 
5501 1 4.18733 1.40513 1.35128 -7.4615 -0.492992 0.298323 -0.13281 
5502 1 4.01815 1.39373 6.79199 -7.20076 0.687846 0.531928 0.138064 
2102 1 6.66609 1.33537 6.85999 -7.30392 1.4019 0.11085 0.268366 
3521 1 1.42015 6.77303 4.07938 -7.66096 -0.967752 0.538873 0.295333 
3621 1 6.81707 6.80113 4.07599 -7.50272 0.52498 0.0250152 -0.117439 
502 2 0.0531865 2.69193 8.20189 -25.3968 -0.0440055 0.079111 -0.384988 
5101 1 6.79759 4.07518 4.11826 -7.62903 0.745067 0.60166 -0.0780001 
2121 1 6.7993 6.80316 1.3624 -7.71617 0.535586 -0.0612986 0.0706832 
2122 1 6.8254 6.7245 6.76608 -7.95772 0.00822018 1.26311 0.725931 
1001 2 2.78707 0.0847418 2.64599 -25.5831 -0.303633 -0.215892 1.43707 
121 2 5.52796 5.53011 -0.00333345 -25.2842 -1.08467 -0.832846 -0.379114 
101 2 5.46324 0.0147645 0.0246679 -25.7114 0.00919256 0.754108 -1.10844 
3601 1 6.86816 1.39589 4.12848 -7.50684 -0.101914 -0.254225 -0.132797 
4602 1 6.88209 4.02521 6.8425 -7.49269 0.405227 0.290361 -0.0154725 
222 2 10.9301 5.48741 5.35102 -25.4084 0.460006 -0.392583 0.728655 
701 2 10.9776 2.78104 2.65707 -26.0731 0.14996 -0.59738 0.837839 
702 2 10.8853 2.69097 8.11878 -25.5583 0.635223 0.367466 0.0411397 
1101 2 8.19227 0.0220212 2.77419 -25.6639 1.10707 0.536775 -0.567871 
1121 2 8.22934 5.42798 2.7118 -25.311 -0.10832 0.628071 -0.0062116 
1122 2 8.19327 5.49405 8.13812 -25.4203 0.561798 -0.283136 0.830483 
1602 2 8.2276 2.72089 5.42969 -25.4996 -0.0807249 -0.3016 0.241378 
2101 1 6.85039 1.38121 1.36819 -7.5558 0.214416 -0.443271 -0.316242 
2201 1 12.3112 1.43691 1.28928 -7.65678 0.456706 -0.285377 0.537706 
2202 1 12.3297 1.39247 6.74261 -7.25547 -0.826343 -0.134422 0.458605 
2601 1 9.59792 4.0336 3.9792 -7.62856 -0.701196 1.44576 1.39639 
3101 1 9.64671 4.1666 1.38607 -7.17259 -0.592243 0.144324 -0.782366 
3102 1 9.65698 4.05598 6.7847 -7.62049 -1.04577 0.478711 -0.853702 
3701 1 12.3812 1.36735 4.03149 -7.02285 -0.210547 0.0713101 -0.411789 
4101 1 9.64891 1.39467 4.09397 -7.21409 -0.448597 -0.716853 0.194191 
4601 1 6.92005 4.04329 1.3433 -7.86945 -0.6153 0.965722 -0.180273 
4701 1 12.3207 4.17254 1.39514 -7.46294 0.554529 -0.221848 -1.10297 
4702 1 12.3121 4.06908 6.70043 -7.28404 0.452903 0.650808 0.565933 
5201 1 12.3306 4.06613 4.03489 -7.19326 -0.300909 0.854351 0.251363 
5601 1 9.59369 1.50271 1.40172 -7.23865 -0.425735 -0.911671 -0.586438 
5602 1 9.50411 1.26342 6.79296 -7.53448 -0.39442 1.55922 0.492481 
2222 1 12.1746 6.81419 6.86861 -7.62101 1.40614 -0.236549 -0.581575 
1222 2 13.6013 5.43731 8.16851 -25.3934 0.689616 0.150733 0.318485 
2022 1 1.25788 6.9324 6.90264 -7.13798 0.304574 -0.519169 -1.1505 
4021 1 4.10444 6.87683 4.11091 -7.17768 0.0185445 -0.261522 -0.448034 
2021 1 1.27174 6.9356 1.37648 -7.74657 0.311716 -1.01185 -0.284628 
142 2 5.5159 10.9393 5.45291 -25.4468 -0.825019 0.922711 -0.0674074 
621 2 5.43475 8.20584 2.66065 -25.6595 0.375469 0.115367 0.535949 
622 2 5.36822 8.19966 8.14903 -25.5734 0.323681 -0.0638331 0.384105 
1041 2 2.7279 10.9808 2.71323 -25.5067 0.393826 -0.553409 -0.486376 
1042 2 2.73475 11.026 8.20449 -25.6455 -0.384532 -0.921315 -1.26142 
1522 2 2.73437 8.28446 5.37429 -25.7124 -0.227736 -0.669617 0.917541 
2041 1 1.4096 12.3059 1.32784 -7.80197 -0.424654 0.319864 0.363142 
2042 1 1.20168 12.4629 6.73888 -7.18832 0.723959 -0.585529 0.233072 
2521 1 4.11041 9.54759 3.97395 -7.60721 -0.579574 0.736178 0.448605 
3021 1 4.12034 9.70727 1.27613 -7.33032 -0.833053 -1.41746 0.648171 
3022 1 4.13133 9.62261 6.74792 -7.43665 0.0552304 -0.328898 0.131472 
3541 1 1.41924 12.2343 4.12488 -7.53946 -0.225193 0.219057 -1.0566 
4041 1 4.10201 12.3534 4.03469 -7.57556 0.0547705 -0.033056 -0.0452082 
4521 1 1.28119 9.58929 1.26097 -7.32628 1.18288 0.352881 1.09649 
4522 1 1.45604 9.67894 6.77058 -7.29886 -0.450137 0.0741781 0.385815 
5021 1 1.27015 9.5325 4.04305 -7.53435 1.04148 0.154998 -0.0775855 
5521 1 4.07875 6.94769 1.32681 -7.70605 -0.348435 -0.747057 0.354311 
5522 1 4.05138 6.85278 6.81267 -7.45988 -0.0890732 0.0644936 0.151061 
5541 1 4.07471 12.3197 1.27742 -7.01421 -0.157147 0.681302 0.795951 
5542 1 4.00434 12.3165 6.72872 -7.25569 0.353079 0.321235 0.401877 
2142 1 6.828 12.4787 6.78825 -7.62244 0.253053 -0.988189 0.526165 
4622 1 6.81285 9.6206 6.85099 -7.66036 0.469489 -0.285107 -0.245719 
2141 1 6.74794 12.2449 1.3307 -6.83323 0.806395 0.277283 0.692567 
41 2 0.0244169 11.0353 0.00178775 -25.3509 -0.323691 -0.783519 -0.869733 
5121 1 6.80788 9.56866 4.09183 -7.76631 -0.0737572 -0.0402739 0.524903 
541 2 0.0252042 13.6064 2.68557 -25.6131 0.113515 1.7877 -0.144107 
2221 1 12.4018 6.86199 1.33659 -7.33838 -1.07363 -0.161116 0.0666281 
4121 1 9.64462 6.9204 4.06773 -7.73056 -0.834326 -1.33973 0.248176 
3721 1 12.3805 6.87682 4.04045 -7.63553 0.0895022 -0.939452 0.756061 
5622 1 9.57148 6.88965 6.82519 -7.44634 -1.09695 -0.474001 -0.636443 
742 2 10.9938 13.6385 8.24845 -25.4785 0.0694159 0.301537 -0.307255 
242 2 11.0126 10.9496 5.49377 -25.603 -0.757084 -0.479149 -0.720014 
721 2 10.9979 8.20797 2.7441 -25.8537 -0.516843 0.44112 -0.82661 
722 2 10.9477 8.21806 8.14261 -25.565 -0.0748683 0.336591 0.519153 
1141 2 8.15409 10.9519 2.83018 -25.7877 0.351835 -0.536321 -1.78486 
1142 2 8.28547 10.9716 8.2494 -25.132 -1.13613 -0.112338 -0.239436 
1622 2 8.10514 8.18594 5.41477 -25.3274 1.23428 0.421055 0.341937 
2241 1 12.3075 12.2348 1.29633 -7.31506 -0.120523 0.1635 0.717837 
2242 1 12.3824 12.3355 6.8059 -7.71036 -0.346854 -0.168851 0.63998 
2621 1 9.55429 9.57902 4.10373 -7.1415 -0.123221 -0.0237745 0.414014 
3121 1 9.58697 9.56544 1.37112 -7.25876 0.179365 0.0963853 -0.0768238 
3122 1 9.55231 9.62787 6.87149 -7.55633 0.320548 -0.438675 0.273483 
3641 1 6.83848 12.3536 4.04336 -7.52171 -0.192628 -0.446365 0.806246 
3741 1 12.2785 12.3026 4.09816 -7.64617 0.226901 0.310533 -0.320283 
4141 1 9.51001 12.245 4.13122 -7.6725 0.708573 0.723293 0.310098 
4621 1 6.8709 9.53245 1.40568 -7.28813 -0.204254 -0.156914 -0.534162 
4721 1 12.3369 9.58319 1.29191 -7.37008 -0.0347237 -0.408542 -0.131105 
4722 1 12.3693 9.57179 6.71088 -7.56781 -0.275729 0.107768 0.783467 
5221 1 12.2832 9.5543 4.02382 -7.29985 0.329009 0.532593 0.285762 
5621 1 9.59714 6.83801 1.33958 -7.50264 -0.134708 0.125808 -0.0194775 
5641 1 9.55572 12.3162 1.38554 -7.69057 -0.122281 0.237822 0.0884416 
5642 1 9.66279 12.2756 6.88909 -7.69588 -0.497648 0.384392 -0.0900088 
1242 2 13.6576 11.0837 8.25157 -25.5679 0.817485 -2.01485 -0.329953 
741 2 10.8684 13.6514 2.76688 -25.3994 1.62416 -0.391962 -0.690902 
1621 2 8.21195 8.21848 0.00310077 -25.7933 -0.0601341 0.188381 -0.189398 
241 2 10.9257 10.9311 0.00237374 -25.5526 -0.563139 -0.431966 0.143125 
23 2 0.00606732 5.52734 10.8576 -25.4712 -0.0846163 -0.436817 0.347283 
503 2 0.0220215 2.79688 13.5674 -25.4986 0.0534611 -1.23482 0.788898 
24 2 0.00955903 5.38342 16.302 -25.216 0.632802 0.603156 1.18285 
103 2 5.43756 0.0208 10.9487 -25.659 0.321252 1.10451 -0.28737 
104 2 5.49644 0.0474254 16.3506 -25.6892 -1.13911 -0.850967 -0.647334 
123 2 5.44628 5.51994 10.9915 -25.5975 0.560433 0.0534118 -0.797244 
124 2 5.49237 5.49835 16.3909 -25.1592 -0.219753 -0.423768 0.333759 
603 2 5.53483 2.81416 13.6821 -25.7576 -0.250386 -0.391804 -0.759673 
1023 2 2.77024 5.52593 13.6167 -25.2963 -0.569334 -0.530458 0.456406 
1503 2 2.70111 2.74492 11.0094 -25.527 0.865003 0.222376 -1.0252 
1504 2 2.76834 2.65503 16.3479 -25.6516 -0.235686 0.734544 0.437218 
2003 1 1.39268 1.41574 12.2719 -7.7792 -0.319449 -0.561858 0.381349 
2004 1 1.33016 1.31954 17.6915 -7.72479 0.0821052 -0.316675 0.726956 
2502 1 4.12163 4.09397 9.67524 -7.2234 -0.30291 0.0194576 -0.705156 
2503 1 4.12077 4.15227 14.9988 -7.68288 0.464938 0.419671 0.359199 
3003 1 4.17483 4.14181 12.2604 -7.62291 -0.684228 0.638194 1.19063 
3004 1 4.09001 4.05079 17.8472 -7.50576 0.505135 0.0575608 -1.3261 
3502 1 1.38958 1.32766 9.57616 -7.29736 -0.0401813 0.790589 -0.220282 
3503 1 1.49062 1.23364 15.0301 -7.40179 -0.637535 0.25638 -0.373806 
4002 1 4.12459 1.3376 9.50085 -7.5259 0.00609059 0.0316336 0.871847 
4003 1 4.1716 1.42499 15.0463 -7.15931 0.306825 0.354125 -0.181061 
4503 1 1.29229 4.16261 12.277 -7.57892 1.40166 0.0902178 0.311646 
4504 1 1.38188 4.05553 17.827 -7.38687 -0.371545 -0.0656098 -0.645137 
5002 1 1.42081 4.11711 9.61994 -7.71607 -0.571471 -0.702323 -0.642384 
5003 1 1.43424 4.02677 15.0234 -7.66159 -0.259612 0.152435 -0.166994 
5503 1 4.11221 1.48132 12.352 -7.4278 -0.359381 -0.750491 -0.564709 
5504 1 4.08329 1.33903 17.7417 -7.51554 0.246995 0.474985 0.207126 
2103 1 6.81855 1.40476 12.1682 -7.21816 0.34524 0.134823 0.752954 
4604 1 6.83008 4.06037 17.7817 -7.78777 -0.212044 0.265745 -0.0503771 
5102 1 6.81784 4.1281 9.57549 -7.43296 0.445181 0.406875 0.106874 
2104 1 6.79299 1.27845 17.6802 -7.87949 0.613791 0.950776 0.590224 
3523 1 1.41442 6.79033 15.0681 -7.74761 -0.172053 -0.0865454 -0.155566 
2024 1 1.35302 6.82493 17.8356 -7.35191 -0.250451 -0.336621 -0.72776 
3522 1 1.33728 6.81159 9.52571 -7.58471 -0.202236 0.625329 0.639552 
5524 1 4.07204 6.80163 17.8356 -7.52723 0.318997 0.194228 -0.757036 
1223 2 13.6461 5.50392 13.6868 -25.8595 1.03056 -0.792229 -0.825436 
3602 1 6.85602 1.43649 9.55362 -7.29952 -0.060233 -0.491338 -0.447404 
5103 1 6.91856 4.08644 15.074 -7.52781 -0.662722 0.500871 0.153319 
3603 1 6.87205 1.40674 14.8664 -7.54592 -0.0333062 -0.327226 1.21175 
1703 2 13.6395 2.73429 10.8335 -25.716 0.872577 0.411417 0.724072 
4603 1 6.92763 4.18921 12.3467 -7.38681 0.154064 -0.579014 -0.126959 
204 2 10.9224 0.0692302 16.3617 -25.4195 -0.0677113 -0.405874 -0.140836 
223 2 10.939 5.53501 10.8734 -25.8794 0.454206 -0.259549 0.368823 
224 2 10.9671 5.51016 16.4272 -25.4301 -0.291725 -0.680936 -0.064948 
703 2 11.0278 2.711 13.6004 -25.6413 -0.442515 0.884214 -0.0936876 
1123 2 8.32821 5.48158 13.7468 -25.7617 -0.683896 -0.10921 -1.3022 
1603 2 8.17922 2.72455 10.8713 -25.6227 0.687356 0.895795 0.709482 
1604 2 8.21879 2.66413 16.4125 -25.5404 0.136595 1.05063 -0.424899 
2203 1 12.3424 1.38166 12.1656 -7.54025 -0.524916 -0.769766 0.103592 
2204 1 12.3772 1.34434 17.6306 -7.5723 -0.513271 0.713443 0.649659 
2602 1 9.59456 4.14097 9.45509 -7.4685 -0.514325 -0.342603 0.531689 
2603 1 9.59635 4.15022 15.0754 -7.4095 0.704916 -0.914588 -0.127045 
3103 1 9.75845 4.18892 12.2544 -7.2909 -0.973994 -0.75349 0.350776 
3104 1 9.53188 4.07879 17.8066 -7.26232 0.353893 0.578237 0.0891093 
3702 1 12.355 1.4418 9.43644 -7.62556 -1.07321 -0.263117 0.468903 
3703 1 12.3707 1.44011 14.9169 -7.4476 -0.74881 -0.830948 0.152296 
4102 1 9.54691 1.33435 9.57208 -7.69322 0.486027 0.357416 -0.440274 
4103 1 9.53891 1.32211 14.9918 -7.69026 0.780687 0.313275 0.420313 
4703 1 12.4264 4.10302 12.2287 -7.16677 -0.322245 -0.0369809 0.0850602 
4704 1 12.308 4.08348 17.7399 -7.5191 -0.628155 0.416748 0.280631 
5202 1 12.3166 4.14616 9.47298 -7.5863 -0.315906 0.00409283 0.133739 
5203 1 12.372 4.04834 15.0148 -7.44366 -0.458709 1.09422 -0.00427189 
5603 1 9.61453 1.43486 12.2891 -7.4675 -0.335256 -0.294216 -0.157045 
5604 1 9.54454 1.41168 17.7531 -7.43662 0.564504 -0.652463 -0.385471 
2223 1 12.322 6.78444 12.3896 -7.32277 -0.107068 0.599427 -1.11682 
4123 1 9.6349 6.82067 15.015 -7.56587 -0.0807429 0.585266 0.612826 
44 2 0.0187164 10.9895 16.4357 -25.7129 -0.182152 -0.203985 -0.658499 
4022 1 4.04509 6.867 9.57324 -7.29857 0.515978 -0.998524 -0.272987 
4023 1 4.12569 6.91561 15.0722 -7.96667 0.76032 -0.272884 -0.599129 
5523 1 3.91263 6.95909 12.264 -7.64024 2.5808 -0.687637 0.892343 
523 2 0.0429905 8.21252 13.7061 -25.713 -0.250213 0.282974 -0.144278 
3643 1 6.83414 12.3747 15.0347 -7.40777 0.278737 -0.989405 0.632578 
143 2 5.52384 10.9048 10.9426 -25.6321 -0.220441 1.0854 -0.409262 
144 2 5.43198 10.9823 16.4462 -25.5573 0.730628 0.0296508 -0.583409 
623 2 5.48701 8.25382 13.6669 -25.15 -0.391248 0.111621 0.101338 
1043 2 2.71229 11.0377 13.5927 -25.4082 0.343304 -0.534785 0.778117 
1523 2 2.70604 8.25209 10.903 -25.6949 -0.612162 -0.0372345 0.0237834 
1524 2 2.77713 8.17046 16.3829 -25.5099 -0.752649 0.71689 0.575502 
2023 1 1.38314 6.86423 12.3072 -7.26457 -0.801037 0.119514 -0.102126 
2043 1 1.37498 12.346 12.2017 -8.01884 0.517609 0.284398 0.333849 
2044 1 1.4632 12.3286 17.7342 -7.7528 -0.813936 -0.675358 0.234072 
2522 1 3.98792 9.47008 9.52781 -7.39091 -0.187212 1.62123 -0.332705 
2523 1 3.97119 9.70458 15.0171 -7.34511 0.890808 -0.824925 0.0125472 
3023 1 4.21522 9.66509 12.2694 -7.50374 -0.768185 -0.286592 0.378039 
3024 1 4.15704 9.58958 17.7461 -7.7232 -0.561904 -0.0899897 0.131908 
3542 1 1.36799 12.2984 9.44599 -7.3639 -0.0336807 0.837834 0.898537 
3543 1 1.32563 12.425 14.9917 -7.38261 0.510761 -1.25746 -0.103347 
4042 1 4.06337 12.3148 9.4841 -7.65369 0.728204 0.00232353 0.352877 
4043 1 4.10349 12.3416 14.9827 -7.65092 -0.226714 0.273488 0.38755 
4523 1 1.42507 9.60352 12.3376 -7.57484 -0.104899 0.219725 -0.399798 
4524 1 1.42216 9.54313 17.794 -7.5917 0.027245 0.50174 -0.666241 
5022 1 1.23584 9.63721 9.60742 -7.50587 0.734844 -0.718445 -0.30829 
5023 1 1.31556 9.5656 15.0439 -7.32205 0.119669 0.393297 0.317619 
5543 1 4.22509 12.3767 12.2212 -7.59151 -1.47508 0.00504515 0.369824 
5544 1 4.16229 12.3803 17.8098 -7.77448 -0.00936094 -0.684373 -0.314711 
5122 1 6.64746 9.52353 9.54587 -7.38865 1.13779 0.488857 -0.153216 
2123 1 6.83481 6.8421 12.358 -7.4751 -0.903007 0.279723 0.0448615 
2124 1 6.79483 6.87814 17.7667 -7.73002 -0.407175 -0.391143 0.240352 
5123 1 6.78922 9.57859 15.0959 -7.78488 0.0212732 0.161722 -0.872671 
1544 2 2.78585 13.6443 16.4312 -25.5139 -0.482958 1.02278 -0.587082 
1723 2 13.6661 8.23461 10.9651 -25.8938 0.794931 0.0603748 -0.417347 
3124 1 9.48597 9.49033 17.8505 -7.51598 0.718704 0.71976 0.342051 
3123 1 9.64128 9.55831 12.3798 -7.58616 -0.766899 0.148535 0.789805 
2623 1 9.60185 9.55843 15.1161 -7.67912 -0.330437 0.152864 0.0287845 
2622 1 9.4388 9.60293 9.74411 -7.68755 0.0871335 0.338774 -1.38751 
2244 1 12.4098 12.2579 17.8407 -7.22655 -0.784004 -0.0339489 -0.701274 
2243 1 12.2111 12.2683 12.298 -7.32779 -0.0541094 -0.0647506 0.436154 
2224 1 12.33 6.84664 17.7953 -7.76182 -0.610877 -0.0919326 -0.151686 
1624 2 8.14057 8.15667 16.46 -25.5857 0.785184 1.06991 -0.070245 
1623 2 8.13638 8.24044 10.9448 -25.6073 0.634554 -1.39037 -0.0561961 
1143 2 8.24754 10.8892 13.7756 -25.3021 -0.497509 1.03011 -0.393119 
3723 1 12.3105 6.85632 14.9691 -7.58116 0.0963504 0.121021 1.77969 
723 2 10.9771 8.21595 13.7033 -25.6269 -0.19257 -0.170393 0.0186812 
3623 1 6.90544 6.85927 15.0686 -7.6937 -0.605288 -0.348317 -0.286644 
3722 1 12.372 6.92951 9.65169 -7.41456 -0.370379 -0.611591 -0.655101 
5624 1 9.5167 6.83886 17.7958 -7.50735 0.497119 -0.580906 -0.3202 
2144 1 6.90905 12.2681 17.8454 -7.48488 -0.230944 1.00588 -0.285897 
3642 1 6.88853 12.2965 9.65636 -7.51333 0.0661823 -0.57718 -1.56483 
2143 1 6.85583 12.3549 12.283 -6.81646 -0.0362148 -1.42229 0.799776 
4142 1 9.6997 12.3086 9.61677 -7.74294 -0.800978 -0.144082 -0.163112 
4122 1 9.6757 6.89576 9.53248 -7.36647 -0.980657 -0.116427 -0.208002 
1243 2 13.6362 10.9334 13.6717 -25.9513 0.0718072 0.532717 0.481097 
3743 1 12.3539 12.3806 15.0307 -7.09479 -0.824483 -0.451911 -0.131841 
3742 1 12.3863 12.3305 9.6588 -7.42068 -0.553047 -0.59338 -0.849997 
3622 1 6.83808 6.85688 9.60055 -7.50881 0.030267 -0.272894 -0.582688 
4624 1 6.84557 9.65904 17.7495 -7.03578 -0.393224 -0.802878 0.590697 
4623 1 6.88921 9.53171 12.2574 -7.79856 0.125607 0.831476 1.16882 
5644 1 9.63709 12.2891 17.9182 -7.682 -0.369941 -0.271221 -0.600824 
5643 1 9.48148 12.3162 12.3704 -7.47475 0.711033 -0.572297 0.285691 
1643 2 8.2288 13.6304 10.9356 -26.0954 -0.203812 0.970031 0.648912 
244 2 10.8776 10.9435 16.5592 -25.5173 1.03134 -0.100656 -1.08483 
5623 1 9.56082 6.8619 12.2593 -7.20521 0.0196165 0.267569 0.212004 
5223 1 12.3615 9.68429 15.1028 -7.25 -0.905191 -0.886011 0.0207109 
5222 1 12.2132 9.62817 9.47749 -7.47577 -0.00598361 0.220664 0.384041 
4724 1 12.2635 9.57921 17.8138 -7.60477 -0.211966 -0.630379 -0.122532 
4723 1 12.3246 9.51917 12.3372 -7.69692 -0.323897 0.131725 -0.325297 
4143 1 9.62566 12.3523 15.1747 -7.50699 -0.40518 -1.01823 -0.199189 
243 2 10.8672 10.867 11.0362 -25.508 1.03654 0.87263 -0.656752 
1644 2 8.24429 13.6588 16.5042 -25.5478 -0.0442546 0.167002 -1.04419 
5 2 0.112862 0.0673096 21.8746 -25.6896 -0.423259 -0.292859 0.103117 
125 2 5.45032 5.49899 21.8354 -25.5742 -0.0841923 -0.391414 0.742075 
604 2 5.51622 2.74734 19.1116 -25.3619 -0.717595 -0.139336 0.276153 
605 2 5.49875 2.66022 24.594 -25.5139 0.352358 0.233478 0.0892048 
1024 2 2.76578 5.39339 19.1242 -25.9155 -0.960396 0.555716 0.507472 
1025 2 2.7585 5.4149 24.5407 -25.8692 0.0659027 0.441906 0.801657 
1505 2 2.82192 2.74012 21.8464 -25.6873 -1.30385 0.15514 0.173229 
2005 1 1.42903 1.43838 23.3046 -7.41057 0.730675 -0.951844 -0.473594 
2504 1 4.11405 4.13884 20.514 -7.40839 0.278712 -0.0465724 -0.25564 
2505 1 4.18413 4.1106 25.9318 -7.51085 -0.959263 -0.696984 -0.435999 
3005 1 4.08929 4.02996 23.1647 -7.48078 1.11794 -0.0301602 0.786071 
3504 1 1.38175 1.47075 20.4594 -7.65579 0.493131 -0.753142 0.239925 
3505 1 1.39766 1.34355 26.0508 -7.49746 0.17836 0.449313 -0.544729 
4004 1 4.11873 1.4366 20.4633 -7.69898 -0.159333 -0.714489 0.196387 
4005 1 4.13132 1.40258 26.0204 -7.63474 0.110727 -0.743419 -0.259867 
4505 1 1.42996 4.1237 23.286 -7.21426 -0.375134 0.224245 -0.405732 
5004 1 1.38337 4.12744 20.5798 -6.98827 -0.223155 -0.40083 -0.303878 
5005 1 1.37468 4.09674 26.0031 -7.57168 0.543577 -0.582477 0.384688 
5505 1 4.15372 1.28157 23.259 -7.83896 0.210568 0.208373 -0.284905 
4025 1 4.08988 6.78354 25.9648 -7.4508 0.222752 -0.0243709 -0.26149 
3624 1 6.71547 6.82774 20.4743 -7.60095 0.927555 0.492018 0.544003 
126 2 5.42064 5.33605 27.3294 -25.7157 1.15878 1.09915 0.2108 
3525 1 1.39228 6.72774 25.956 -7.33975 -0.417022 0.809275 1.06274 
1004 2 2.7284 0.0886885 19.0779 -25.3838 0.211595 -1.21042 0.167354 
3604 1 6.78051 1.40526 20.5071 -7.62439 0.00926865 -0.174763 -0.816464 
5104 1 6.81371 4.17015 20.5459 -7.69247 0.19621 -0.641139 -0.322658 
3524 1 1.3516 6.73382 20.5649 -7.3661 -0.105405 0.595397 -0.0873976 
5525 1 4.13449 6.72559 23.2357 -7.27504 -0.452093 0.20056 -0.202218 
2125 1 6.78759 6.82374 23.3142 -7.52568 0.493438 -0.348379 -0.903868 
1506 2 2.74339 2.65585 27.3258 -25.5056 0.339024 0.678367 0.704089 
505 2 0.0691483 2.75744 24.6835 -25.9424 -0.369474 -0.326119 -0.803952 
5105 1 6.85599 3.963 26.0184 -7.31168 -0.143685 0.386436 -0.509159 
3625 1 6.8787 6.72771 26.0048 -7.48791 -0.275773 -0.216793 0.127533 
2105 1 6.94438 1.35216 23.1556 -7.28076 -0.842349 -0.175542 1.11982 
225 2 10.9255 5.44611 21.8617 -25.3196 0.0202222 0.399094 0.339333 
704 2 10.9646 2.79829 19.1642 -25.5012 -1.02448 -1.05061 -0.800632 
705 2 10.9989 2.71672 24.6152 -25.421 -0.135934 0.1473 -0.32026 
1104 2 8.13649 0.0131579 19.1806 -25.4592 0.502226 0.174827 -0.519182 
1124 2 8.08464 5.48365 19.1571 -25.5182 1.25878 -0.0470453 -0.30245 
1125 2 8.19356 5.44021 24.5566 -25.719 0.254251 0.337358 0.717171 
1605 2 8.19316 2.76236 21.8605 -25.9022 0.533224 -0.377425 -0.182412 
2205 1 12.3794 1.3393 23.317 -7.46318 0.0502825 -0.220375 -0.544674 
2604 1 9.57411 4.14794 20.5609 -7.45213 0.126611 -0.029288 -0.596647 
2605 1 9.53708 4.16815 25.9355 -7.42568 0.581893 -1.33448 0.195551 
3105 1 9.59036 4.14827 23.219 -7.55419 0.679577 0.137734 0.40766 
3605 1 6.85899 1.27068 26.0075 -7.57238 0.448375 0.100131 -0.440256 
3704 1 12.2581 1.22921 20.4481 -7.65701 -0.345394 1.01288 0.173438 
3705 1 12.3213 1.39306 26.0449 -7.3898 0.518265 -0.356491 -0.485563 
4104 1 9.45646 1.46753 20.3822 -7.08949 0.660432 -0.026669 0.601197 
4105 1 9.66088 1.35785 26.0231 -7.83519 -0.820729 0.407355 -0.678886 
4605 1 6.90891 4.01854 23.2738 -7.53036 -0.950159 0.756571 0.0213246 
4705 1 12.4237 4.08004 23.1912 -7.56099 -1.49988 -0.011702 0.18129 
5204 1 12.365 3.96407 20.4761 -7.8941 -0.294378 0.886158 0.198715 
5205 1 12.2818 4.09069 26.0421 -7.62458 0.160042 -0.140891 -0.890168 
5605 1 9.6487 1.42628 23.1279 -7.31727 0.272684 0.200523 0.950679 
1225 2 13.6558 5.39737 24.5917 -25.5764 0.177546 0.371429 0.590724 
3725 1 12.3401 6.82826 26.0361 -7.249 -0.605909 -0.414079 -1.15558 
4125 1 9.64769 6.76318 25.9545 -7.13839 -0.473095 0.539606 -0.182338 
2225 1 12.2459 6.81637 23.2697 -7.61517 -0.168338 -0.261122 0.271574 
3724 1 12.2892 6.77777 20.546 -7.71732 -0.443431 -0.363642 -0.13712 
4124 1 9.50695 6.8165 20.4835 -7.50548 -0.0136121 0.348416 0.270643 
1606 2 8.28975 2.76499 27.3303 -25.5709 -0.420071 -0.793458 0.553951 
1224 2 13.6693 5.44332 19.1847 -25.3804 -0.43117 -0.108335 -0.965039 
1204 2 13.595 0.0139873 19.0704 -25.6265 0.851085 -0.885448 0.580416 
2025 1 1.40084 6.94384 23.4096 -7.13856 0.254444 -1.18235 -2.00051 
145 2 5.49202 10.952 21.8957 -25.5281 -0.565579 -0.623185 0.553948 
624 2 5.40892 8.26304 19.1926 -25.5599 0.427056 -0.36998 -0.921585 
625 2 5.42908 8.1118 24.6768 -25.8414 -0.13334 0.421262 -0.608743 
1044 2 2.72065 10.9545 19.0896 -25.3858 0.935666 -0.461518 0.737114 
1045 2 2.74487 11.0132 24.5973 -25.6454 0.00602615 -1.35665 -0.0830677 
1525 2 2.67766 8.12796 21.7616 -25.7679 0.593889 0.807074 2.06588 
2045 1 1.4345 12.3423 23.1845 -7.59151 -0.801802 -0.253967 -0.111614 
2524 1 4.07702 9.57252 20.5026 -7.48246 -0.0577638 0.166525 0.0538999 
2525 1 4.1 9.5255 26.0719 -7.50266 -0.670264 0.044485 -0.474359 
3025 1 4.09699 9.45392 23.2746 -7.0438 0.035338 0.879814 -0.0817684 
3544 1 1.50598 12.3042 20.4677 -7.90547 -1.22248 0.144843 0.078197 
3545 1 1.30135 12.3507 25.833 -7.51527 0.551432 0.122396 0.983427 
4024 1 4.0808 6.88545 20.5133 -7.44494 -0.302476 -0.499399 -0.125909 
4044 1 4.20768 12.2224 20.5445 -7.26159 -0.605805 0.958553 -0.269951 
4045 1 4.08243 12.2908 25.9654 -7.70517 -0.00596247 0.482162 0.765854 
4525 1 1.42171 9.5525 23.2535 -7.27223 -0.308573 1.00669 -0.519892 
5024 1 1.33631 9.45297 20.4669 -7.47377 0.693675 0.935056 0.398236 
5025 1 1.32226 9.61971 25.9552 -7.44796 0.550483 -0.420938 -0.0226098 
5545 1 4.12137 12.3375 23.2874 -7.50933 0.164866 -0.835364 -0.512716 
3645 1 6.81898 12.2742 26.0053 -7.38721 -0.292772 -0.399742 -0.631669 
4625 1 6.76871 9.54485 23.307 -7.70133 0.749884 0.538665 -0.390857 
5125 1 6.7615 9.442 26.0606 -7.62481 0.79484 0.63276 -0.677105 
544 2 0.00589459 13.6617 19.2369 -25.3028 0.116916 0.653098 -0.831255 
524 2 0.00953745 8.22341 19.0679 -25.6277 -0.0204409 -0.695581 0.51699 
1526 2 2.7224 8.07431 27.3061 -25.5634 -0.268501 1.39992 0.0146294 
45 2 0.0547851 10.8834 21.9224 -25.5352 -0.102317 -0.0392152 -0.274048 
525 2 0.0362317 8.2255 24.6384 -25.9212 -0.547153 -0.0675835 0.228182 
644 2 5.52022 13.6497 19.2131 -25.3819 -0.246098 0.0968259 -0.272976 
3644 1 6.86314 12.2519 20.5533 -7.64933 0.394064 0.60484 -0.0194548 
5124 1 6.86693 9.53145 20.4863 -7.86693 -0.454697 0.123613 0.763769 
2145 1 6.88546 12.3646 23.2168 -7.35553 -0.557463 -1.12049 0.680358 
5625 1 9.50636 6.98122 23.2064 -7.4393 0.252279 -1.06641 0.105333 
1726 2 13.629 8.13735 27.3137 -25.9258 0.192328 1.18995 0.0163134 
245 2 10.8697 10.8451 21.9553 -25.5658 1.64031 0.706646 -0.160208 
724 2 10.9019 8.19001 19.1809 -25.4401 0.136987 -0.244833 -0.00308318 
725 2 10.9253 8.18909 24.6704 -25.8431 0.417584 -0.0203019 -0.251275 
1144 2 8.20603 10.9222 19.2716 -25.5466 -0.0453066 -0.461231 -1.65064 
1145 2 8.16598 10.8788 24.6657 -25.4385 -0.241272 0.531829 0.273169 
1625 2 8.16521 8.23545 21.8854 -25.2323 -0.297394 -0.687697 0.493569 
2245 1 12.2364 12.2264 23.2946 -7.46722 0.347762 0.739548 -0.256837 
2624 1 9.56979 9.55995 20.6463 -7.85741 0.015635 -0.686586 -0.416555 
2625 1 9.62269 9.49338 26.0644 -7.44901 -1.2356 0.213541 0.146886 
3125 1 9.58022 9.63031 23.4102 -7.56775 -0.442334 -0.361381 -0.708409 
3744 1 12.3345 12.2681 20.5242 -7.30638 0.0833416 -0.226284 0.679416 
3745 1 12.2909 12.311 26.0366 -7.39694 -0.0992966 0.233056 -0.687172 
4144 1 9.59953 12.1903 20.5231 -7.66005 0.106616 1.36295 0.843248 
4145 1 9.50993 12.2742 25.9421 -7.35997 0.411358 -0.612963 0.103875 
4725 1 12.3437 9.56836 23.2028 -7.26905 -0.367033 -0.730506 0.280741 
5224 1 12.339 9.50081 20.4877 -7.35215 -0.35044 -0.0474156 0.304401 
5225 1 12.2827 9.59276 25.9359 -7.04058 -0.584262 -0.222936 -0.0604082 
5645 1 9.52795 12.2922 23.2376 -7.59368 0.232111 0.1684 -0.184544 
1725 2 13.6532 8.11956 21.9442 -25.5648 -0.163059 1.35196 -0.981714 
744 2 10.9718 13.6144 19.1971 -25.6456 0.678168 0.471273 -0.136808 
1244 2 13.6582 10.8721 19.1234 -25.8791 0.848346 0.771093 0.68168 
745 2 10.8445 13.6568 24.5245 -25.4795 0.745805 -0.520821 1.58381 
1645 2 8.26967 13.639 21.8967 -25.4637 -1.06819 0.857698 -0.297636 
106 2 5.53439 0.0192845 27.4787 -25.6163 -0.7603 -0.502961 -0.597352 
26 2 0.0539619 5.43892 27.3752 -25.6306 -0.931192 0.351459 0.0960757 
506 2 0.0389853 2.65167 30.1471 -25.7599 -0.0750157 0.737728 -0.102075 
127 2 5.53059 5.53191 32.8433 -25.8213 -0.755198 -0.254839 -0.698584 
606 2 5.48015 2.77162 30.0941 -25.8563 -0.0635689 -0.65121 0.435848 
607 2 5.3798 2.789 35.6484 -25.4098 0.573709 -0.157095 -0.810033 
1026 2 2.75354 5.47431 30.0048 -25.4445 -0.112856 -0.579685 1.27878 
1027 2 2.70303 5.46198 35.5301 -25.6269 0.186496 0.425109 0.696376 
1507 2 2.73254 2.7606 32.9272 -25.4884 0.0782234 0.169903 -1.36625 
2006 1 1.39483 1.3421 28.7362 -7.62316 0.183381 -0.265347 0.575711 
2007 1 1.3663 1.35677 34.2625 -7.35092 0.0676327 1.26213 -0.127993 
2506 1 4.16622 4.07474 31.4952 -7.34246 -0.900377 0.630949 -0.0264083 
3006 1 4.08906 4.02671 28.6867 -7.69031 0.0458546 0.232793 0.200634 
3007 1 4.12753 4.21827 34.2728 -7.6558 -0.324649 -0.295125 -0.66605 
3506 1 1.39568 1.35602 31.5328 -7.54264 -0.0688316 0.0487261 -0.29545 
4006 1 4.10504 1.34478 31.4362 -7.17957 -0.477468 0.191316 0.796286 
4506 1 1.36472 4.01302 28.7393 -7.55936 0.160534 0.744148 -0.0508298 
4507 1 1.29804 4.05488 34.2131 -7.70434 0.671753 0.432045 0.293298 
5006 1 1.35959 4.07511 31.5362 -7.31581 0.696425 0.203279 -0.444672 
5506 1 4.14285 1.36182 28.7884 -7.30616 -0.255532 -0.41045 -0.618541 
5507 1 4.08058 1.49919 34.2351 -7.94738 0.0204511 -0.802177 0.134822 
5106 1 6.81863 4.10831 31.5192 -7.33707 0.677323 -0.155883 -0.873434 
3526 1 1.37292 6.81475 31.4503 -7.40622 0.706135 -0.300638 0.348372 
107 2 5.40183 0.0461516 32.8452 -25.5218 0.755281 -0.297361 0.0108746 
2107 1 6.7727 1.36804 34.2062 -7.49701 0.47571 0.0952231 -0.0984613 
3606 1 6.76621 1.34001 31.4694 -7.50805 1.04928 -0.10772 0.0763982 
2126 1 6.70854 6.83059 28.78 -6.91802 0.378597 -0.725395 -1.04409 
5526 1 4.05852 6.72477 28.6038 -7.316 -0.160992 0.239292 0.411985 
6 2 0.0975377 0.0271793 27.3865 -25.5962 -0.703566 -0.902886 -0.842959 
1007 2 2.73912 0.101683 35.5679 -25.4764 -0.721332 -1.05844 0.483606 
1206 2 13.6252 0.0167085 30.0824 -25.7129 0.891063 -1.14528 0.532227 
2106 1 6.85605 1.34995 28.7445 -7.38314 0.574217 0.211347 0.117171 
4607 1 6.87369 4.15139 34.1648 -7.35894 -0.574687 -0.727008 0.570066 
4606 1 6.88865 4.07185 28.706 -7.61506 -0.583651 0.0241116 0.283063 
226 2 10.9802 5.39583 27.3776 -25.8204 -0.657294 0.564383 -0.255483 
227 2 10.9585 5.49297 32.8522 -25.5611 -0.438374 -0.357931 -0.234517 
706 2 10.9184 2.68542 30.1503 -25.6786 0.559583 0.177061 -0.91869 
707 2 10.9556 2.76234 35.5675 -25.1449 -0.513178 -0.325841 0.601767 
1707 2 13.6556 2.66714 32.7959 -25.3999 -0.0864088 0.244705 0.310135 
1107 2 8.1603 0.0317788 35.5071 -25.294 -0.0490426 -0.616896 0.932149 
1126 2 8.18859 5.43114 30.0293 -26.0061 -0.311406 0.565715 0.603114 
1127 2 8.10745 5.39636 35.5745 -25.3175 1.19412 0.853908 -0.41729 
1607 2 8.2507 2.72904 32.8124 -25.4361 -1.18424 0.54075 -0.0966223 
2206 1 12.372 1.30503 28.7478 -7.21554 -0.715228 0.89636 0.0354362 
2207 1 12.365 1.26628 34.1512 -7.68267 -0.366901 0.450899 0.917353 
2606 1 9.57649 4.08577 31.3643 -7.32523 -0.55965 -0.000342439 1.07019 
3106 1 9.58212 4.1044 28.7272 -7.46546 0.485376 -0.627134 -0.628041 
3107 1 9.52222 4.14962 34.1627 -7.67625 0.757349 -0.198902 0.0964064 
3706 1 12.269 1.25638 31.5127 -7.56762 0.112567 0.81607 -0.430561 
4106 1 9.58899 1.36976 31.4694 -7.69567 -0.740481 -0.145719 0.681537 
4706 1 12.3462 4.03533 28.7368 -7.45665 0.213006 0.0178084 0.49597 
4707 1 12.2884 3.98309 34.2241 -7.5799 -0.00184056 0.59458 -0.0898822 
5206 1 12.2121 4.16628 31.5028 -7.50902 1.27782 -1.28572 -0.339127 
5606 1 9.60859 1.33449 28.7861 -7.16905 -0.241289 0.410122 -0.617859 
5607 1 9.54277 1.3632 34.1809 -8.11484 0.195761 0.175668 0.542136 
5626 1 9.45336 6.77695 28.6444 -7.4484 0.89944 0.504579 0.260414 
2226 1 12.2755 6.7824 28.6558 -7.62935 -0.309383 0.506032 1.61152 
3726 1 12.2844 6.80478 31.5252 -7.63488 -0.600213 0.59594 -0.979996 