# LAMMPS data file written by OVITO Basic 3.8.4

4 atoms
1 atom types

0.0 4.171288 xlo xhi
0.0 4.171288 ylo yhi
0.0 4.171288 zlo zhi

Masses

1 196.96655  # Au

Atoms  # atomic

1 1 0.0 0.0 0.0
2 1 0.0 2.085644 2.085644
3 1 2.085644 0.0 2.085644
4 1 2.085644 2.085644 0.0
