ITEM: TIMESTEP
0
ITEM: NUMBER OF ATOMS
6000
ITEM: BOX BOUNDS pp pp pp
3.6538799917799203e-01 2.6975612000821748e+01
3.6843091324341515e-01 2.6972569086756859e+01
1.4478921411676566e+00 1.0791610785883103e+02
ITEM: ATOMS id type x y z c_peratom fx fy fz 
122 3 5.68339 5.7213 6.74529 -29.6751 0.470586 0.00962901 -0.849619 
601 3 5.6787 3.13942 4.19562 -29.5941 0.267895 -0.196668 -0.607001 
602 2 5.68798 3.068 9.38914 -25.1683 0.508909 -1.66513 0.22362 
1021 3 3.15854 5.72334 4.07043 -29.2208 -0.889166 0.122632 1.40262 
1022 2 3.02665 5.66662 9.44347 -25.417 -0.198162 0.540237 0.00605395 
1502 2 3.0297 3.05987 6.81214 -25.4042 0.493154 0.201013 -1.14181 
2001 1 1.81844 1.76554 2.74247 -7.8126 0.823375 0.389567 0.60804 
2002 1 1.83034 1.78225 8.17289 -8.02928 -1.0885 -0.834833 0.00765082 
2501 1 4.43666 4.36003 5.46418 -7.39176 -1.28827 0.339572 -0.325046 
3001 1 4.42889 4.52744 2.85419 -7.81522 -0.0875821 -0.162477 -0.179138 
3002 1 4.42481 4.37484 8.05682 -7.85902 -0.238355 -0.893637 0.465804 
3501 1 1.65393 1.77507 5.39396 -7.49054 0.489908 -0.415888 0.491656 
4001 1 4.30952 1.77409 5.45138 -7.65111 0.0463748 -0.547119 -0.422533 
4501 1 1.81032 4.38315 2.959 -8.04086 -0.419375 0.436526 -1.01278 
4502 1 1.70172 4.41961 8.18801 -7.761 0.0273665 -0.0195472 -1.0393 
5001 1 1.7427 4.37997 5.513 -7.36592 -0.494806 -0.268811 0.288591 
5501 1 4.5707 1.94593 2.73136 -7.30822 -0.0125158 -0.743442 1.67211 
5502 1 4.44302 1.55016 8.1351 -7.74112 -0.788335 1.73535 1.21941 
2021 1 1.73816 7.01033 2.86764 -7.73447 1.15731 -0.377014 -0.207654 
3601 1 6.95382 1.92585 5.38644 -7.80182 0.0724986 -0.588445 0.490569 
5101 1 6.8935 4.54429 5.51666 -7.18648 1.58056 -1.15821 -0.341414 
3521 1 1.64433 6.89759 5.44085 -7.19391 0.245973 0.608129 0.0800379 
1001 3 3.06005 0.370707 4.17887 -29.0954 0.227071 0.991895 -0.493839 
121 2 5.84057 5.69914 1.5006 -24.8931 0.0296531 1.13449 0.155471 
5522 1 4.34507 6.90111 7.92897 -7.8266 -0.338259 0.703317 2.11742 
2 2 0.405711 0.401116 6.9384 -25.2563 0.272001 0.789917 -1.13546 
501 3 0.505313 3.09384 4.05844 -29.3669 -0.983815 -0.370407 1.26117 
1002 3 3.05627 0.376096 9.67364 -29.0416 0.00343146 -0.479694 -0.572191 
102 2 5.73731 0.397116 6.83177 -25.4634 0.554091 -0.231375 -0.913352 
1 2 0.49108 0.486932 1.51618 -25.7058 -1.44441 0.226283 -0.604711 
1501 2 3.06768 3.20152 1.5077 -25.3682 1.8516 -1.57307 -0.210753 
21 2 0.466419 5.75083 1.48482 -25.2401 -0.102025 -1.53861 0.704418 
101 3 5.8782 0.464661 1.60272 -29.566 -0.821748 0.796555 -0.00876285 
2101 1 7.28263 1.74118 2.81751 -7.16912 -0.73749 -0.852898 0.322724 
3621 1 7.15979 6.98257 5.31116 -7.17866 -0.67555 1.96914 0.0516667 
4601 1 7.05436 4.30963 2.97214 -7.72142 0.451959 0.735222 -0.650006 
4602 1 7.08673 4.42225 8.05766 -7.55123 -0.674678 -0.474521 0.135709 
222 2 11.0541 5.65136 6.90963 -25.2194 -1.04567 -0.225033 -0.7956 
701 3 11.0235 3.11293 4.22684 -29.3568 -0.467922 -0.62677 -0.609004 
702 2 11.0377 3.06042 9.4594 -25.3683 -1.07837 -0.747737 0.822668 
1121 3 8.42593 5.7693 4.06307 -29.2989 -0.174582 -0.856586 0.477085 
1122 2 8.2529 5.6568 9.5277 -25.2859 1.87608 0.355419 -1.89319 
1602 3 8.22087 3.16377 6.57918 -29.095 0.550062 -0.186205 1.24713 
2102 1 7.08719 1.75632 8.0617 -7.98474 0.473471 0.060736 -0.302326 
2201 1 12.5441 1.80105 2.92367 -7.87072 -1.01952 -0.268557 0.201993 
2202 1 12.3734 1.65986 8.11589 -8.23155 -0.0365623 -0.150942 -0.731569 
2601 1 9.64067 4.20178 5.40738 -7.58472 -1.02266 1.26723 0.246934 
3101 1 9.71857 4.30478 2.79912 -7.50046 -0.932816 0.729886 -0.0485436 
3102 1 9.67349 4.19 8.15679 -7.727 -0.119527 0.47921 -1.12182 
3701 1 12.2936 1.67295 5.50965 -7.99656 -0.0530968 -0.802002 0.546552 
4101 1 9.57946 1.72289 5.59517 -7.6753 0.173851 -0.605546 0.503771 
4701 1 12.2251 4.48872 2.86992 -7.81569 0.821847 -0.620981 -0.393454 
4702 1 12.3761 4.25453 8.13986 -7.79491 -0.0290076 0.991727 0.156084 
5201 1 12.2115 4.25921 5.47683 -7.76307 1.1089 1.12799 0.573406 
5601 1 9.81611 1.70499 2.99802 -7.75374 0.78656 -0.274258 0.761585 
5602 1 9.80135 1.42061 8.29715 -7.06875 -0.165984 2.67924 0.543818 
4121 1 9.74448 6.80518 5.45978 -8.01543 0.495401 1.18126 -0.25714 
1221 2 13.6036 5.67512 4.1277 -25.225 0.283454 1.0741 0.833302 
2222 1 12.3031 6.96578 8.21987 -7.8592 -0.0818561 -0.396593 0.817008 
5621 1 9.78589 6.94936 2.69388 -7.57603 -0.195956 -1.01514 0.67469 
5622 1 9.55152 6.9727 8.21304 -7.63182 0.869084 0.0204269 -0.146199 
1222 3 13.6538 5.80889 9.5124 -28.9133 0.313921 -0.622975 0.232817 
1601 3 8.43352 3.08542 1.62186 -29.8302 0.130586 -0.753687 -0.229715 
2121 1 7.17451 6.9824 2.75746 -8.05725 -0.177994 0.418813 -1.40392 
1202 2 13.5929 0.440751 9.38186 -24.8024 0.582807 -0.563372 1.48652 
1102 3 8.24871 0.400831 9.4197 -29.7425 0.837402 -0.288771 0.0267857 
202 3 10.9554 0.459005 6.85616 -29.1601 -0.609704 -1.00784 0.0907541 
1101 3 8.46178 0.406244 4.26254 -29.4289 -0.81899 0.391225 -0.829105 
221 3 11.1089 5.77818 1.49078 -29.0083 -0.519335 0.00372362 0.346057 
2022 1 1.54036 7.13452 8.0684 -7.47533 0.947464 -1.22095 0.603345 
4021 1 4.29998 7.02317 5.4045 -7.68188 0.920894 -0.242928 -1.21538 
5521 1 4.45625 7.09072 2.7389 -8.14325 -0.726086 -0.0149988 -0.759631 
2122 1 6.9454 7.0464 7.92225 -7.49992 -0.0332275 0.424009 0.988077 
142 2 5.748 11.0691 6.87139 -25.3446 -1.75239 -0.553619 -0.3447 
521 3 0.515948 8.21935 4.02232 -29.5973 -1.52328 0.963169 1.19182 
621 2 5.66125 8.38279 3.9919 -25.2511 1.26695 0.0534458 2.60053 
622 2 5.66363 8.26957 9.41032 -25.293 -0.115572 0.333155 0.617136 
1041 3 3.00262 10.9861 3.96329 -29.4152 -0.181078 0.0876727 1.49877 
1042 3 3.03542 11.024 9.51958 -29.5112 -0.607729 -0.717327 -0.302536 
1522 2 3.01632 8.28228 6.82058 -25.8359 -0.842698 1.26198 -1.53913 
2041 1 1.77996 12.311 2.69311 -7.85421 -0.891334 -0.659886 -1.06697 
2042 1 1.62108 12.3362 8.05692 -7.62125 -0.325483 -0.446956 0.162611 
2521 1 4.29343 9.66589 5.54145 -7.08271 0.382063 -0.102146 -0.00641126 
3021 1 4.2861 9.74516 2.85093 -8.12312 0.479477 0.00574568 -1.06887 
3022 1 4.33029 9.6403 8.34841 -7.44969 0.701122 0.11379 -1.81531 
3541 1 1.66851 12.2081 5.23904 -7.36697 -0.349712 -0.139978 1.48725 
4041 1 4.27073 12.2766 5.3585 -7.29937 1.46038 0.48059 -0.0756496 
4521 1 1.67631 9.55971 2.54028 -7.48189 0.885247 0.625119 0.628379 
4522 1 1.72189 9.72524 7.9964 -7.24492 0.238249 0.129747 1.07196 
5021 1 1.66612 9.58074 5.18626 -7.35801 -0.41785 -0.283137 0.548486 
5541 1 4.39467 12.3828 2.627 -7.85328 0.562958 -0.213705 0.694349 
5542 1 4.2727 12.2857 8.10144 -7.60725 0.353329 0.119401 0.115359 
641 2 5.77663 13.6445 4.09944 -25.4984 -1.29286 0.933123 0.166959 
2142 1 6.93257 12.5016 8.39278 -7.88554 0.408511 -0.830406 -2.3699 
5121 1 6.93285 9.72157 5.50132 -7.78259 1.16555 -0.552545 -0.84903 
541 2 0.38584 13.6575 4.11715 -25.1783 -0.28375 -0.564936 -0.9116 
1542 2 2.91408 13.6352 6.79377 -25.6859 1.7075 -0.815934 -0.901466 
2141 1 7.18987 12.4203 2.8476 -8.15555 -0.302001 -0.760098 -0.607261 
4621 1 7.0598 9.69926 2.80104 -7.83813 -0.538295 0.304958 -0.531683 
3721 1 12.3906 7.08191 5.52348 -8.07579 -1.30679 0.0537838 -0.365473 
3641 1 7.13508 12.4049 5.65907 -8.10957 -0.566151 0.136192 -0.455331 
2221 1 12.3557 7.09893 2.82574 -7.85462 0.170168 0.116261 0.443551 
1742 2 13.6385 13.592 6.6735 -25.1721 0.294083 1.08764 2.06369 
1722 3 13.5926 8.40783 6.73732 -29.0863 0.867536 -0.605335 0.429734 
242 2 11.074 11.0465 6.7405 -25.3959 -0.725827 -1.53354 0.477987 
721 3 11.0161 8.30304 4.16274 -28.7011 0.0971241 0.099265 -1.29285 
722 2 11.0138 8.46711 9.61322 -25.1102 -0.458788 -0.861289 -1.59148 
1141 2 8.3677 10.9984 4.16171 -25.1775 1.1473 -0.64886 -0.121991 
1142 2 8.32495 11.134 9.44771 -25.2251 0.558014 -1.41752 -0.0490178 
1622 3 8.39052 8.35804 6.73527 -29.0201 -0.312145 -0.721458 0.565668 
2241 1 12.4516 12.3132 2.79818 -7.43733 -0.536222 -0.0624787 0.159675 
2242 1 12.4223 12.3065 8.11619 -8.07373 -1.06054 -0.739929 0.90529 
2621 1 9.73529 9.54939 5.39937 -8.36013 -0.119565 -0.146462 0.433754 
3121 1 9.69914 9.42113 2.76898 -7.24813 -0.038681 1.57874 0.371017 
3122 1 9.78516 9.64417 8.14977 -7.20322 -1.06115 -0.011539 -0.4462 
3741 1 12.306 12.4305 5.51154 -7.79844 -0.30395 -1.31832 -1.98279 
4141 1 9.75701 12.3019 5.47226 -7.67145 -0.710558 0.949229 -1.14821 
4622 1 7.13964 9.71326 8.07606 -7.80782 -0.512585 0.16934 0.702766 
4721 1 12.3442 9.70233 2.57893 -7.88554 0.631134 0.131351 0.702004 
4722 1 12.2688 9.52038 7.92592 -7.67025 1.44814 1.10987 1.14787 
5221 1 12.492 9.80918 5.35865 -7.97616 -1.10573 -0.589197 -1.06293 
5641 1 9.8853 12.2071 2.81865 -7.89611 -0.639433 0.459071 0.0499403 
5642 1 9.64694 12.2254 8.03697 -7.56514 0.128729 1.23851 0.150102 
241 3 11.1027 11.0604 1.45149 -29.3024 0.978976 -1.32158 0.21724 
503 3 0.442099 2.94106 14.7915 -29.1021 -0.879961 1.1984 0.987907 
103 3 5.76887 0.434099 12.1782 -29.4541 -0.626436 -0.942771 0.0533536 
24 3 0.36963 5.65855 17.5089 -29.1587 -0.509785 0.0788312 -1.35291 
123 2 5.72192 5.58719 12.1607 -25.2158 -1.25301 1.50994 -0.0836066 
124 3 5.62767 5.53224 17.3977 -29.0522 1.26753 1.7482 0.510426 
603 2 5.67961 2.96222 14.8031 -25.368 1.13914 -0.759657 0.527341 
1023 2 3.13464 5.64936 14.7983 -25.3949 -2.2675 0.560153 -0.247814 
1503 2 2.97923 2.99807 12.1695 -25.0943 -0.340914 -0.465738 -0.202421 
1504 3 2.9859 3.00021 17.3845 -28.9261 -0.279033 -0.229289 0.688413 
2003 1 1.53298 1.66644 13.5303 -8.11503 1.66914 0.799757 0.484539 
2004 1 1.58494 1.69784 18.7622 -7.64862 1.4759 -0.93798 -0.615198 
2502 1 4.31065 4.29143 10.7605 -7.76355 -0.231091 -0.36511 0.220461 
2503 1 4.42788 4.40031 16.1519 -8.22371 0.0869409 -1.06218 0.354008 
3003 1 4.31635 4.27513 13.4871 -8.14538 0.385195 0.0680615 -0.308382 
3004 1 4.37461 4.4585 18.7785 -7.8499 -0.854484 -1.01872 -0.534668 
3502 1 1.61162 1.64417 10.8166 -7.7926 0.921941 0.425897 0.200845 
3503 1 1.77866 1.66455 16.1748 -7.68611 -0.858017 -0.938003 -0.378022 
4002 1 4.35121 1.64855 10.9012 -7.93684 0.220991 0.438657 -0.197227 
4003 1 4.32346 1.71469 16.2444 -7.78852 0.33483 1.11765 -0.407502 
4503 1 1.6269 4.36458 13.4336 -7.51553 0.16018 -0.306289 -0.248308 
4504 1 1.68799 4.35884 18.6353 -8.07684 0.334801 0.00711111 -0.0158352 
5002 1 1.56045 4.36262 10.7832 -7.51897 1.07597 -0.726231 0.236172 
5003 1 1.79124 4.19285 15.9568 -7.36765 0.665762 0.311029 1.13409 
5503 1 4.33284 1.59786 13.6237 -7.84784 -1.09369 -0.063432 -0.845935 
5504 1 4.26451 1.68541 18.8386 -7.97614 0.463524 0.551067 0.592147 
2103 1 6.96683 1.5934 13.4526 -7.41335 0.647657 0.941387 -0.284039 
4604 1 6.93855 4.42645 18.6866 -7.38806 0.608018 -1.29119 0.343668 
5102 1 6.95176 4.30868 10.7304 -8.11192 0.766558 -0.459921 0.958915 
2024 1 1.64357 7.00226 18.7557 -8.218 0.030644 -0.526869 0.140392 
4022 1 4.32058 6.91083 10.8007 -7.45356 1.48055 0.634979 -0.117366 
4603 1 6.97177 4.22255 13.3877 -7.94574 0.698447 0.527962 0.254703 
2124 1 6.92367 6.98728 18.7802 -7.49812 0.910074 0.163189 -1.21338 
3522 1 1.80932 6.99276 10.7736 -7.21571 -1.82033 0.821259 -0.705225 
3523 1 1.71903 6.89665 16.0319 -7.65168 -0.0605411 0.323059 0.798298 
4023 1 4.40609 7.00991 16.0575 -7.59453 -0.630103 0.397723 1.57473 
3622 1 7.01257 6.96369 10.7566 -7.9248 -0.322525 0.773256 0.215261 
3623 1 6.95683 6.98386 16.0662 -7.72658 0.771976 0.0413183 0.510061 
203 2 10.9386 0.499416 12.1837 -25.1891 0.514485 -0.950184 0.0859371 
1703 2 13.6189 3.1176 12.2225 -25.4255 0.277398 0.428862 0.149251 
5103 1 7.14503 4.28123 16.0461 -7.63719 -0.592476 0.137759 -0.091263 
2104 1 7.05891 1.73808 18.7516 -8.13099 -0.447259 0.061336 0.942415 
3603 1 7.07436 1.54428 16.1249 -7.48696 -0.407609 0.657996 -0.334747 
3602 1 7.06989 1.61813 10.7323 -7.37073 -1.06896 0.660717 0.051495 
223 2 11.0763 5.84515 12.1959 -25.2578 0.0205625 -1.00142 1.98429 
224 3 11.1831 5.71477 17.4556 -28.8601 -0.862745 -0.783937 0.303509 
703 3 11.0151 3.15677 14.8642 -29.1651 0.189685 -0.440808 0.442812 
1123 3 8.43468 5.76195 14.7951 -28.9659 -0.568336 -0.357864 0.347386 
1603 3 8.40903 3.19708 12.1802 -28.952 -0.188601 -1.68438 -0.124688 
1604 2 8.43129 2.97253 17.4854 -25.5444 -0.456836 0.758417 -1.42624 
2203 1 12.2545 1.73173 13.6277 -7.94219 0.0559157 0.256148 -0.991408 
2204 1 12.4877 1.72528 18.8681 -7.5877 0.499997 0.41059 -0.631518 
2602 1 9.66836 4.45182 10.8177 -7.60811 -0.353115 -0.820237 0.390583 
2603 1 9.74991 4.36198 16.098 -7.89773 0.791295 0.070266 0.319552 
3103 1 9.61743 4.44708 13.4961 -7.95687 0.418684 0.952086 -0.267393 
3104 1 9.68277 4.35959 18.7762 -7.75251 0.465782 0.123053 0.0625748 
3702 1 12.2644 1.82785 10.8993 -8.09378 0.54425 -0.964449 -0.568678 
3703 1 12.2668 1.79468 16.2016 -7.61876 0.259603 -0.253626 0.591175 
4102 1 9.58547 1.74347 11.0494 -7.49639 0.0734122 0.926078 -1.11686 
4103 1 9.69925 1.51058 16.2088 -7.31841 -0.233296 1.44729 -0.499294 
4703 1 12.3314 4.47549 13.6506 -7.82905 -0.494588 -0.383305 -0.757996 
4704 1 12.4094 4.38861 18.8136 -7.74726 -0.399551 0.943351 -0.309397 
5202 1 12.2727 4.47647 10.8953 -7.76043 0.238693 0.590024 -0.57058 
5203 1 12.4616 4.37031 16.2185 -7.44375 0.480097 0.0243465 0.212403 
5603 1 9.65229 1.84578 13.6653 -7.59588 -0.179978 0.00282154 -0.373149 
5604 1 9.87969 1.74907 18.7202 -7.70407 -0.888456 -0.8142 0.578426 
2123 1 7.04774 6.96045 13.4531 -7.76709 0.317569 -0.289287 -0.00373571 
204 3 11.0334 0.389417 17.4124 -29.2618 0.0699578 0.263669 0.73017 
1203 2 13.5306 0.397056 14.9355 -25.2447 1.25356 0.174786 -0.40803 
5624 1 9.8804 6.95844 18.7828 -7.74093 -0.517209 0.105176 -0.800426 
3723 1 12.2295 6.9071 16.2436 -7.85203 1.21734 1.5741 -0.250052 
5524 1 4.2282 7.06552 18.7053 -7.82402 0.186451 -0.34212 0.416725 
2023 1 1.6677 7.09993 13.2969 -7.66121 -0.00407927 0.181123 1.27668 
5523 1 4.36393 7.03502 13.5444 -7.54402 0.14648 -0.436415 -1.30478 
143 2 5.71704 11.0432 12.2765 -25.3912 -0.624991 -1.8081 -1.39497 
144 2 5.68818 11.0154 17.5025 -25.3772 0.237186 1.03596 0.525352 
623 3 5.62503 8.28131 14.8966 -29.4616 0.629536 0.996122 -0.539955 
1043 2 2.99902 11.1247 14.8604 -25.092 1.00349 -2.15685 0.018229 
1523 3 2.95447 8.33666 12.1428 -29.4875 0.523609 0.359769 -0.307003 
1524 3 2.9799 8.39068 17.4939 -28.9271 0.13172 -0.350879 -0.644197 
2043 1 1.59143 12.3598 13.4389 -7.97841 0.541524 0.390048 0.38801 
2044 1 1.64648 12.2712 18.8042 -7.48766 -0.229887 0.652532 0.158562 
2522 1 4.04417 9.58149 10.8216 -7.03024 0.705734 0.281294 1.36373 
2523 1 4.38475 9.74736 16.2262 -7.64744 -1.68629 -0.842738 0.175684 
3023 1 4.4708 9.63698 13.5806 -7.39257 -0.405544 -0.101811 -0.665764 
3024 1 4.25702 9.66103 18.9337 -7.85281 0.713088 -0.305445 -0.64856 
3542 1 1.68125 12.2186 10.7728 -7.4699 0.991922 0.481213 -0.00756454 
3543 1 1.63959 12.3642 16.0726 -8.24005 -0.0263031 -0.177726 0.803998 
4042 1 4.45225 12.2669 10.7528 -7.69543 -0.920381 0.342531 0.843936 
4043 1 4.42342 12.4341 16.1641 -8.03379 -0.474214 0.628263 0.438728 
4523 1 1.7384 9.82162 13.582 -7.8144 -0.720012 -0.981791 -0.87852 
4524 1 1.63228 9.65189 18.7392 -7.55007 0.250662 -0.633833 0.745165 
5022 1 1.44682 9.66911 10.9352 -7.2407 -1.07606 -0.668506 -0.456693 
5023 1 1.64657 9.59354 16.1667 -7.73094 0.400432 0.325129 -0.0473904 
5543 1 4.44575 12.2487 13.5958 -8.03881 -2.43204 2.13796 -0.994769 
5544 1 4.39871 12.3343 18.9085 -7.69083 -0.106451 -0.276839 -0.362913 
5123 1 6.92991 9.75449 16.211 -7.45481 1.44751 -1.48426 -0.0687017 
5122 1 6.81525 9.65518 10.858 -7.79838 0.269518 -0.263332 -0.0163226 
4624 1 6.99093 9.67579 18.8659 -7.71304 -0.0689204 0.293566 -0.579065 
2143 1 6.9177 12.327 13.5242 -7.33231 2.15161 0.889569 0.0778604 
1544 2 3.03694 13.6124 17.51 -25.3441 0.00908449 1.12503 0.518252 
1543 2 3.01143 13.6204 12.1654 -25.2728 0.803 0.0761104 -1.10665 
1723 3 13.6342 8.46347 12.08 -29.1816 1.19676 0.765286 1.34735 
3123 1 9.78118 9.83116 13.3942 -7.33734 0.42454 -0.249355 0.663259 
723 3 10.9575 8.37263 14.8796 -29.2935 0.754633 0.552468 -0.911913 
1143 3 8.39738 11.0281 14.863 -29.4332 -0.263684 0.282436 -0.382096 
5623 1 9.76233 7.21734 13.6132 -7.42398 -1.12105 -0.868755 -0.948976 
2224 1 12.5494 7.21207 18.7808 -7.6312 -0.120824 -1.96761 -0.543595 
3722 1 12.4105 7.25129 10.9538 -8.26413 -0.541986 -0.77049 -0.719279 
4122 1 9.71945 7.03282 11.0291 -7.6826 -0.774171 1.70531 -1.7551 
5644 1 9.87816 12.4714 18.7856 -7.29682 -0.730166 -1.27503 0.402918 
5643 1 9.63232 12.3773 13.3213 -7.84237 0.0537027 0.579033 0.159171 
2244 1 12.4956 12.3796 18.7798 -7.21966 -1.07123 0.117768 1.05895 
4623 1 7.19653 9.65045 13.6811 -7.67343 -0.893357 0.183341 -0.573548 
3642 1 7.07339 12.2754 10.8884 -7.60533 0.329713 1.02174 0.6476 
244 2 11.1106 10.9889 17.4643 -25.6138 -0.558677 1.15928 0.125982 
243 3 11.0069 11.167 12.0788 -28.6817 0.225056 -0.553419 0.678128 
3124 1 9.6926 9.63573 18.8235 -7.67209 0.522895 0.531959 0.221852 
4724 1 12.4904 9.6943 18.6588 -7.57378 -0.770657 0.818616 0.12792 
4123 1 9.62597 7.11273 16.0483 -7.7403 -0.172088 -0.968907 1.48333 
4723 1 12.4797 9.81461 13.38 -7.31635 -0.324998 -0.436086 -1.38682 
5223 1 12.3233 9.73818 15.9173 -7.89885 -0.387 -1.68203 1.58086 
3643 1 7.0887 12.3518 16.0828 -7.42499 -0.268422 0.479714 1.0312 
2144 1 7.11213 12.4674 18.9207 -7.38683 -0.43439 -1.47322 -1.39175 
5222 1 12.3726 9.86429 10.7256 -8.22454 -0.324147 0.168354 -0.44229 
2622 1 9.55209 9.80868 10.8109 -8.24836 0.956302 0.664059 0.0524927 
2243 1 12.2871 12.4579 13.5978 -8.20157 0.399149 0.0260418 -2.29076 
2223 1 12.3107 7.10118 13.6761 -7.43751 0.624647 0.49112 -0.523258 
1624 2 8.3205 8.32641 17.4133 -25.3038 -0.134334 -0.0903139 0.816869 
1623 2 8.29687 8.48735 12.1969 -25.3944 0.779109 -1.27373 0.193883 
4143 1 9.71385 12.3333 16.0633 -7.42221 0.592588 -0.275756 -0.261111 
4142 1 9.76958 12.6634 10.6534 -8.07856 -0.614326 -1.41277 0.1871 
3743 1 12.504 12.3537 16.2142 -7.60291 -0.714417 1.16495 -0.00149129 
3742 1 12.2924 12.4378 10.7768 -7.74666 1.05765 -1.24626 0.919962 
2623 1 9.68078 9.7101 16.1499 -7.91523 -0.274935 -0.198221 -0.373793 
1743 3 13.6268 13.6112 12.1413 -28.7139 0.360284 0.579591 -0.661677 
105 3 5.66253 0.38178 22.7321 -29.4123 -0.294335 -0.3246 0.755461 
125 2 5.60995 5.6767 22.7502 -25.1073 2.37404 0.415542 -0.608397 
604 3 5.69766 3.06959 20.1026 -28.7176 0.0473784 -0.177693 -0.0880471 
605 2 5.75293 3.0586 25.4742 -25.2872 -1.37321 -0.334474 -0.00254144 
1024 3 3.04732 5.68599 19.9483 -28.8047 -0.331004 -0.179295 1.37792 
1025 3 3.03102 5.67373 25.3521 -29.0838 -0.991787 -0.156219 0.470345 
1505 2 2.9576 3.0766 22.769 -25.469 0.663281 -1.42983 -1.36569 
2005 1 1.50995 1.75746 24.0319 -7.47397 0.686424 -0.241143 -0.947021 
2504 1 4.41059 4.30419 21.3278 -7.68 -0.141818 -0.786872 -0.0601173 
2505 1 4.34078 4.48027 26.6763 -7.611 0.327162 -2.02188 -0.103429 
3005 1 4.40958 4.39609 23.953 -8.12573 -0.800006 -1.3032 1.96291 
3504 1 1.6324 1.63251 21.3957 -7.75262 0.874234 0.506872 -0.0949545 
3505 1 1.65221 1.42795 26.6121 -7.88199 0.398318 0.725603 0.21094 
4004 1 4.32143 1.57301 21.5295 -7.85095 0.05914 0.382804 -0.47358 
4005 1 4.47665 1.61628 26.9596 -7.42937 -0.0326541 1.66723 -1.21644 
4505 1 1.71811 4.38706 23.9836 -7.77894 -0.600546 0.949321 0.816233 
5004 1 1.73111 4.41616 21.3222 -7.77408 -0.574581 -0.311744 -0.529049 
5005 1 1.62531 4.14764 26.7027 -7.62933 0.526213 -0.0550629 0.144402 
5505 1 4.08743 1.56169 24.1675 -7.34559 0.646999 1.03541 0.276513 
4025 1 4.25467 6.95362 26.6873 -7.60287 -0.219473 0.945951 0.377191 
2025 1 1.58779 7.01035 24.2278 -7.46224 0.10749 -0.421675 -0.23557 
5 3 0.385315 0.43058 22.7428 -30.1917 -1.27414 -1.52619 -0.0367009 
2105 1 6.75665 1.75254 24.0226 -7.48643 1.1352 -0.318484 -0.780667 
4024 1 4.28044 6.903 21.5117 -7.75391 0.0333546 0.31463 -1.94993 
3525 1 1.58604 6.78579 26.8428 -7.85627 0.743337 0.97103 0.802419 
3625 1 7.00302 7.00246 26.8051 -7.35881 0.211419 -0.253234 0.0762563 
3605 1 7.15346 1.70175 26.5654 -7.42476 -0.141851 -0.238446 0.42346 
2125 1 7.08881 6.94198 24.166 -7.76723 -0.641622 0.653833 -0.52625 
5104 1 7.10971 4.37033 21.3823 -7.66146 -1.18065 -0.706854 0.377568 
1706 2 13.606 2.94171 28.0514 -25.8646 0.848444 0.094344 -0.231288 
3604 1 7.02121 1.6895 21.4411 -7.48869 -0.797126 0.918712 -0.814817 
5105 1 7.11791 4.37008 26.8761 -7.96987 0.0233724 -0.261331 -1.5812 
4605 1 7.12775 4.38034 24.1595 -7.71534 0.153376 -0.111456 0.197544 
225 3 11.0735 5.54448 22.7799 -28.7903 -0.0306678 1.0527 0.0396185 
704 2 11.0659 3.04773 20.1166 -25.4257 0.174288 0.421468 -0.563638 
705 3 10.8595 2.89952 25.467 -28.8143 1.74638 0.794978 1.25652 
1124 2 8.44968 5.72426 20.1532 -25.585 -0.779425 -0.281352 -1.81917 
1125 3 8.44333 5.71605 25.5424 -28.8759 -0.571511 -0.495867 -0.215924 
1605 2 8.35999 3.01733 22.8022 -25.2603 -0.767872 -0.0171808 -0.334078 
2205 1 12.2539 1.8458 24.2806 -7.75279 -0.126637 0.379127 -1.10173 
2604 1 9.69592 4.43931 21.5055 -7.8707 1.19885 -1.02121 0.299054 
2605 1 9.78534 4.33817 26.7646 -7.89978 -0.00384551 -0.533335 -0.695669 
3105 1 9.84502 4.19256 24.1423 -7.79988 -0.511591 0.270246 -0.188875 
3704 1 12.238 1.69601 21.4902 -7.90987 1.0417 0.726873 0.837197 
3705 1 12.3464 1.50437 26.8651 -7.50067 -0.941452 0.241495 0.0579893 
4104 1 9.60056 1.72188 21.3639 -7.71322 0.408935 0.764071 0.673541 
4105 1 9.66 1.61507 26.8963 -7.66669 1.27461 0.165928 -1.45766 
4705 1 12.4332 4.54572 24.1539 -7.7897 -0.232601 -0.92854 -1.46143 
5204 1 12.4002 4.38536 21.4226 -7.91618 -0.216549 -0.11042 0.852892 
5205 1 12.4483 4.16488 26.709 -7.40776 -1.18453 0.764909 -0.227037 
5605 1 9.62536 1.6276 24.188 -8.55274 -1.16356 0.00894691 0.315786 
5625 1 9.78817 6.85403 24.1219 -8.23592 -0.840473 -0.471506 0.393663 
3624 1 7.07086 7.01212 21.3539 -7.84456 -0.445129 0.139504 1.86344 
205 2 10.9551 0.426055 22.8552 -25.1662 0.477635 -0.515751 -1.29698 
1104 3 8.32266 0.439116 20.0895 -29.4285 -0.072113 -0.628507 0.568479 
1204 3 13.5707 0.378289 20.086 -29.4862 1.51669 0.180837 0.739201 
3725 1 12.2933 6.83373 26.6555 -8.07016 -0.485327 0.364911 0.0187956 
4124 1 9.82703 7.01817 21.4363 -7.84832 0.281724 0.0487548 0.813998 
3724 1 12.5241 6.99865 21.3599 -7.85996 -0.606516 0.110198 1.16188 
4125 1 9.60437 6.92793 26.9156 -7.87619 1.03851 1.16218 -1.83602 
1225 3 13.6063 5.7589 25.2562 -28.9794 1.03746 -0.963455 1.49509 
1705 2 13.6305 3.04805 22.8715 -25.3091 0.964256 -0.632387 -0.387678 
5525 1 4.23013 7.07522 24.0672 -7.89732 0.578468 -0.879874 0.309652 
3524 1 1.6494 7.08532 21.5584 -7.33216 -0.835209 -1.02328 -0.786282 
145 2 5.69448 10.9063 22.9134 -25.4694 0.80672 0.897902 -1.04791 
624 2 5.66782 8.27511 20.1231 -25.3578 -0.441685 0.232436 0.113452 
625 2 5.58394 8.26077 25.4813 -25.5862 1.72059 0.982572 0.76247 
1044 2 3.02928 10.8944 20.2702 -25.239 -0.368971 1.46839 -0.84184 
1045 3 3.05364 11.1078 25.4954 -28.6138 0.0427137 -1.92731 0.170462 
1525 3 3.01057 8.30434 22.8068 -29.4074 -1.36066 -0.460254 0.528485 
2045 1 1.68869 12.3074 24.1319 -8.30264 0.721343 0.535938 1.48831 
2524 1 4.33132 9.493 21.6444 -8.08356 0.210616 1.14255 -0.573026 
2525 1 4.35309 9.74638 26.9455 -7.4239 -0.781108 -0.936078 -0.672313 
3025 1 4.32196 9.64547 24.2864 -7.5215 -0.479711 0.540832 -0.212266 
3544 1 1.79667 12.2885 21.5648 -7.4709 -0.101799 0.29758 -0.799088 
3545 1 1.71449 12.3442 26.89 -8.05136 0.0376011 -1.35531 -1.44218 
4044 1 4.48255 12.3672 21.5526 -7.58835 -0.591794 -1.41009 -0.152911 
4045 1 4.43191 12.3277 26.8407 -8.00068 -0.356648 0.7021 -0.747423 
4525 1 1.71871 9.62397 24.1902 -7.29534 0.201372 0.491904 -0.749671 
5024 1 1.62465 9.6143 21.4977 -7.74047 0.971097 -0.246893 -0.705257 
5025 1 1.62516 9.59754 26.7363 -7.70792 1.53963 -0.631036 -0.231471 
5545 1 4.45859 12.2491 24.1465 -8.02443 -1.75598 1.28041 1.4744 
644 3 5.66626 13.6322 20.2645 -29.641 0.890873 0.510376 -0.893358 
45 2 0.428076 10.9419 22.7636 -25.5594 -1.29774 0.0256419 0.993107 
1546 3 3.00242 13.5359 27.9993 -29.0783 0.985181 1.02955 1.51258 
2145 1 7.01295 12.4177 24.3394 -7.66546 0.194444 -0.0954757 0.293334 
4625 1 6.99863 9.70707 24.182 -7.40016 0.161939 -1.02353 0.797137 
645 3 5.71642 13.6575 25.5116 -29.0212 0.586673 0.105581 0.199095 
1245 3 13.5577 10.8509 25.5444 -29.1403 -0.155789 0.355101 -1.61676 
1725 3 13.6656 8.27764 22.7697 -29.0171 0.318107 0.510067 -0.562204 
2225 1 12.3343 7.06466 24.0258 -7.96869 0.32832 0.595283 -0.430589 
3645 1 7.18346 12.2782 27.1423 -7.39702 -0.559833 -0.288458 -1.47948 
3644 1 7.06573 12.3751 21.5327 -7.10982 -0.770061 -0.229446 0.85292 
5124 1 7.09301 9.69164 21.5041 -7.3661 -0.764119 -0.552771 0.156486 
245 3 11.0413 10.9263 22.7661 -29.4715 -0.82667 0.758072 0.402388 
724 2 11.1996 8.29864 20.1544 -25.3613 -1.30433 1.23703 -1.02521 
725 2 10.9633 8.26236 25.3781 -24.5771 1.20387 0.145507 1.57565 
1144 2 8.34714 11.0411 20.1566 -25.8974 1.255 0.300846 0.637524 
1145 2 8.38109 11.0476 25.5868 -25.7255 -0.45849 -0.62313 0.178676 
1625 2 8.43728 8.23855 22.8154 -25.4749 -0.71326 0.999144 -0.190803 
2245 1 12.3066 12.1536 24.143 -7.66763 -0.333929 1.26821 -0.375881 
2624 1 9.78288 9.69197 21.6117 -7.26615 -0.284388 -0.571805 -0.952922 
2625 1 9.71598 9.71502 26.9375 -8.20291 0.737138 -0.830379 -0.946855 
3125 1 9.61262 9.55474 24.2336 -7.68808 0.597698 0.0395076 0.474213 
3744 1 12.3528 12.391 21.4148 -7.89609 -1.4289 -1.73726 -0.44612 
3745 1 12.3007 12.2114 26.7174 -7.55702 0.934066 -0.719782 -0.239249 
4144 1 9.64583 12.3264 21.6033 -7.05875 1.32551 -0.142041 -1.20573 
4145 1 9.777 12.3761 26.8459 -7.56307 0.0744661 -0.0349205 0.0708041 
4725 1 12.2918 9.70004 24.0019 -7.77446 -0.139884 -1.5859 1.20134 
5125 1 7.06261 9.55959 26.9122 -7.30707 0.191611 0.681637 -0.1553 
5224 1 12.3076 9.77905 21.3637 -7.82756 1.03488 -0.445616 0.227784 
5225 1 12.3604 9.47792 26.8943 -8.26916 -0.916713 0.304751 -1.21314 
5645 1 9.65631 12.1973 24.1496 -7.50662 0.851743 1.03084 0.770588 
745 3 11.0701 13.5277 25.4272 -29.3226 -0.351425 0.285891 0.435395 
1745 2 13.6182 13.441 22.7508 -25.3105 0.520947 2.70291 1.31336 
1506 2 3.01141 2.90543 28.1342 -25.2431 -0.346865 -0.0226861 -1.44117 
126 2 5.83062 5.63394 28.1376 -25.5244 -2.37178 0.833485 -0.0321083 
27 3 0.515878 5.63597 33.3426 -28.7665 -1.34711 0.54364 -0.823287 
127 2 5.61636 5.67515 33.3979 -25.3705 0.700726 -0.928271 -0.0182725 
606 2 5.64365 2.8694 30.7971 -25.2811 0.114804 0.31964 -1.09955 
607 2 5.60691 2.94275 36.0435 -25.5803 1.01065 0.673001 0.439013 
1026 3 3.10221 5.50374 30.757 -29.0565 -0.984957 1.74774 -0.399987 
1027 3 3.05787 5.64911 36.0847 -29.5222 -0.338144 0.0646566 0.14985 
1507 2 2.87818 2.92307 33.2752 -25.0908 1.05815 1.65143 -0.0744694 
2006 1 1.48524 1.6948 29.2806 -7.72183 1.16377 0.00142022 -0.425687 
2007 1 1.64277 1.87515 34.6037 -7.71073 -0.607829 -1.73137 0.708885 
2506 1 4.25072 4.32445 32.143 -8.12948 0.313559 -0.274202 -0.984343 
3006 1 4.33614 4.17602 29.3798 -8.27468 0.333198 0.819919 0.940744 
3007 1 4.29882 4.33294 34.8109 -7.41328 -0.419224 0.18369 -0.376333 
3506 1 1.49629 1.56902 31.9579 -7.37373 1.45623 -0.312774 -0.0255529 
4006 1 4.1923 1.62476 32.0286 -7.8021 0.288204 -0.337069 0.861125 
4506 1 1.62567 4.47261 29.3395 -7.73098 0.269172 -1.14971 -0.617259 
4507 1 1.659 4.5653 34.6245 -7.70433 -0.141549 -0.381694 -0.424668 
5006 1 1.6169 4.24116 31.8827 -7.85483 0.810825 0.549469 1.04093 
5506 1 4.22675 1.46035 29.4955 -7.38853 0.0795298 0.878148 0.20042 
5507 1 4.34551 1.66731 34.7089 -7.7964 -0.459226 -0.852645 -1.45722 
3606 1 6.9602 1.52632 31.9396 -7.84949 0.560997 -0.0887923 1.42203 
2106 1 6.97242 1.67569 29.2309 -7.42236 -0.467509 -0.176054 0.612923 
2107 1 6.97397 1.44162 34.7817 -7.7781 0.415421 0.441015 -0.764201 
1007 2 2.92108 0.382487 35.914 -25.2542 0.991155 -1.29444 0.205916 
5106 1 6.97666 4.2431 32.1306 -7.69648 0.393016 0.497941 -0.364574 
2026 1 1.80852 6.96602 29.7432 -7.28346 0.244155 -0.336813 -1.606 
3526 1 1.72973 6.93249 32.2757 -7.44984 0.241922 -0.579887 1.27909 
4607 1 6.97276 4.19204 34.7116 -7.60313 0.131137 0.72567 0.697273 
2126 1 6.92357 6.90971 29.5722 -7.3987 1.54077 1.37868 -0.511074 
5527 1 4.43028 6.97529 34.7004 -7.96955 -0.89743 0.466219 0.284936 
4026 1 4.28323 6.94413 32.0332 -7.6579 0.240961 -0.0436388 0.116854 
2127 1 7.00489 6.96607 34.6983 -7.74172 0.426317 0.355158 -0.316789 
4606 1 7.08298 4.31322 29.4834 -7.36375 -0.968529 -0.486096 0.709066 
1606 2 8.38868 3.01805 28.1336 -25.7887 0.778379 -0.737931 -0.115355 
226 3 11.059 5.54531 28.0755 -29.2964 -0.228377 0.331127 -0.0678964 
2226 1 12.4197 6.83907 29.3172 -7.74146 -1.93493 0.901654 -0.341341 
227 2 11.0403 5.78783 33.3982 -25.1757 0.379916 -1.12436 0.629163 
706 2 11.1874 2.95696 30.8715 -25.5494 -0.74955 0.509716 -0.62079 
707 2 11.0689 2.99549 36.1171 -25.1421 -0.266446 -0.166079 -0.892523 
1126 2 8.40424 5.66112 30.7961 -25.48 -0.682481 -0.321495 -0.155783 
1127 2 8.34078 5.68394 36.0859 -25.335 -0.248586 -0.0339437 -0.602501 
1607 2 8.32967 2.93344 33.4763 -25.1956 0.522216 -0.361682 -0.99374 
2206 1 12.3564 1.62277 29.5727 -7.31115 -1.18062 -0.397721 -0.517697 
2207 1 12.5599 1.57644 34.8249 -8.01634 -0.283478 1.04424 0.795223 
2606 1 9.83771 4.2456 32.0937 -7.80991 -0.737113 1.06042 0.159876 
3106 1 9.67391 4.41982 29.3636 -7.25469 1.04447 -0.380057 0.596741 
3107 1 9.68025 4.43462 34.7551 -7.76658 0.433096 -0.25963 -0.0841209 
3706 1 12.5526 1.73614 32.2939 -7.70464 -1.10219 -0.937172 -0.7437 
4106 1 9.82342 1.58505 32.0973 -7.67539 -0.513974 -0.43751 0.84042 
4706 1 12.3305 4.30606 29.3884 -7.55749 -0.453541 -0.263902 0.408095 
4707 1 12.4578 4.39011 34.7098 -7.42759 -0.478171 -0.722744 0.386889 
5206 1 12.5937 4.36725 32.1634 -7.5553 -1.03811 0.874482 -0.872102 
5606 1 9.70955 1.70858 29.4735 -7.19741 0.201221 -0.20005 0.20588 
5607 1 9.73137 1.65508 34.774 -8.21529 0.194086 -0.236081 0.438144 
5626 1 9.65692 6.9886 29.385 -7.85593 0.77342 1.93284 1.60277 
4126 1 9.64169 7.00417 32.1028 -8.27998 -0.154761 0.336334 0.000716011 
526 3 0.543384 8.22572 30.769 -29.9091 -1.13023 0.0663517 0.629848 
1526 2 2.94961 8.19568 28.128 -25.5509 0.696522 0.389506 -0.274742 
2027 1 1.83052 7.14188 34.9564 -7.82929 0.0294987 -0.277357 -0.750101 
527 3 0.450907 8.22975 35.9064 -28.8125 -0.274631 1.17023 0.704772 