# LAMMPS data file

6000 atoms
4 atom types

0.0 26.789730072 xlo xhi
0.0 46.5447616577 ylo yhi
0.0 49.9407077933 zlo zhi
0.0 -9.1225643158 0.0 xy xz yz

Masses

1   6.941  # Li
2 118.71   # Sn
3  15.9994 # O
4  58.6934 # Ni

Atoms  # charge

1 1 0.0 2.127255137 5.384298107 9.979142405
2 1 0.0 0.302742383 5.384298107 19.967283368
3 1 0.0 -1.521770372 5.384298107 29.955424331
4 1 0.0 -3.34628367 5.384298107 39.943568271
5 1 0.0 -5.170796424 5.384298107 49.931709235
6 1 0.0 2.127255137 14.69325023 9.979142405
7 1 0.0 0.302742383 14.69325023 19.967283368
8 1 0.0 -1.521770372 14.69325023 29.955424331
9 1 0.0 -3.34628367 14.69325023 39.943568271
10 1 0.0 -5.170796424 14.69325023 49.931709235
11 1 0.0 2.127255137 24.002203394 9.979142405
12 1 0.0 0.302742383 24.002203394 19.967283368
13 1 0.0 -1.521770372 24.002203394 29.955424331
14 1 0.0 -3.34628367 24.002203394 39.943568271
15 1 0.0 -5.170796424 24.002203394 49.931709235
16 1 0.0 2.127255137 33.311155171 9.979142405
17 1 0.0 0.302742383 33.311155171 19.967283368
18 1 0.0 -1.521770372 33.311155171 29.955424331
19 1 0.0 -3.34628367 33.311155171 39.943568271
20 1 0.0 -5.170796424 33.311155171 49.931709235
21 1 0.0 2.127255137 42.620106947 9.979142405
22 1 0.0 0.302742383 42.620106947 19.967283368
23 1 0.0 -1.521770372 42.620106947 29.955424331
24 1 0.0 -3.34628367 42.620106947 39.943568271
25 1 0.0 -5.170796424 42.620106947 49.931709235
26 1 0.0 7.485200832 5.384298107 9.979142405
27 1 0.0 5.660688078 5.384298107 19.967283368
28 1 0.0 3.836175323 5.384298107 29.955424331
29 1 0.0 2.011662025 5.384298107 39.943568271
30 1 0.0 0.187149271 5.384298107 49.931709235
31 1 0.0 7.485200832 14.69325023 9.979142405
32 1 0.0 5.660688078 14.69325023 19.967283368
33 1 0.0 3.836175323 14.69325023 29.955424331
34 1 0.0 2.011662025 14.69325023 39.943568271
35 1 0.0 0.187149271 14.69325023 49.931709235
36 1 0.0 7.485200832 24.002203394 9.979142405
37 1 0.0 5.660688078 24.002203394 19.967283368
38 1 0.0 3.836175323 24.002203394 29.955424331
39 1 0.0 2.011662025 24.002203394 39.943568271
40 1 0.0 0.187149271 24.002203394 49.931709235
41 1 0.0 7.485200832 33.311155171 9.979142405
42 1 0.0 5.660688078 33.311155171 19.967283368
43 1 0.0 3.836175323 33.311155171 29.955424331
44 1 0.0 2.011662025 33.311155171 39.943568271
45 1 0.0 0.187149271 33.311155171 49.931709235
46 1 0.0 7.485200832 42.620106947 9.979142405
47 1 0.0 5.660688078 42.620106947 19.967283368
48 1 0.0 3.836175323 42.620106947 29.955424331
49 1 0.0 2.011662025 42.620106947 39.943568271
50 1 0.0 0.187149271 42.620106947 49.931709235
51 1 0.0 12.843146527 5.384298107 9.979142405
52 1 0.0 11.018633773 5.384298107 19.967283368
53 1 0.0 9.194121018 5.384298107 29.955424331
54 1 0.0 7.36960772 5.384298107 39.943568271
55 1 0.0 5.545094966 5.384298107 49.931709235
56 1 0.0 12.843146527 14.69325023 9.979142405
57 1 0.0 11.018633773 14.69325023 19.967283368
58 1 0.0 9.194121018 14.69325023 29.955424331
59 1 0.0 7.36960772 14.69325023 39.943568271
60 1 0.0 5.545094966 14.69325023 49.931709235
61 1 0.0 12.843146527 24.002203394 9.979142405
62 1 0.0 11.018633773 24.002203394 19.967283368
63 1 0.0 9.194121018 24.002203394 29.955424331
64 1 0.0 7.36960772 24.002203394 39.943568271
65 1 0.0 5.545094966 24.002203394 49.931709235
66 1 0.0 12.843146527 33.311155171 9.979142405
67 1 0.0 11.018633773 33.311155171 19.967283368
68 1 0.0 9.194121018 33.311155171 29.955424331
69 1 0.0 7.36960772 33.311155171 39.943568271
70 1 0.0 5.545094966 33.311155171 49.931709235
71 1 0.0 12.843146527 42.620106947 9.979142405
72 1 0.0 11.018633773 42.620106947 19.967283368
73 1 0.0 9.194121018 42.620106947 29.955424331
74 1 0.0 7.36960772 42.620106947 39.943568271
75 1 0.0 5.545094966 42.620106947 49.931709235
76 1 0.0 18.201093819 5.384298107 9.979142405
77 1 0.0 16.376581065 5.384298107 19.967283368
78 1 0.0 14.55206831 5.384298107 29.955424331
79 1 0.0 12.727555012 5.384298107 39.943568271
80 1 0.0 10.903042258 5.384298107 49.931709235
81 1 0.0 18.201093819 14.69325023 9.979142405
82 1 0.0 16.376581065 14.69325023 19.967283368
83 1 0.0 14.55206831 14.69325023 29.955424331
84 1 0.0 12.727555012 14.69325023 39.943568271
85 1 0.0 10.903042258 14.69325023 49.931709235
86 1 0.0 18.201093819 24.002203394 9.979142405
87 1 0.0 16.376581065 24.002203394 19.967283368
88 1 0.0 14.55206831 24.002203394 29.955424331
89 1 0.0 12.727555012 24.002203394 39.943568271
90 1 0.0 10.903042258 24.002203394 49.931709235
91 1 0.0 18.201093819 33.311155171 9.979142405
92 1 0.0 16.376581065 33.311155171 19.967283368
93 1 0.0 14.55206831 33.311155171 29.955424331
94 1 0.0 12.727555012 33.311155171 39.943568271
95 1 0.0 10.903042258 33.311155171 49.931709235
96 1 0.0 18.201093819 42.620106947 9.979142405
97 1 0.0 16.376581065 42.620106947 19.967283368
98 1 0.0 14.55206831 42.620106947 29.955424331
99 1 0.0 12.727555012 42.620106947 39.943568271
100 1 0.0 10.903042258 42.620106947 49.931709235
101 1 0.0 23.559039514 5.384298107 9.979142405
102 1 0.0 21.73452676 5.384298107 19.967283368
103 1 0.0 19.910014005 5.384298107 29.955424331
104 1 0.0 18.085500707 5.384298107 39.943568271
105 1 0.0 16.260987953 5.384298107 49.931709235
106 1 0.0 23.559039514 14.69325023 9.979142405
107 1 0.0 21.73452676 14.69325023 19.967283368
108 1 0.0 19.910014005 14.69325023 29.955424331
109 1 0.0 18.085500707 14.69325023 39.943568271
110 1 0.0 16.260987953 14.69325023 49.931709235
111 1 0.0 23.559039514 24.002203394 9.979142405
112 1 0.0 21.73452676 24.002203394 19.967283368
113 1 0.0 19.910014005 24.002203394 29.955424331
114 1 0.0 18.085500707 24.002203394 39.943568271
115 1 0.0 16.260987953 24.002203394 49.931709235
116 1 0.0 23.559039514 33.311155171 9.979142405
117 1 0.0 21.73452676 33.311155171 19.967283368
118 1 0.0 19.910014005 33.311155171 29.955424331
119 1 0.0 18.085500707 33.311155171 39.943568271
120 1 0.0 16.260987953 33.311155171 49.931709235
121 1 0.0 23.559039514 42.620106947 9.979142405
122 1 0.0 21.73452676 42.620106947 19.967283368
123 1 0.0 19.910014005 42.620106947 29.955424331
124 1 0.0 18.085500707 42.620106947 39.943568271
125 1 0.0 16.260987953 42.620106947 49.931709235
126 1 0.0 0.49392149 5.384298107 5.003069784
127 1 0.0 -1.3305914 5.384298107 14.991211492
128 1 0.0 -3.155104155 5.384298107 24.979352455
129 1 0.0 -4.979616909 5.384298107 34.967493418
130 1 0.0 -6.804130207 5.384298107 44.955637359
131 1 0.0 0.49392149 14.69325023 5.003069784
132 1 0.0 -1.3305914 14.69325023 14.991211492
133 1 0.0 -3.155104155 14.69325023 24.979352455
134 1 0.0 -4.979616909 14.69325023 34.967493418
135 1 0.0 -6.804130207 14.69325023 44.955637359
136 1 0.0 0.49392149 24.002203394 5.003069784
137 1 0.0 -1.3305914 24.002203394 14.991211492
138 1 0.0 -3.155104155 24.002203394 24.979352455
139 1 0.0 -4.979616909 24.002203394 34.967493418
140 1 0.0 -6.804130207 24.002203394 44.955637359
141 1 0.0 0.49392149 33.311155171 5.003069784
142 1 0.0 -1.3305914 33.311155171 14.991211492
143 1 0.0 -3.155104155 33.311155171 24.979352455
144 1 0.0 -4.979616909 33.311155171 34.967493418
145 1 0.0 -6.804130207 33.311155171 44.955637359
146 1 0.0 0.49392149 42.620106947 5.003069784
147 1 0.0 -1.3305914 42.620106947 14.991211492
148 1 0.0 -3.155104155 42.620106947 24.979352455
149 1 0.0 -4.979616909 42.620106947 34.967493418
150 1 0.0 -6.804130207 42.620106947 44.955637359
151 1 0.0 5.851867784 5.384298107 5.003069784
152 1 0.0 4.027354894 5.384298107 14.991211492
153 1 0.0 2.202842139 5.384298107 24.979352455
154 1 0.0 0.378329385 5.384298107 34.967493418
155 1 0.0 -1.446183913 5.384298107 44.955637359
156 1 0.0 5.851867784 14.69325023 5.003069784
157 1 0.0 4.027354894 14.69325023 14.991211492
158 1 0.0 2.202842139 14.69325023 24.979352455
159 1 0.0 0.378329385 14.69325023 34.967493418
160 1 0.0 -1.446183913 14.69325023 44.955637359
161 1 0.0 5.851867784 24.002203394 5.003069784
162 1 0.0 4.027354894 24.002203394 14.991211492
163 1 0.0 2.202842139 24.002203394 24.979352455
164 1 0.0 0.378329385 24.002203394 34.967493418
165 1 0.0 -1.446183913 24.002203394 44.955637359
166 1 0.0 5.851867784 33.311155171 5.003069784
167 1 0.0 4.027354894 33.311155171 14.991211492
168 1 0.0 2.202842139 33.311155171 24.979352455
169 1 0.0 0.378329385 33.311155171 34.967493418
170 1 0.0 -1.446183913 33.311155171 44.955637359
171 1 0.0 5.851867784 42.620106947 5.003069784
172 1 0.0 4.027354894 42.620106947 14.991211492
173 1 0.0 2.202842139 42.620106947 24.979352455
174 1 0.0 0.378329385 42.620106947 34.967493418
175 1 0.0 -1.446183913 42.620106947 44.955637359
176 1 0.0 11.209813479 5.384298107 5.003069784
177 1 0.0 9.385300589 5.384298107 14.991211492
178 1 0.0 7.560787834 5.384298107 24.979352455
179 1 0.0 5.73627508 5.384298107 34.967493418
180 1 0.0 3.911761782 5.384298107 44.955637359
181 1 0.0 11.209813479 14.69325023 5.003069784
182 1 0.0 9.385300589 14.69325023 14.991211492
183 1 0.0 7.560787834 14.69325023 24.979352455
184 1 0.0 5.73627508 14.69325023 34.967493418
185 1 0.0 3.911761782 14.69325023 44.955637359
186 1 0.0 11.209813479 24.002203394 5.003069784
187 1 0.0 9.385300589 24.002203394 14.991211492
188 1 0.0 7.560787834 24.002203394 24.979352455
189 1 0.0 5.73627508 24.002203394 34.967493418
190 1 0.0 3.911761782 24.002203394 44.955637359
191 1 0.0 11.209813479 33.311155171 5.003069784
192 1 0.0 9.385300589 33.311155171 14.991211492
193 1 0.0 7.560787834 33.311155171 24.979352455
194 1 0.0 5.73627508 33.311155171 34.967493418
195 1 0.0 3.911761782 33.311155171 44.955637359
196 1 0.0 11.209813479 42.620106947 5.003069784
197 1 0.0 9.385300589 42.620106947 14.991211492
198 1 0.0 7.560787834 42.620106947 24.979352455
199 1 0.0 5.73627508 42.620106947 34.967493418
200 1 0.0 3.911761782 42.620106947 44.955637359
201 1 0.0 16.567759972 5.384298107 5.003069784
202 1 0.0 14.743247082 5.384298107 14.991211492
203 1 0.0 12.918734328 5.384298107 24.979352455
204 1 0.0 11.094221573 5.384298107 34.967493418
205 1 0.0 9.269708275 5.384298107 44.955637359
206 1 0.0 16.567759972 14.69325023 5.003069784
207 1 0.0 14.743247082 14.69325023 14.991211492
208 1 0.0 12.918734328 14.69325023 24.979352455
209 1 0.0 11.094221573 14.69325023 34.967493418
210 1 0.0 9.269708275 14.69325023 44.955637359
211 1 0.0 16.567759972 24.002203394 5.003069784
212 1 0.0 14.743247082 24.002203394 14.991211492
213 1 0.0 12.918734328 24.002203394 24.979352455
214 1 0.0 11.094221573 24.002203394 34.967493418
215 1 0.0 9.269708275 24.002203394 44.955637359
216 1 0.0 16.567759972 33.311155171 5.003069784
217 1 0.0 14.743247082 33.311155171 14.991211492
218 1 0.0 12.918734328 33.311155171 24.979352455
219 1 0.0 11.094221573 33.311155171 34.967493418
220 1 0.0 9.269708275 33.311155171 44.955637359
221 1 0.0 16.567759972 42.620106947 5.003069784
222 1 0.0 14.743247082 42.620106947 14.991211492
223 1 0.0 12.918734328 42.620106947 24.979352455
224 1 0.0 11.094221573 42.620106947 34.967493418
225 1 0.0 9.269708275 42.620106947 44.955637359
226 1 0.0 21.925705667 5.384298107 5.003069784
227 1 0.0 20.101192777 5.384298107 14.991211492
228 1 0.0 18.276680023 5.384298107 24.979352455
229 1 0.0 16.452167268 5.384298107 34.967493418
230 1 0.0 14.62765397 5.384298107 44.955637359
231 1 0.0 21.925705667 14.69325023 5.003069784
232 1 0.0 20.101192777 14.69325023 14.991211492
233 1 0.0 18.276680023 14.69325023 24.979352455
234 1 0.0 16.452167268 14.69325023 34.967493418
235 1 0.0 14.62765397 14.69325023 44.955637359
236 1 0.0 21.925705667 24.002203394 5.003069784
237 1 0.0 20.101192777 24.002203394 14.991211492
238 1 0.0 18.276680023 24.002203394 24.979352455
239 1 0.0 16.452167268 24.002203394 34.967493418
240 1 0.0 14.62765397 24.002203394 44.955637359
241 1 0.0 21.925705667 33.311155171 5.003069784
242 1 0.0 20.101192777 33.311155171 14.991211492
243 1 0.0 18.276680023 33.311155171 24.979352455
244 1 0.0 16.452167268 33.311155171 34.967493418
245 1 0.0 14.62765397 33.311155171 44.955637359
246 1 0.0 21.925705667 42.620106947 5.003069784
247 1 0.0 20.101192777 42.620106947 14.991211492
248 1 0.0 18.276680023 42.620106947 24.979352455
249 1 0.0 16.452167268 42.620106947 34.967493418
250 1 0.0 14.62765397 42.620106947 44.955637359
251 1 0.0 4.085150912 8.579130599 0.008999316
252 1 0.0 2.260638024 8.579130599 9.99714101
253 1 0.0 0.43612527 8.579130599 19.985281973
254 1 0.0 -1.388387757 8.579130599 29.973424425
255 1 0.0 -3.212900511 8.579130599 39.961565388
256 1 0.0 4.085150912 17.888082375 0.008999316
257 1 0.0 2.260638024 17.888082375 9.99714101
258 1 0.0 0.43612527 17.888082375 19.985281973
259 1 0.0 -1.388387757 17.888082375 29.973424425
260 1 0.0 -3.212900511 17.888082375 39.961565388
261 1 0.0 4.085150912 27.197035539 0.008999316
262 1 0.0 2.260638024 27.197035539 9.99714101
263 1 0.0 0.43612527 27.197035539 19.985281973
264 1 0.0 -1.388387757 27.197035539 29.973424425
265 1 0.0 -3.212900511 27.197035539 39.961565388
266 1 0.0 4.085150912 36.505987316 0.008999316
267 1 0.0 2.260638024 36.505987316 9.99714101
268 1 0.0 0.43612527 36.505987316 19.985281973
269 1 0.0 -1.388387757 36.505987316 29.973424425
270 1 0.0 -3.212900511 36.505987316 39.961565388
271 1 0.0 4.085150912 45.814939093 0.008999316
272 1 0.0 2.260638024 45.814939093 9.99714101
273 1 0.0 0.43612527 45.814939093 19.985281973
274 1 0.0 -1.388387757 45.814939093 29.973424425
275 1 0.0 -3.212900511 45.814939093 39.961565388
276 1 0.0 9.443097006 8.579130599 0.008999316
277 1 0.0 7.618584118 8.579130599 9.99714101
278 1 0.0 5.794071364 8.579130599 19.985281973
279 1 0.0 3.969558338 8.579130599 29.973424425
280 1 0.0 2.145045583 8.579130599 39.961565388
281 1 0.0 9.443097006 17.888082375 0.008999316
282 1 0.0 7.618584118 17.888082375 9.99714101
283 1 0.0 5.794071364 17.888082375 19.985281973
284 1 0.0 3.969558338 17.888082375 29.973424425
285 1 0.0 2.145045583 17.888082375 39.961565388
286 1 0.0 9.443097006 27.197035539 0.008999316
287 1 0.0 7.618584118 27.197035539 9.99714101
288 1 0.0 5.794071364 27.197035539 19.985281973
289 1 0.0 3.969558338 27.197035539 29.973424425
290 1 0.0 2.145045583 27.197035539 39.961565388
291 1 0.0 9.443097006 36.505987316 0.008999316
292 1 0.0 7.618584118 36.505987316 9.99714101
293 1 0.0 5.794071364 36.505987316 19.985281973
294 1 0.0 3.969558338 36.505987316 29.973424425
295 1 0.0 2.145045583 36.505987316 39.961565388
296 1 0.0 9.443097006 45.814939093 0.008999316
297 1 0.0 7.618584118 45.814939093 9.99714101
298 1 0.0 5.794071364 45.814939093 19.985281973
299 1 0.0 3.969558338 45.814939093 29.973424425
300 1 0.0 2.145045583 45.814939093 39.961565388
301 1 0.0 14.801042701 8.579130599 0.008999316
302 1 0.0 12.976529813 8.579130599 9.99714101
303 1 0.0 11.152017059 8.579130599 19.985281973
304 1 0.0 9.327504033 8.579130599 29.973424425
305 1 0.0 7.502991278 8.579130599 39.961565388
306 1 0.0 14.801042701 17.888082375 0.008999316
307 1 0.0 12.976529813 17.888082375 9.99714101
308 1 0.0 11.152017059 17.888082375 19.985281973
309 1 0.0 9.327504033 17.888082375 29.973424425
310 1 0.0 7.502991278 17.888082375 39.961565388
311 1 0.0 14.801042701 27.197035539 0.008999316
312 1 0.0 12.976529813 27.197035539 9.99714101
313 1 0.0 11.152017059 27.197035539 19.985281973
314 1 0.0 9.327504033 27.197035539 29.973424425
315 1 0.0 7.502991278 27.197035539 39.961565388
316 1 0.0 14.801042701 36.505987316 0.008999316
317 1 0.0 12.976529813 36.505987316 9.99714101
318 1 0.0 11.152017059 36.505987316 19.985281973
319 1 0.0 9.327504033 36.505987316 29.973424425
320 1 0.0 7.502991278 36.505987316 39.961565388
321 1 0.0 14.801042701 45.814939093 0.008999316
322 1 0.0 12.976529813 45.814939093 9.99714101
323 1 0.0 11.152017059 45.814939093 19.985281973
324 1 0.0 9.327504033 45.814939093 29.973424425
325 1 0.0 7.502991278 45.814939093 39.961565388
326 1 0.0 20.158988396 8.579130599 0.008999316
327 1 0.0 18.334475508 8.579130599 9.99714101
328 1 0.0 16.509962754 8.579130599 19.985281973
329 1 0.0 14.685449728 8.579130599 29.973424425
330 1 0.0 12.860936973 8.579130599 39.961565388
331 1 0.0 20.158988396 17.888082375 0.008999316
332 1 0.0 18.334475508 17.888082375 9.99714101
333 1 0.0 16.509962754 17.888082375 19.985281973
334 1 0.0 14.685449728 17.888082375 29.973424425
335 1 0.0 12.860936973 17.888082375 39.961565388
336 1 0.0 20.158988396 27.197035539 0.008999316
337 1 0.0 18.334475508 27.197035539 9.99714101
338 1 0.0 16.509962754 27.197035539 19.985281973
339 1 0.0 14.685449728 27.197035539 29.973424425
340 1 0.0 12.860936973 27.197035539 39.961565388
341 1 0.0 20.158988396 36.505987316 0.008999316
342 1 0.0 18.334475508 36.505987316 9.99714101
343 1 0.0 16.509962754 36.505987316 19.985281973
344 1 0.0 14.685449728 36.505987316 29.973424425
345 1 0.0 12.860936973 36.505987316 39.961565388
346 1 0.0 20.158988396 45.814939093 0.008999316
347 1 0.0 18.334475508 45.814939093 9.99714101
348 1 0.0 16.509962754 45.814939093 19.985281973
349 1 0.0 14.685449728 45.814939093 29.973424425
350 1 0.0 12.860936973 45.814939093 39.961565388
351 1 0.0 25.516935688 8.579130599 0.008999316
352 1 0.0 23.6924228 8.579130599 9.99714101
353 1 0.0 21.867910046 8.579130599 19.985281973
354 1 0.0 20.043397019 8.579130599 29.973424425
355 1 0.0 18.218884265 8.579130599 39.961565388
356 1 0.0 25.516935688 17.888082375 0.008999316
357 1 0.0 23.6924228 17.888082375 9.99714101
358 1 0.0 21.867910046 17.888082375 19.985281973
359 1 0.0 20.043397019 17.888082375 29.973424425
360 1 0.0 18.218884265 17.888082375 39.961565388
361 1 0.0 25.516935688 27.197035539 0.008999316
362 1 0.0 23.6924228 27.197035539 9.99714101
363 1 0.0 21.867910046 27.197035539 19.985281973
364 1 0.0 20.043397019 27.197035539 29.973424425
365 1 0.0 18.218884265 27.197035539 39.961565388
366 1 0.0 25.516935688 36.505987316 0.008999316
367 1 0.0 23.6924228 36.505987316 9.99714101
368 1 0.0 21.867910046 36.505987316 19.985281973
369 1 0.0 20.043397019 36.505987316 29.973424425
370 1 0.0 18.218884265 36.505987316 39.961565388
371 1 0.0 25.516935688 45.814939093 0.008999316
372 1 0.0 23.6924228 45.814939093 9.99714101
373 1 0.0 21.867910046 45.814939093 19.985281973
374 1 0.0 20.043397019 45.814939093 29.973424425
375 1 0.0 18.218884265 45.814939093 39.961565388
376 1 0.0 0.360538803 8.579130599 4.985071179
377 1 0.0 -1.463974088 8.579130599 14.973212886
378 1 0.0 -3.288486842 8.579130599 24.96135385
379 1 0.0 -5.112999868 8.579130599 34.949496301
380 1 0.0 -6.937512623 8.579130599 44.937637265
381 1 0.0 0.360538803 17.888082375 4.985071179
382 1 0.0 -1.463974088 17.888082375 14.973212886
383 1 0.0 -3.288486842 17.888082375 24.96135385
384 1 0.0 -5.112999868 17.888082375 34.949496301
385 1 0.0 -6.937512623 17.888082375 44.937637265
386 1 0.0 0.360538803 27.197035539 4.985071179
387 1 0.0 -1.463974088 27.197035539 14.973212886
388 1 0.0 -3.288486842 27.197035539 24.96135385
389 1 0.0 -5.112999868 27.197035539 34.949496301
390 1 0.0 -6.937512623 27.197035539 44.937637265
391 1 0.0 0.360538803 36.505987316 4.985071179
392 1 0.0 -1.463974088 36.505987316 14.973212886
393 1 0.0 -3.288486842 36.505987316 24.96135385
394 1 0.0 -5.112999868 36.505987316 34.949496301
395 1 0.0 -6.937512623 36.505987316 44.937637265
396 1 0.0 0.360538803 45.814939093 4.985071179
397 1 0.0 -1.463974088 45.814939093 14.973212886
398 1 0.0 -3.288486842 45.814939093 24.96135385
399 1 0.0 -5.112999868 45.814939093 34.949496301
400 1 0.0 -6.937512623 45.814939093 44.937637265
401 1 0.0 5.718484897 8.579130599 4.985071179
402 1 0.0 3.893972007 8.579130599 14.973212886
403 1 0.0 2.069459252 8.579130599 24.96135385
404 1 0.0 0.244946226 8.579130599 34.949496301
405 1 0.0 -1.579566528 8.579130599 44.937637265
406 1 0.0 5.718484897 17.888082375 4.985071179
407 1 0.0 3.893972007 17.888082375 14.973212886
408 1 0.0 2.069459252 17.888082375 24.96135385
409 1 0.0 0.244946226 17.888082375 34.949496301
410 1 0.0 -1.579566528 17.888082375 44.937637265
411 1 0.0 5.718484897 27.197035539 4.985071179
412 1 0.0 3.893972007 27.197035539 14.973212886
413 1 0.0 2.069459252 27.197035539 24.96135385
414 1 0.0 0.244946226 27.197035539 34.949496301
415 1 0.0 -1.579566528 27.197035539 44.937637265
416 1 0.0 5.718484897 36.505987316 4.985071179
417 1 0.0 3.893972007 36.505987316 14.973212886
418 1 0.0 2.069459252 36.505987316 24.96135385
419 1 0.0 0.244946226 36.505987316 34.949496301
420 1 0.0 -1.579566528 36.505987316 44.937637265
421 1 0.0 5.718484897 45.814939093 4.985071179
422 1 0.0 3.893972007 45.814939093 14.973212886
423 1 0.0 2.069459252 45.814939093 24.96135385
424 1 0.0 0.244946226 45.814939093 34.949496301
425 1 0.0 -1.579566528 45.814939093 44.937637265
426 1 0.0 11.076430991 8.579130599 4.985071179
427 1 0.0 9.251918101 8.579130599 14.973212886
428 1 0.0 7.427405346 8.579130599 24.96135385
429 1 0.0 5.60289232 8.579130599 34.949496301
430 1 0.0 3.778379566 8.579130599 44.937637265
431 1 0.0 11.076430991 17.888082375 4.985071179
432 1 0.0 9.251918101 17.888082375 14.973212886
433 1 0.0 7.427405346 17.888082375 24.96135385
434 1 0.0 5.60289232 17.888082375 34.949496301
435 1 0.0 3.778379566 17.888082375 44.937637265
436 1 0.0 11.076430991 27.197035539 4.985071179
437 1 0.0 9.251918101 27.197035539 14.973212886
438 1 0.0 7.427405346 27.197035539 24.96135385
439 1 0.0 5.60289232 27.197035539 34.949496301
440 1 0.0 3.778379566 27.197035539 44.937637265
441 1 0.0 11.076430991 36.505987316 4.985071179
442 1 0.0 9.251918101 36.505987316 14.973212886
443 1 0.0 7.427405346 36.505987316 24.96135385
444 1 0.0 5.60289232 36.505987316 34.949496301
445 1 0.0 3.778379566 36.505987316 44.937637265
446 1 0.0 11.076430991 45.814939093 4.985071179
447 1 0.0 9.251918101 45.814939093 14.973212886
448 1 0.0 7.427405346 45.814939093 24.96135385
449 1 0.0 5.60289232 45.814939093 34.949496301
450 1 0.0 3.778379566 45.814939093 44.937637265
451 1 0.0 16.434376686 8.579130599 4.985071179
452 1 0.0 14.609863796 8.579130599 14.973212886
453 1 0.0 12.785351041 8.579130599 24.96135385
454 1 0.0 10.960838015 8.579130599 34.949496301
455 1 0.0 9.136325261 8.579130599 44.937637265
456 1 0.0 16.434376686 17.888082375 4.985071179
457 1 0.0 14.609863796 17.888082375 14.973212886
458 1 0.0 12.785351041 17.888082375 24.96135385
459 1 0.0 10.960838015 17.888082375 34.949496301
460 1 0.0 9.136325261 17.888082375 44.937637265
461 1 0.0 16.434376686 27.197035539 4.985071179
462 1 0.0 14.609863796 27.197035539 14.973212886
463 1 0.0 12.785351041 27.197035539 24.96135385
464 1 0.0 10.960838015 27.197035539 34.949496301
465 1 0.0 9.136325261 27.197035539 44.937637265
466 1 0.0 16.434376686 36.505987316 4.985071179
467 1 0.0 14.609863796 36.505987316 14.973212886
468 1 0.0 12.785351041 36.505987316 24.96135385
469 1 0.0 10.960838015 36.505987316 34.949496301
470 1 0.0 9.136325261 36.505987316 44.937637265
471 1 0.0 16.434376686 45.814939093 4.985071179
472 1 0.0 14.609863796 45.814939093 14.973212886
473 1 0.0 12.785351041 45.814939093 24.96135385
474 1 0.0 10.960838015 45.814939093 34.949496301
475 1 0.0 9.136325261 45.814939093 44.937637265
476 1 0.0 21.792322381 8.579130599 4.985071179
477 1 0.0 19.967809491 8.579130599 14.973212886
478 1 0.0 18.143296737 8.579130599 24.96135385
479 1 0.0 16.31878371 8.579130599 34.949496301
480 1 0.0 14.494270956 8.579130599 44.937637265
481 1 0.0 21.792322381 17.888082375 4.985071179
482 1 0.0 19.967809491 17.888082375 14.973212886
483 1 0.0 18.143296737 17.888082375 24.96135385
484 1 0.0 16.31878371 17.888082375 34.949496301
485 1 0.0 14.494270956 17.888082375 44.937637265
486 1 0.0 21.792322381 27.197035539 4.985071179
487 1 0.0 19.967809491 27.197035539 14.973212886
488 1 0.0 18.143296737 27.197035539 24.96135385
489 1 0.0 16.31878371 27.197035539 34.949496301
490 1 0.0 14.494270956 27.197035539 44.937637265
491 1 0.0 21.792322381 36.505987316 4.985071179
492 1 0.0 19.967809491 36.505987316 14.973212886
493 1 0.0 18.143296737 36.505987316 24.96135385
494 1 0.0 16.31878371 36.505987316 34.949496301
495 1 0.0 14.494270956 36.505987316 44.937637265
496 1 0.0 21.792322381 45.814939093 4.985071179
497 1 0.0 19.967809491 45.814939093 14.973212886
498 1 0.0 18.143296737 45.814939093 24.96135385
499 1 0.0 16.31878371 45.814939093 34.949496301
500 1 0.0 14.494270956 45.814939093 44.937637265
501 1 0.0 3.106203225 6.981714526 4.994070854
502 1 0.0 1.281690267 6.981714526 14.982212933
503 1 0.0 -0.542822487 6.981714526 24.970353897
504 1 0.0 -2.367335242 6.981714526 34.95849486
505 1 0.0 -4.191847996 6.981714526 44.946635823
506 1 0.0 3.106203225 16.290666303 4.994070854
507 1 0.0 1.281690267 16.290666303 14.982212933
508 1 0.0 -0.542822487 16.290666303 24.970353897
509 1 0.0 -2.367335242 16.290666303 34.95849486
510 1 0.0 -4.191847996 16.290666303 44.946635823
511 1 0.0 3.106203225 25.599619467 4.994070854
512 1 0.0 1.281690267 25.599619467 14.982212933
513 1 0.0 -0.542822487 25.599619467 24.970353897
514 1 0.0 -2.367335242 25.599619467 34.95849486
515 1 0.0 -4.191847996 25.599619467 44.946635823
516 1 0.0 3.106203225 34.908571243 4.994070854
517 1 0.0 1.281690267 34.908571243 14.982212933
518 1 0.0 -0.542822487 34.908571243 24.970353897
519 1 0.0 -2.367335242 34.908571243 34.95849486
520 1 0.0 -4.191847996 34.908571243 44.946635823
521 1 0.0 3.106203225 44.21752302 4.994070854
522 1 0.0 1.281690267 44.21752302 14.982212933
523 1 0.0 -0.542822487 44.21752302 24.970353897
524 1 0.0 -2.367335242 44.21752302 34.95849486
525 1 0.0 -4.191847996 44.21752302 44.946635823
526 1 0.0 8.46414892 6.981714526 4.994070854
527 1 0.0 6.639635962 6.981714526 14.982212933
528 1 0.0 4.815123208 6.981714526 24.970353897
529 1 0.0 2.990610453 6.981714526 34.95849486
530 1 0.0 1.166097699 6.981714526 44.946635823
531 1 0.0 8.46414892 16.290666303 4.994070854
532 1 0.0 6.639635962 16.290666303 14.982212933
533 1 0.0 4.815123208 16.290666303 24.970353897
534 1 0.0 2.990610453 16.290666303 34.95849486
535 1 0.0 1.166097699 16.290666303 44.946635823
536 1 0.0 8.46414892 25.599619467 4.994070854
537 1 0.0 6.639635962 25.599619467 14.982212933
538 1 0.0 4.815123208 25.599619467 24.970353897
539 1 0.0 2.990610453 25.599619467 34.95849486
540 1 0.0 1.166097699 25.599619467 44.946635823
541 1 0.0 8.46414892 34.908571243 4.994070854
542 1 0.0 6.639635962 34.908571243 14.982212933
543 1 0.0 4.815123208 34.908571243 24.970353897
544 1 0.0 2.990610453 34.908571243 34.95849486
545 1 0.0 1.166097699 34.908571243 44.946635823
546 1 0.0 8.46414892 44.21752302 4.994070854
547 1 0.0 6.639635962 44.21752302 14.982212933
548 1 0.0 4.815123208 44.21752302 24.970353897
549 1 0.0 2.990610453 44.21752302 34.95849486
550 1 0.0 1.166097699 44.21752302 44.946635823
551 1 0.0 13.822095414 6.981714526 4.994070854
552 1 0.0 11.997582455 6.981714526 14.982212933
553 1 0.0 10.173069701 6.981714526 24.970353897
554 1 0.0 8.348556947 6.981714526 34.95849486
555 1 0.0 6.524044192 6.981714526 44.946635823
556 1 0.0 13.822095414 16.290666303 4.994070854
557 1 0.0 11.997582455 16.290666303 14.982212933
558 1 0.0 10.173069701 16.290666303 24.970353897
559 1 0.0 8.348556947 16.290666303 34.95849486
560 1 0.0 6.524044192 16.290666303 44.946635823
561 1 0.0 13.822095414 25.599619467 4.994070854
562 1 0.0 11.997582455 25.599619467 14.982212933
563 1 0.0 10.173069701 25.599619467 24.970353897
564 1 0.0 8.348556947 25.599619467 34.95849486
565 1 0.0 6.524044192 25.599619467 44.946635823
566 1 0.0 13.822095414 34.908571243 4.994070854
567 1 0.0 11.997582455 34.908571243 14.982212933
568 1 0.0 10.173069701 34.908571243 24.970353897
569 1 0.0 8.348556947 34.908571243 34.95849486
570 1 0.0 6.524044192 34.908571243 44.946635823
571 1 0.0 13.822095414 44.21752302 4.994070854
572 1 0.0 11.997582455 44.21752302 14.982212933
573 1 0.0 10.173069701 44.21752302 24.970353897
574 1 0.0 8.348556947 44.21752302 34.95849486
575 1 0.0 6.524044192 44.21752302 44.946635823
576 1 0.0 19.180041109 6.981714526 4.994070854
577 1 0.0 17.355528151 6.981714526 14.982212933
578 1 0.0 15.531015396 6.981714526 24.970353897
579 1 0.0 13.706502642 6.981714526 34.95849486
580 1 0.0 11.881989887 6.981714526 44.946635823
581 1 0.0 19.180041109 16.290666303 4.994070854
582 1 0.0 17.355528151 16.290666303 14.982212933
583 1 0.0 15.531015396 16.290666303 24.970353897
584 1 0.0 13.706502642 16.290666303 34.95849486
585 1 0.0 11.881989887 16.290666303 44.946635823
586 1 0.0 19.180041109 25.599619467 4.994070854
587 1 0.0 17.355528151 25.599619467 14.982212933
588 1 0.0 15.531015396 25.599619467 24.970353897
589 1 0.0 13.706502642 25.599619467 34.95849486
590 1 0.0 11.881989887 25.599619467 44.946635823
591 1 0.0 19.180041109 34.908571243 4.994070854
592 1 0.0 17.355528151 34.908571243 14.982212933
593 1 0.0 15.531015396 34.908571243 24.970353897
594 1 0.0 13.706502642 34.908571243 34.95849486
595 1 0.0 11.881989887 34.908571243 44.946635823
596 1 0.0 19.180041109 44.21752302 4.994070854
597 1 0.0 17.355528151 44.21752302 14.982212933
598 1 0.0 15.531015396 44.21752302 24.970353897
599 1 0.0 13.706502642 44.21752302 34.95849486
600 1 0.0 11.881989887 44.21752302 44.946635823
601 1 0.0 24.537986804 6.981714526 4.994070854
602 1 0.0 22.713473846 6.981714526 14.982212933
603 1 0.0 20.888961091 6.981714526 24.970353897
604 1 0.0 19.064448337 6.981714526 34.95849486
605 1 0.0 17.239935582 6.981714526 44.946635823
606 1 0.0 24.537986804 16.290666303 4.994070854
607 1 0.0 22.713473846 16.290666303 14.982212933
608 1 0.0 20.888961091 16.290666303 24.970353897
609 1 0.0 19.064448337 16.290666303 34.95849486
610 1 0.0 17.239935582 16.290666303 44.946635823
611 1 0.0 24.537986804 25.599619467 4.994070854
612 1 0.0 22.713473846 25.599619467 14.982212933
613 1 0.0 20.888961091 25.599619467 24.970353897
614 1 0.0 19.064448337 25.599619467 34.95849486
615 1 0.0 17.239935582 25.599619467 44.946635823
616 1 0.0 24.537986804 34.908571243 4.994070854
617 1 0.0 22.713473846 34.908571243 14.982212933
618 1 0.0 20.888961091 34.908571243 24.970353897
619 1 0.0 19.064448337 34.908571243 34.95849486
620 1 0.0 17.239935582 34.908571243 44.946635823
621 1 0.0 24.537986804 44.21752302 4.994070854
622 1 0.0 22.713473846 44.21752302 14.982212933
623 1 0.0 20.888961091 44.21752302 24.970353897
624 1 0.0 19.064448337 44.21752302 34.95849486