ITEM: TIMESTEP
0
ITEM: NUMBER OF ATOMS
12960
ITEM: BOX BOUNDS xy xz yz pp pp pp
-1.2304998565006819e-01 2.1713449985650414e+01 0.0000000000000000e+00
-1.2956548236759602e-01 2.1719965482366852e+01 0.0000000000000000e+00
-1.5697981693841143e+00 3.1068979816938543e+02 0.0000000000000000e+00
ITEM: ATOMS id type x y z c_peratom fx fy fz 
6 1 0.864124 1.4667 1.88379 -8.10139 -0.880919 -1.26866 -0.877743 
222 1 1.36611 1.13811 6.78639 -7.67912 1.31825 1.92702 0.0723652 
45 1 7.24481 7.03827 -1.07662 -7.85278 2.18379 -2.67946 0.626993 
42 1 0.936896 4.73581 2.29537 -8.15713 0.413146 0.685757 0.777409 
258 1 0.776051 5.31979 7.77423 -7.891 -0.867284 0.166156 -0.773511 
159 1 11.1318 17.9495 -1.02501 -8.06684 0.575716 -0.77587 -0.133796 
78 1 0.967518 8.65704 1.58114 -8.4141 -1.01792 0.822986 1.13038 
294 1 1.58858 8.49564 6.9175 -7.91971 -1.48295 -0.809254 -1.02689 
93 1 13.6557 11.2535 -0.273968 -8.35465 0.660162 -0.129462 -0.466417 
114 1 0.772892 12.19 2.13046 -8.30344 -0.146098 0.834071 1.86392 
330 1 0.765655 12.5468 7.7173 -8.73616 1.70537 0.507188 -0.222431 
12953 1 16.6908 19.7868 -0.0738012 -8.0271 0.0301965 -0.601774 0.329209 
150 1 0.769473 16.0928 1.48319 -7.70779 -0.520638 -3.09028 1.41798 
366 1 1.31087 15.8449 6.75622 -7.7634 0.261077 -1.16392 1.47596 
12923 1 20.1356 16.1137 -0.212109 -8.02294 -0.05723 -1.36651 -0.0558907 
186 1 1.03683 19.3453 2.15856 -8.22357 -1.43794 0.780496 -0.30355 
402 1 1.0143 20.1013 7.89024 -7.32968 -0.882279 -0.510775 -2.09793 
123 1 9.98447 15.0827 -0.147081 -8.20535 0.686028 -0.724553 -0.551107 
12 1 4.58851 1.10062 2.23905 -7.80376 -1.2064 1.42311 0.920292 
228 1 4.46313 1.83042 7.69195 -7.95318 0.585715 1.8675 -0.564967 
39 1 2.88623 7.99128 -0.125009 -7.84695 0.497885 -0.856731 2.1196 
48 1 4.58888 4.96185 1.7684 -7.81962 -1.40151 -0.730359 -0.477441 
264 1 5.19216 4.7487 6.64134 -8.67807 -0.500241 0.823733 0.20584 
165 1 13.8949 18.6386 -0.0891366 -7.96908 -1.63733 0.935701 0.365973 
84 1 4.68316 8.4314 2.16662 -8.60426 -2.15318 0.0367993 0.247531 
300 1 4.32955 8.91462 7.6318 -8.16747 1.30622 0.0807549 -0.399219 
81 1 6.59329 11.2731 -0.207157 -7.45257 -1.67998 1.63805 1.48828 
120 1 4.33628 12.3292 1.45265 -7.13387 1.31077 0.684775 -0.172241 
336 1 4.80917 12.1273 6.76021 -7.83269 0.0135569 -0.27811 0.777767 
9 1 6.3951 4.10848 -0.236415 -7.02384 0.898396 -1.21114 0.023279 
156 1 4.4771 15.7371 2.2277 -7.67057 0.976639 0.820512 0.601576 
372 1 4.58255 16.3226 7.64799 -8.60684 -0.328111 -0.338075 0.31516 
195 1 10.0453 0.342921 -0.0411034 -7.64022 1.31989 0.364212 -0.963496 
192 1 4.46416 19.5788 1.79948 -8.29482 0.0937545 -1.41836 -0.69631 
408 1 5.10558 19.7175 6.75617 -7.52024 1.24338 -3.60395 0.388868 
21 1 13.9955 3.98271 -0.109887 -8.30601 -0.235043 0.968529 -0.269485 
18 1 8.15449 1.28772 1.90499 -8.19826 1.59937 -0.620153 -0.114482 
234 1 8.66915 1.28845 6.91896 -7.05808 0.746441 -1.15435 0.235691 
12857 1 1.82222 12.5183 -0.135622 -8.36643 -0.181866 -1.2305 -1.47376 
54 1 8.21463 4.70053 2.04488 -8.00244 -0.284787 2.96154 1.83323 
270 1 7.88239 5.26408 7.29354 -8.16792 0.365423 0.206097 1.49628 
12869 1 9.11147 12.3526 -0.328604 -8.19361 0.902205 1.29456 1.26792 
90 1 8.184 8.70077 1.66823 -7.9742 -0.573606 -1.40466 0.559642 
306 1 8.65946 8.48268 7.01493 -8.25889 -1.68867 0.611607 -1.61827 
12899 1 5.69093 16.1371 -0.0501577 -8.06723 0.183474 -1.35596 -1.19274 
126 1 8.19065 12.1166 2.40565 -8.08631 -0.850834 1.73117 -1.39717 
342 1 8.00676 12.6029 7.69412 -8.01615 0.873756 -0.284975 1.13716 
388 1 17.2916 17.953 6.96274 -8.53484 -0.315322 -0.750825 -1.0577 
162 1 8.19951 15.8882 1.72881 -8.31621 -0.803355 -1.95904 0.554124 
378 1 8.63478 15.655 6.90635 -8.15295 -0.345366 0.456818 0.397925 
430 1 20.9677 0.0511677 6.88678 -8.01805 -2.15284 -2.05245 -1.36531 
198 1 8.27347 19.4617 2.38393 -7.83117 -1.94482 0.911591 -0.583815 
414 1 7.99389 20.1254 7.89106 -8.21498 -0.389645 0.200389 -1.27737 
3 1 3.58298 3.28394 -0.817477 -7.13748 2.01401 -1.48747 -2.2252 
24 1 11.9351 1.19702 2.25182 -8.44555 -2.04383 0.268649 1.31694 
240 1 11.815 1.44807 7.56687 -8.44942 -1.30181 1.1046 0.590307 
207 1 17.3306 0.568097 -0.0971921 -7.67136 1.91365 -1.65824 0.355802 
60 1 11.8279 4.94322 1.72708 -8.49863 0.757903 -0.331995 1.22641 
276 1 12.2082 4.82445 6.76969 -7.53434 -0.358051 -0.229851 0.452709 
12797 1 9.04169 5.00166 -0.285973 -7.78178 0.726395 0.39973 -0.482239 
96 1 11.8667 8.68483 2.17468 -7.85121 -0.671069 -0.656373 0.402066 
312 1 11.6331 8.85806 7.59164 -6.95125 0.684773 1.76415 0.661682 
12803 1 11.8653 5.42641 -0.842388 -8.21537 0.69471 0.540308 -1.32857 
132 1 12.052 12.1839 1.46477 -8.2789 -2.16465 0.245625 0.783008 
348 1 12.2695 11.9646 6.74646 -7.85778 -0.217112 1.27602 -0.333647 
172 1 17.4065 17.6714 1.63174 -7.27375 0.665045 -0.830964 0.257388 
168 1 11.7967 15.6834 2.23178 -8.1615 0.492321 1.85405 0.863661 
384 1 11.6286 16.3794 7.74486 -8.14888 -0.417075 -1.29108 0.220068 
12767 1 13.0239 1.54869 0.00324382 -7.80245 1.12824 -1.31102 -0.561719 
204 1 11.8708 19.6275 1.59822 -8.76455 -0.411122 -1.45497 0.439509 
420 1 12.2964 19.0363 6.72261 -7.43903 0.564777 1.94606 0.718875 
352 1 17.5993 13.9877 7.71275 -7.86894 1.80231 -0.626816 -0.850514 
30 1 15.5052 1.20842 1.8845 -8.298 -0.722006 0.674965 -0.409429 
246 1 15.8044 1.16141 7.00418 -7.64602 -0.805289 1.22599 -1.43227 
12839 1 12.706 8.42455 -0.318829 -8.06823 0.639022 0.338558 -0.517701 
66 1 15.4777 4.67144 2.27925 -7.72886 0.314867 1.31241 -0.952293 
282 1 15.1664 5.20561 7.46185 -7.93708 0.877204 0.0342124 0.905195 
63 1 17.4179 7.67141 -0.14873 -7.48439 1.15154 1.37214 0.120246 
102 1 15.4272 8.46282 1.51793 -7.11085 0.450546 2.41969 0.649599 
318 1 15.7478 8.53809 6.80816 -7.65868 0.625085 0.127751 -0.361572 
572 2 18.9012 13.9184 11.1218 -28.6162 2.76191 -0.118625 0.578751 
138 1 15.6008 12.1369 2.20795 -8.02011 -1.80122 0.263861 1.64507 
354 1 15.3702 12.5932 7.49208 -8.73234 -0.7499 0.294995 0.136057 
12827 1 5.50493 8.74435 -0.282573 -7.29989 0.0497383 -1.42772 1.30147 
174 1 15.5749 15.8644 1.5885 -7.54664 -1.75829 0.630216 1.31716 
390 1 16.0495 15.6143 6.81206 -8.30279 -1.91147 1.45793 -2.0549 
136 1 17.422 13.8979 2.11673 -7.56691 0.504998 0.959379 0.922712 
210 1 15.4983 19.3213 2.30989 -8.21418 -0.159827 2.94977 -1.17298 
426 1 15.5585 19.828 7.66136 -7.93218 -0.504345 -1.11231 -0.135966 
12779 1 20.2765 1.24178 -0.130449 -7.86708 -0.833972 1.14169 1.23221 
36 1 19.0414 1.16193 2.17185 -7.87932 1.6375 0.0246523 1.25448 
252 1 19.107 1.66261 8.12968 -7.4358 -0.934264 0.322493 -2.05638 
12851 1 20.2394 8.5731 -0.173354 -8.68813 -1.5569 1.65295 2.04633 
72 1 19.1382 5.0434 1.52379 -7.18569 -1.16214 -1.24008 1.21064 
288 1 19.4366 4.98726 6.76467 -8.23268 1.3097 -0.826795 0.789195 
135 1 17.4046 15.1632 -0.0760831 -7.48015 1.41238 -0.535364 -1.31649 
108 1 19.0997 8.59143 2.48826 -7.69844 -0.0783596 -2.69546 -2.01197 
324 1 18.9954 8.8028 7.59142 -7.7838 0.0348695 0.43724 -0.464343 
12809 1 16.6798 4.9845 -0.236387 -7.47103 -1.65262 -0.879305 0.235583 
144 1 19.1587 12.0908 1.8762 -7.10637 -0.152867 1.26742 -1.57869 
360 1 19.5475 12.1951 6.95022 -8.12979 -0.0796686 -0.533624 -1.20608 
12941 1 9.17213 19.594 -0.0761355 -7.69582 0.784479 -0.248877 0.512045 
180 1 19.2492 15.9968 2.36954 -7.99336 -0.933567 -1.28551 -1.85867 
396 1 19.1712 16.1383 7.65109 -8.44283 -0.642083 -0.275747 -1.26407 
382 1 14.1521 17.4308 7.84932 -8.20822 1.76321 0.609879 -1.06722 
216 1 19.0452 19.5182 1.60807 -7.80137 0.81881 1.14262 -0.18016 
432 1 19.505 19.3745 6.98465 -8.78437 -0.400935 1.0189 -0.835298 
153 1 6.49551 18.8602 -0.174557 -7.97467 -1.34693 0.12944 0.166361 
5 1 0.787624 0.0505745 4.08314 -7.77882 -1.78596 1.21565 0.137577 
221 1 0.980398 0.417695 9.40329 -7.0407 -0.843684 0.749386 -0.200857 
41 1 0.064187 5.04282 5.15942 -7.62845 -1.38789 -2.097 -0.659046 
257 1 0.270823 4.87116 10.3106 -7.86171 -1.21787 -0.891632 -0.908403 
77 1 0.813106 7.74457 4.17738 -8.17717 -0.246767 1.22538 -0.397435 
293 1 0.823516 7.58918 9.42029 -8.00298 -0.336966 1.30375 -0.300255 
113 1 0.0941662 12.1329 4.89366 -8.46082 0.742459 0.0981589 1.26728 
329 1 0.0782654 12.1283 10.5031 -7.97175 0.366335 -0.557191 -2.27514 
149 1 0.680885 15.0118 4.14711 -7.6553 1.31597 -0.704925 -0.330745 
365 1 0.83409 14.8935 9.51045 -8.42252 0.0690297 0.496283 -0.877986 
185 1 0.0910649 19.3675 5.25775 -7.62061 -1.16363 1.88556 -0.989772 
401 1 0.194554 19.3078 10.1877 -7.81751 0.0377136 -0.565565 1.92031 
11 1 3.61269 1.2235 5.10927 -8.10073 -0.296045 0.696592 -0.293078 
227 1 4.00054 1.22057 10.4947 -8.02017 -1.01162 0.634507 -1.67535 
47 1 4.35284 4.00355 4.00294 -8.70828 -0.109871 -0.820991 1.53761 
263 1 4.3199 3.97113 9.35864 -8.14236 -0.40622 0.324608 -0.179214 
83 1 3.68486 8.4574 4.8384 -8.28947 0.654477 -1.02238 0.592268 
299 1 3.9605 8.53806 10.3724 -8.21061 -0.163768 -0.246354 -2.06262 
119 1 4.47616 11.4 4.03491 -8.09648 -0.258633 0.343967 0.584495 
335 1 4.51346 11.4253 9.46986 -8.46062 -1.60273 -1.06358 -0.839242 
155 1 3.58468 15.8888 5.17971 -7.46977 1.78391 -0.736667 -0.0815025 
371 1 3.58479 15.8592 10.3771 -7.63822 0.63333 -0.894588 -1.51384 
191 1 4.66411 18.344 4.08582 -8.02589 -0.588594 0.439438 -0.294361 
407 1 4.39345 18.7492 9.35638 -8.34389 0.691592 -0.71264 0.538828 
17 1 7.89125 0.199668 4.40507 -7.62794 1.1713 0.984613 -1.49424 
233 1 8.10911 0.750748 9.67355 -8.59343 -0.4446 -0.369296 -1.72701 
53 1 7.24204 5.01377 4.62416 -7.72602 2.0665 -0.614922 1.30495 
269 1 7.62728 4.7798 10.1959 -8.35251 -0.203183 0.0854909 -0.867597 
89 1 8.11137 7.93102 4.27113 -9.02662 0.423106 0.259501 0.61462 
305 1 8.13664 7.49259 9.43026 -8.16287 -0.970794 1.60536 -1.52359 
125 1 7.23102 11.9432 5.21297 -8.00263 0.940525 0.584526 -0.139864 
341 1 7.26918 12.2022 10.4353 -7.98492 0.943767 -0.848039 -0.227148 
161 1 8.04873 14.5914 4.06957 -7.93447 0.580026 0.971744 -0.621811 
377 1 8.08311 15.1244 9.52618 -7.96129 -0.759131 -1.74544 -0.910799 
197 1 7.4288 19.3857 5.00902 -8.00255 -0.868176 -0.131299 1.35125 
413 1 7.46377 19.3913 10.2785 -7.68171 -0.495175 0.609895 0.825355 
23 1 10.8146 1.08606 5.16893 -7.98743 0.450553 1.05544 -1.33339 
239 1 11.0889 1.03395 10.2391 -7.90835 -0.524237 -0.234255 -0.807564 
59 1 11.5832 3.86157 4.19004 -7.88567 0.439184 0.60432 -0.702672 
275 1 11.6817 4.13015 9.41733 -7.96817 2.16451 0.553393 -1.19486 
95 1 10.9873 8.58435 5.03855 -7.96636 -0.977506 -0.498208 -1.16118 
311 1 11.1835 8.48877 10.2785 -7.93393 -0.338795 -0.286572 -1.06551 
131 1 11.8179 11.216 4.00184 -8.25048 -1.31694 1.20493 -1.3626 
347 1 11.9526 11.4121 9.36477 -7.61687 -2.18319 -0.8482 -0.0563752 
167 1 10.6865 15.7211 5.19725 -8.13109 0.979932 -0.690836 -1.42608 
383 1 10.8682 15.5027 10.3999 -7.92122 0.327569 0.126874 -1.23419 
203 1 11.601 18.2801 4.05746 -7.61617 0.703231 -0.857574 -0.822475 
419 1 11.651 18.5377 9.37295 -7.68132 0.232042 1.1578 -0.415212 
29 1 15.3758 0.117028 4.21567 -7.99229 -0.59422 0.457072 0.226341 
245 1 15.2933 0.255567 9.27049 -7.56046 0.87059 0.781015 1.63491 
65 1 14.6746 4.89432 4.96314 -7.76343 -0.596918 -1.1463 -0.456099 
281 1 14.5322 4.90423 10.2197 -8.27617 1.34253 -0.193774 -0.136879 
101 1 15.0874 7.52879 4.11189 -7.63181 1.85421 0.811666 -0.110207 
317 1 15.3359 7.5727 9.19873 -8.01313 0.276859 0.562665 0.796892 
137 1 14.3253 12.0924 4.96674 -7.96775 2.65315 1.41311 0.665999 
353 1 14.6576 12.1501 10.2651 -8.65213 1.05226 1.2208 0.333825 
173 1 15.3785 14.5383 4.04679 -8.23303 -0.111854 1.20973 0.481783 
389 1 15.4825 15.0631 9.33508 -8.58434 -1.91226 -0.037567 0.00423309 
209 1 14.7696 19.1251 5.02524 -7.40793 -0.653047 1.85267 0.419236 
425 1 14.5279 19.565 10.3234 -8.29654 -0.294871 -4.09471 0.219656 
35 1 18.1288 1.24852 5.5404 -7.4814 1.72174 -1.34339 -1.25236 
251 1 18.2583 1.06956 10.5538 -7.76767 -0.668103 1.35769 -1.17599 
71 1 18.9142 3.70169 4.12745 -7.52444 0.999183 0.914652 -0.567388 
287 1 18.8468 4.10344 9.2194 -8.02418 -0.0166898 0.965264 0.656926 
107 1 18.2381 8.39743 5.15408 -7.53311 -0.690455 1.16655 -0.353954 
323 1 18.4485 8.53488 10.1097 -8.27715 -0.913103 0.753502 0.913406 
143 1 18.9003 11.0399 4.12028 -7.51826 0.255093 0.975818 1.15833 
359 1 18.9895 11.5161 9.44452 -8.1441 0.349333 -0.895825 -0.268301 
179 1 18.3733 15.7911 4.92291 -7.91189 -0.711935 0.405823 2.32065 
395 1 18.2445 15.6503 10.2197 -8.19073 -0.345769 1.25054 1.55238 
215 1 19.0237 18.4295 4.00886 -7.25722 -0.784019 0.977443 1.31976 
431 1 19.1102 18.44 9.3722 -8.21321 0.0397122 1.05923 -0.303878 
2 2 0.93561 3.32744 0.858063 -29.4787 0.249322 -0.209851 -2.64425 
218 2 0.825979 3.14474 6.05414 -28.8594 -0.506542 -0.0219885 -0.583936 
12911 1 12.7348 16.0305 -0.099987 -8.38374 0.732123 0.062011 -1.19844 
38 2 1.17205 6.9155 0.590829 -28.8633 -0.564277 -1.21036 0.372086 
254 2 0.885596 6.71265 6.09679 -29.1146 1.69405 -1.09601 -1.06177 
470 2 0.796444 6.63885 11.3006 -29.4476 1.21837 -0.633784 -0.0573098 
74 2 0.952381 10.8252 0.755679 -28.4259 0.308068 -2.99684 -0.403064 
290 2 0.861386 10.2006 5.75551 -28.7943 0.326233 0.0819805 2.02985 
506 2 0.745607 10.2008 11.0523 -29.1279 0.514957 0.162284 1.75588 
110 2 1.15513 14.1347 0.843837 -28.7649 -1.59357 0.431533 0.145672 
326 2 0.935921 13.7627 6.01401 -28.643 0.578653 1.887 -1.80733 
542 2 1.03799 13.8248 11.2806 -29.2599 -0.796244 0.622933 0.700495 
146 2 0.956053 17.7854 0.554545 -28.8383 1.42228 1.29457 1.54623 
362 2 0.714851 17.5916 5.81507 -29.6337 2.46028 0.455838 2.77522 
560 2 11.8387 13.7771 11.0382 -28.9475 -1.68582 -0.622073 1.17294 
182 2 1.19928 21.3008 0.802056 -28.9831 -0.119767 -0.00921778 0.699234 
398 2 1.1009 21.2453 5.94687 -29.503 -0.0394691 -1.6989 0.736977 
614 2 0.984339 21.1416 11.2154 -29.4968 -1.78349 1.98004 -1.92657 
8 2 4.75482 2.9624 0.851224 -29.6749 -0.375784 0.28626 -2.04984 
224 2 4.42046 3.13413 5.84196 -28.1304 0.195082 -2.70979 0.915696 
440 2 4.54132 3.03116 11.2676 -28.5569 0.111046 0.0457547 0.598971 
44 2 4.57931 6.7522 0.702487 -29.4788 -0.582898 0.333504 -1.51482 
260 2 4.56648 6.61184 5.87798 -27.747 -1.94385 0.282562 0.633862 
476 2 4.38644 6.80554 11.2399 -28.9752 0.0827735 0.179158 0.500821 
80 2 4.81803 10.1505 0.820561 -29.4291 -0.777596 2.9363 -0.658275 
296 2 4.62916 10.0696 5.76931 -28.9635 -1.84515 2.04491 1.93945 
512 2 4.42332 10.3781 11.202 -28.7778 0.879045 -1.35686 0.925645 
116 2 4.53682 14.2291 0.598405 -29.1953 0.42805 -0.680148 0.830055 
332 2 4.50744 14.0168 5.98503 -28.9163 -0.277707 0.268972 -0.963555 
51 1 10.1426 7.69759 -0.0481282 -7.97286 -0.171406 -1.00958 -0.337112 
152 2 4.78266 17.6912 0.630798 -28.6215 -0.627027 0.62415 2.34579 
368 2 4.72563 17.5035 5.9086 -29.1141 -1.9328 1.55298 0.625626 
584 2 4.45515 17.5393 11.2717 -28.6577 -0.547797 0.19241 -0.838677 
188 2 4.50292 21.355 0.810246 -29.3887 -0.0292826 1.05242 -0.440087 
404 2 4.60887 21.4 6.05302 -29.5148 -1.5832 0.779438 -1.78696 
620 2 4.49051 21.283 11.2886 -29.1947 -0.10702 0.0136692 0.961613 
14 2 8.26638 3.18371 0.857547 -29.4998 -0.895843 -0.994137 -2.55524 
230 2 7.93071 3.19641 5.83475 -29.5414 0.507241 -0.59404 0.833814 
446 2 8.05864 3.00577 11.1316 -28.4645 1.5333 -0.0597845 0.219449 
50 2 8.36434 6.76814 0.657217 -28.9084 0.505862 -0.110753 0.370573 
266 2 8.146 6.73512 5.97048 -28.5451 0.939847 -1.84976 -0.399513 
482 2 8.01629 6.63329 11.1741 -28.9699 1.66526 -0.077018 -0.0939463 
86 2 8.24712 10.7809 0.788994 -29.4038 -0.518042 -2.49697 -0.469239 
302 2 8.09823 10.0674 5.63565 -28.4114 0.167702 1.05803 1.44535 
536 2 18.9727 10.2916 11.0652 -28.4346 0.776475 0.119212 0.465042 
122 2 8.13092 14.1435 0.612713 -28.1581 1.52383 -0.478486 -0.159513 
338 2 8.29574 13.8277 5.95567 -29.2676 -0.76889 -0.349776 0.0972811 
590 2 7.95222 17.6367 11.2214 -29.1033 1.77822 -0.230589 -1.59376 
158 2 8.17122 17.8837 0.871152 -29.6969 -0.386735 0.140237 -1.04718 
374 2 8.07842 17.5259 5.9279 -28.7035 1.02795 -0.734021 -2.01613 
201 1 14.6603 21.2596 -0.84775 -7.36475 -0.779697 0.46002 -1.07991 
194 2 8.47305 21.2578 0.830565 -29.5472 -1.63991 0.531159 -0.428756 
410 2 8.31914 21.0627 6.05479 -29.2904 -0.528222 1.33783 -0.294193 
626 2 8.12096 21.303 11.1746 -28.0687 -0.539852 -2.648 -0.434219 
20 2 12.064 3.06385 0.894978 -29.0278 -0.290892 -0.1547 -1.38153 
236 2 11.8196 3.00792 6.0729 -29.2163 -0.788588 -0.986672 -1.00995 
596 2 11.5625 17.3814 11.0467 -29.383 0.958415 0.634307 0.483655 
56 2 12.025 6.64448 0.702655 -28.5225 -2.03607 2.76114 0.1715 
272 2 11.6669 6.57721 5.9199 -30.1179 -0.737709 1.64731 0.584236 
518 2 7.94517 10.2472 11.1682 -29.05 2.21587 -0.312401 1.73932 
92 2 12.0666 10.253 0.631931 -28.8613 -0.584468 -1.1153 0.253674 
308 2 11.7763 10.3156 5.76224 -29.488 0.120371 -1.58987 2.08608 
524 2 11.799 10.2018 11.2043 -29.3938 -1.01426 0.290088 -1.07055 
128 2 11.7543 14.2405 0.683779 -28.7167 1.31581 -0.347185 0.540314 
344 2 11.6898 13.8342 5.79405 -28.5876 -0.325062 -0.0512811 0.427639 
548 2 4.3583 13.8523 11.1396 -29.253 0.971625 2.10066 -0.792598 
164 2 12.0058 17.7408 0.820806 -28.3563 0.303007 -0.810127 -0.207779 
380 2 11.7666 17.2342 5.91619 -29.1797 -0.915449 2.73959 0.0655638 
566 2 15.3755 13.9189 11.0283 -27.4007 0.136709 -0.0223563 0.668194 
200 2 11.8837 21.4932 0.781554 -28.9102 -0.307123 0.993065 -1.47797 
416 2 11.6783 21.3486 6.03845 -29.1046 1.97337 -1.47802 -1.39694 
632 2 11.5763 21.0426 11.1045 -29.309 1.98928 1.10243 -1.37504 
26 2 15.504 2.95201 0.875245 -28.9613 0.388609 1.58355 -0.719002 
242 2 15.1694 3.05406 6.01335 -29.1712 2.73896 0.219998 -1.55848 
554 2 8.06071 13.9328 11.2118 -28.99 1.17493 -0.446158 -0.724113 
62 2 15.5139 6.61053 0.684711 -29.5566 3.63189 0.131969 0.639323 
278 2 15.5856 6.69578 5.92451 -29.9069 -1.68213 -0.463744 0.558692 
578 2 0.709526 17.4863 11.1661 -28.898 -0.231119 1.66091 -0.502051 
98 2 15.3037 10.6328 0.951529 -28.5942 1.65154 -2.42879 -1.87948 
314 2 15.3154 10.3994 6.00497 -29.2051 -0.868863 -0.243848 0.944447 
69 1 0.00744815 6.86 -1.0794 -7.68016 1.02653 -0.00364798 0.89896 
134 2 15.6595 14.065 0.647421 -29.2581 1.98042 -0.260927 2.79208 
350 2 15.327 13.8989 5.9548 -27.9621 0.689765 -0.292535 -0.792552 
494 2 15.3331 6.74098 11.1438 -28.9625 0.852214 -1.46976 0.153829 
170 2 15.6317 17.9074 0.715669 -29.484 0.465024 -0.897708 0.765999 
386 2 15.3345 17.5208 5.96476 -28.575 0.832056 0.655638 -0.0237981 
602 2 15.3292 17.5622 11.1657 -28.0233 -0.214223 -0.103019 -0.747073 
206 2 15.7027 21.308 0.869056 -28.7892 0.0050533 -0.154713 -1.61031 
422 2 15.5037 21.1434 6.10784 -29.2346 0.525486 -0.294981 -0.857678 
638 2 15.2762 21.0372 11.1564 -28.8807 0.526165 2.51126 -0.791192 
32 2 19.228 2.9276 0.822552 -29.5207 0.190682 1.65912 -1.26077 
248 2 19.2263 3.0174 6.12019 -29.563 -1.37975 -0.973916 -0.207265 
464 2 19.1021 3.13682 11.0709 -28.8354 -0.634435 -1.38191 0.232918 
68 2 19.261 6.99699 0.711865 -29.1951 -1.73957 -3.21796 -0.399471 
284 2 19.0418 6.72572 6.16648 -29.2536 -1.19692 1.93635 -2.53225 
500 2 19.0229 6.87025 11.0568 -28.7927 -0.779954 -1.72227 1.28698 
104 2 19.2453 10.3108 0.791187 -28.8605 -0.105749 0.891579 1.08098 
320 2 19.0274 10.2339 5.81908 -29.0371 -0.0909426 -0.728824 2.76375 
458 2 15.3596 3.07082 11.1718 -28.4562 0.0844787 0.0103227 -0.784568 
140 2 19.2292 14.1752 0.804681 -28.9176 -2.2056 0.117097 0.331027 
356 2 19.0261 14.0121 6.02437 -28.9428 0.151051 0.443473 -0.746481 
12881 1 16.3648 12.1203 -0.168945 -8.11726 0.606832 -0.165863 -0.679127 
176 2 19.4253 17.5709 0.909652 -29.3673 -1.70926 1.24109 -0.575279 
392 2 19.0854 17.4541 6.01316 -28.6565 0.983175 0.965288 -1.53763 
608 2 18.9699 17.4935 11.145 -28.8516 -0.237354 -0.214397 0.716636 
212 2 19.0402 21.429 0.667567 -29.0165 -0.236849 0.0388263 0.515332 
428 2 19.0437 21.221 5.99118 -28.3567 -0.311123 0.698008 0.128215 
644 2 18.8695 21.2331 11.2688 -28.8058 1.6121 0.679213 0.079229 
1 2 2.54711 1.43829 3.24686 -28.8853 1.20483 -3.12278 -0.988026 
217 2 2.77826 1.34892 8.62756 -29.4039 -1.20581 -2.02409 0.031749 
37 2 2.84155 4.82967 3.28214 -28.1534 -2.61468 1.36623 -2.18184 
253 2 2.43519 4.73728 8.83061 -29.3872 0.152703 1.60975 -0.327557 
73 2 2.65438 8.78126 3.05897 -28.2825 0.0730334 -2.10568 -0.490807 
289 2 2.66104 8.43547 8.62922 -29.0138 0.127365 -1.38843 0.0730614 
109 2 2.85049 12.2334 3.20047 -29.0965 -0.256406 -0.782591 -0.62875 
325 2 2.75092 12.0987 8.44119 -28.3582 0.107676 -1.38186 -0.621584 
145 2 2.66167 15.9226 3.27098 -29.3008 0.385273 -1.33298 0.189879 
361 2 2.65815 15.8711 8.40082 -28.7414 -0.2901 0.189863 0.438242 
181 2 2.72178 19.1639 3.25238 -29.3668 1.26211 1.52934 0.139739 
397 2 2.68449 19.3567 8.74196 -29.2778 -1.65622 1.02645 -2.86951 
7 2 6.52406 1.04669 3.08415 -29.3753 -1.51428 0.0374517 1.37249 
223 2 6.23151 1.17191 8.62197 -28.9596 0.508926 0.636905 0.130201 
43 2 6.1902 4.82673 3.0075 -28.8117 0.870446 0.173182 0.125464 
259 2 6.10913 4.66187 8.66932 -28.6313 0.900225 -1.1151 -0.884961 
79 2 6.41894 8.31856 3.23439 -28.1759 -0.165255 -0.325675 -2.72965 
295 2 6.34336 8.38614 8.42569 -28.2312 -0.210153 -0.337507 0.709443 
115 2 6.3481 12.2251 3.50913 -28.941 -0.269072 -0.3123 -2.28263 
331 2 6.19043 11.9141 8.66472 -28.9233 1.67301 1.0809 -2.14962 
151 2 6.53211 15.6642 3.12607 -29.1349 -1.66203 0.323238 0.280764 
367 2 6.36672 15.7509 8.41455 -28.7292 1.03619 -0.816748 1.14685 
187 2 6.28009 19.5022 3.32932 -29.0589 0.0491506 0.212121 -0.79067 
403 2 6.19428 19.4105 8.65752 -28.9626 0.214301 0.086953 -0.44735 
13 2 9.95408 1.25112 3.35682 -28.6033 -0.383966 -0.772217 -0.548294 
229 2 9.9159 1.14086 8.63008 -28.4134 -0.595791 0.355486 -1.60989 
49 2 9.90836 4.66671 3.18236 -28.9288 1.22574 1.17903 1.41499 
265 2 9.64422 4.78759 8.60602 -29.0794 0.393857 0.772797 -1.4343 
85 2 9.89961 8.64744 3.23763 -28.8505 1.24565 -0.882379 -2.07567 
301 2 9.8468 8.53868 8.58968 -29.3028 1.92516 -1.01105 0.173321 
121 2 10.2295 12.1079 2.94196 -28.4288 -0.748061 -1.46103 1.81279 
337 2 9.90532 12.0361 8.4378 -28.7676 0.82467 -1.01714 0.152023 
157 2 9.85958 15.7616 3.03202 -28.6687 0.166545 0.534301 1.8891 
373 2 9.8851 15.6761 8.66685 -28.8185 -0.0543012 -0.599796 -1.19327 
193 2 10.052 19.233 3.20317 -29.4468 0.196056 0.367665 1.31934 
409 2 9.85089 19.3438 8.33886 -28.7435 0.903778 -2.11745 1.99861 
19 2 13.743 1.06639 3.14769 -28.6306 0.097706 0.00163023 2.41809 
235 2 13.591 1.14197 8.51913 -29.1879 0.90768 -0.63089 0.506027 
55 2 13.621 5.0073 3.24411 -28.8528 -0.13217 -0.0611837 0.497655 
271 2 13.4201 4.89073 8.58176 -28.9689 -0.203718 0.186575 -2.04797 
91 2 13.5445 8.46341 3.33266 -29.4705 0.0174836 -0.26466 -0.243725 
307 2 13.567 8.54199 8.70893 -29.6091 -1.20274 -0.557798 -3.6197 
127 2 13.4992 12.235 3.12073 -28.9193 0.849993 0.419517 0.0732286 
343 2 13.4907 12.2179 8.43224 -28.8144 0.2606 -1.48377 -0.223229 
163 2 13.8154 15.7404 3.29417 -28.5845 0.132629 -0.490988 -1.40292 
379 2 13.5136 15.6824 8.53855 -28.1612 -0.150979 0.353927 -1.53265 
199 2 13.5529 19.5958 3.00785 -28.6661 0.333121 -1.44115 2.67499 
415 2 13.6139 19.3448 8.4957 -29.1757 -1.17463 0.566974 -0.76241 
25 2 17.138 1.25807 3.2905 -29.1197 1.45033 0.113316 1.60299 
241 2 17.1768 1.15409 8.56269 -29.1949 -0.332031 0.903882 0.393889 
61 2 17.3827 4.68785 3.24075 -29.9069 -0.0709228 0.636158 0.205004 
277 2 16.883 4.83256 8.47456 -28.7031 1.43527 -0.624198 0.448919 
97 2 17.1172 8.46373 3.20104 -29.6786 -0.0345854 -0.417544 0.488108 
313 2 17.1511 8.47825 8.62665 -28.9095 -0.821552 0.311109 -2.21123 
133 2 17.2153 11.9326 3.39207 -29.1971 1.58324 1.11481 -2.06439 
349 2 17.2533 12.2441 8.55451 -28.7577 -0.111317 -1.92287 -1.72229 
169 2 17.4704 15.7934 3.12257 -29.323 -2.64282 0.245107 0.00515531 
385 2 17.2006 15.9009 8.49146 -28.8862 0.277023 0.282572 0.113877 
205 2 17.2464 19.453 3.25239 -29.4416 1.62497 -2.43986 0.559452 
421 2 17.5419 19.3588 8.51727 -28.4752 -2.18335 0.331999 -0.0679509 
31 2 20.9275 1.13063 3.1196 -28.5095 0.273458 -0.283981 1.12474 
247 2 20.9424 1.03671 8.58389 -29.5462 1.789 1.19137 0.916194 
67 2 21.0242 4.80023 3.19303 -28.8326 -2.73896 1.64511 1.71228 
283 2 20.7213 4.92533 8.48321 -28.5397 0.499504 -0.851627 1.19368 
103 2 20.9813 8.29692 3.22142 -28.6691 -1.04445 0.169909 0.876482 
319 2 20.9719 8.47135 8.47698 -28.9269 -0.627401 0.375718 0.453142 
139 2 20.83 12.1376 3.27744 -29.2907 -2.27913 0.838529 -0.76699 
355 2 20.8653 12.3115 8.54067 -28.4265 -0.974061 -2.38869 0.640158 
175 2 21.0763 15.8318 3.27751 -29.4147 -1.504 -0.844316 -0.309706 
391 2 20.9279 15.5889 8.58605 -28.6415 0.425081 2.25189 -0.384176 
211 2 20.8835 19.5749 2.99523 -28.6781 -0.995059 -0.390776 2.23372 
427 2 20.8142 19.4885 8.58866 -28.8031 2.45077 -1.41212 -0.624204 
316 1 17.2097 10.7894 6.88158 -7.84827 0.447202 0.434018 -1.19411 
219 1 1.69704 2.90879 4.10203 -8.49849 0.331431 1.51299 1.22871 
435 1 1.85223 2.92772 9.32408 -7.89193 -0.841469 -0.0541904 1.20044 
12845 1 15.4329 9.41705 -1.18761 -7.89599 0.674316 1.20361 1.08133 
255 1 2.38619 5.83469 5.03017 -7.93827 4.28252 -0.143215 0.254206 
471 1 2.62907 6.02293 10.4844 -7.70934 1.13981 0.285592 -0.731794 
250 1 21.225 3.08873 7.44631 -8.1926 -0.40455 0.143653 0.62749 
291 1 1.97479 10.3114 4.08481 -8.19308 -1.07716 0.915313 -0.725099 
507 1 1.95082 10.1165 9.3628 -8.41457 -0.194576 1.91435 -0.0700018 
488 2 11.7479 6.60685 10.9968 -28.9599 -0.425678 -0.229568 0.332119 
327 1 2.6706 13.4822 4.85527 -7.90962 0.541367 -1.99423 2.23743 
543 1 2.74863 13.1189 10.2368 -8.13491 -1.35435 -0.671982 -0.751533 
177 1 21.1208 18.6089 -0.0452043 -8.44352 -0.546724 1.84736 -1.94786 
363 1 1.86909 17.5248 4.21328 -7.94899 -0.439651 0.256235 -2.3515 
579 1 1.92628 17.5007 9.34636 -8.02596 -0.476712 0.145643 0.135488 
12755 1 5.64805 1.24704 -0.0896872 -7.50705 -0.986351 1.17109 -1.46508 
399 1 2.68172 20.188 4.96541 -7.11883 0.910302 1.78822 0.66153 
615 1 2.68932 20.6 10.3212 -8.0425 1.44118 -0.479722 1.3437 
418 1 13.6684 21.5428 6.82034 -7.82971 -1.21948 -0.471779 -0.817564 
225 1 6.22131 2.40424 4.84336 -7.93857 0.241994 -0.0244345 0.762941 
441 1 6.26251 2.5772 10.314 -8.32134 0.283595 -1.06298 -1.02848 
34 1 20.8253 3.04843 2.20402 -8.41427 0.109981 -0.0815308 -0.0328169 
261 1 5.46229 6.57051 4.06232 -8.28425 -1.12214 0.830439 -0.491253 
477 1 5.63732 6.38855 9.2319 -8.23494 -0.564901 2.87435 0.350599 
286 1 21.0199 7.25872 6.7942 -8.33895 -1.27107 0.056481 0.0136009 
297 1 6.15821 9.57122 4.66213 -8.25667 1.51881 -0.300407 1.85627 
513 1 6.42873 9.71459 10.0178 -8.43614 -0.683912 -0.252477 -0.792107 
105 1 20.9967 11.4183 -0.0960358 -8.39102 0.081866 -1.1226 1.5452 
333 1 5.5132 14.0342 4.11344 -7.84855 -0.984052 -1.10826 0.520709 
549 1 5.52694 13.8598 9.34957 -7.61406 -0.487738 1.12603 -1.44704 
214 1 20.9381 21.2125 1.70257 -8.56202 1.49858 -0.0771902 0.597975 
369 1 6.36225 16.5913 5.04491 -8.07571 0.497923 0.289766 -0.589341 
585 1 6.22415 17.0681 10.136 -8.26206 -0.384425 -0.747554 0.0295217 
183 1 2.72259 0.557602 -0.0532158 -7.8008 1.52748 -0.57488 -0.0577087 
405 1 5.4109 21.2398 4.1562 -7.62704 0.306548 -0.971366 -0.357107 
621 1 5.6026 21.284 9.6015 -8.21868 1.2606 -0.474097 -1.00426 
142 1 20.8765 14.0946 1.66001 -7.98554 2.85252 -0.42475 0.231623 
231 1 8.95621 2.9333 3.99009 -8.19928 -0.285343 -0.278605 0.884461 
447 1 9.57111 3.05093 9.64336 -8.01632 -1.91758 -1.71244 -1.84859 
424 1 17.7294 21.2955 7.69853 -8.4833 1.17929 -1.69558 -0.006389 
267 1 9.84938 5.90138 5.14315 -7.72662 -0.083012 -0.0362247 -1.12529 
483 1 10.0011 5.8422 10.2598 -7.61298 0.048215 1.3201 1.20947 
208 1 17.3095 21.3331 2.40818 -8.08714 -0.435368 -2.01939 -0.741132 
303 1 9.21285 10.3939 3.92456 -8.16796 -0.103567 -0.649933 1.59159 
519 1 9.13175 10.2759 9.48198 -8.38971 0.0161737 -0.0389623 -1.87383 
100 1 17.3854 10.1754 1.80069 -7.69958 -1.28372 0.529396 -1.68932 
339 1 9.98974 13.1225 4.94477 -8.03658 0.369845 -1.24547 -0.259673 
555 1 10.0233 13.0142 10.1588 -7.77406 -1.28112 1.24268 0.365723 
33 1 20.9754 4.10648 -0.340431 -7.1955 0.94993 -1.41734 0.844854 
375 1 8.94203 17.4605 4.0533 -7.65069 -0.0384093 -1.54658 -0.01164 
591 1 9.08332 17.4061 9.30663 -7.79743 0.624425 1.78024 -0.265626 
111 1 2.77265 14.9687 -0.0317213 -8.08484 1.30104 0.901601 -1.29359 
411 1 10.0107 20.4049 4.86777 -7.38346 -0.0357647 0.359743 0.788389 
627 1 9.87208 20.3216 10.114 -8.28633 -0.0437756 2.13463 1.05811 
394 1 21.3841 17.5924 7.71222 -7.6724 0.108585 -0.0711466 -0.0129246 
237 1 13.4371 2.06401 5.04719 -7.95616 0.857017 -0.402498 -0.3216 
453 1 13.5821 2.35625 10.3289 -8.07378 0.0215392 0.0978944 -1.69906 
166 1 13.7015 17.6582 2.44531 -8.13277 -1.47238 -1.70551 -0.816347 
273 1 12.6018 6.70979 4.01466 -7.69051 -0.799833 -1.61499 -0.172298 
489 1 12.8495 6.73455 9.1772 -7.8911 -0.932048 -1.08581 1.64683 
28 1 17.4129 2.85808 1.75674 -7.8743 -0.509165 2.04708 -0.413623 
309 1 13.5993 9.67227 5.03874 -7.47558 0.132287 -1.64496 0.487949 
525 1 13.6499 9.5298 10.3406 -7.87794 0.869378 0.586929 1.45716 
452 2 11.6348 2.97347 11.0618 -29.401 0.0739624 0.000972763 -0.00187672 
345 1 12.6324 13.943 4.00862 -8.2422 -0.257093 0.288117 0.300403 
561 1 12.7209 13.9773 9.1671 -8.66726 1.26973 -0.229275 1.14145 
12929 1 2.21294 19.6667 -0.284699 -8.00559 -0.884817 -0.814746 0.777288 
381 1 13.5901 16.5823 5.31225 -8.55639 0.503372 -0.734003 -1.77204 
597 1 13.3793 16.6872 10.192 -8.19984 1.25726 0.539802 2.2016 
346 1 13.3854 14.4263 6.68322 -8.52075 1.45945 -0.0711734 0.823887 
417 1 12.7041 20.9294 4.13732 -7.86604 -0.268882 1.62021 0.462627 
633 1 12.7912 21.2205 9.20524 -7.49544 -1.42872 -1.62607 0.0864689 
322 1 21.3673 10.1931 7.67088 -7.679 0.331086 1.26274 0.39799 
243 1 16.4248 2.81901 4.17359 -7.49404 -2.25444 0.690251 0.628507 
459 1 16.2248 2.94565 9.20433 -8.55076 0.0746611 0.165074 1.11747 
171 1 18.2185 17.6997 -1.10408 -7.61416 0.999153 2.3342 0.603429 
279 1 17.2137 6.0284 4.90944 -7.27353 0.111467 -1.28824 0.93818 
495 1 17.1599 5.9988 10.2939 -8.05729 0.29449 -0.30469 -0.580089 
70 1 21.0091 6.59715 1.82346 -8.1821 1.85565 1.85313 -0.359336 
315 1 16.2756 10.2066 4.19497 -8.37248 0.0620232 -0.0940055 0.280615 
531 1 16.4275 10.3692 9.32362 -8.35547 0.832626 -0.641127 0.783464 