ITEM: TIMESTEP
0
ITEM: NUMBER OF ATOMS
12000
ITEM: BOX BOUNDS pp pp pp
-3.6857602161007996e-01 2.7709576021609614e+01
-3.2368324974204477e-01 2.7664683249742495e+01
-2.6182526860579429e+00 2.2134625268605654e+02
ITEM: ATOMS id type x y z c_peratom fx fy fz 
242 2 5.81273 5.73474 2.50967 -23.9185 -2.37457 -0.754027 2.45237 
1201 2 5.37875 2.61658 0.461898 -23.7389 1.87533 -1.58299 1.64256 
1202 2 5.32506 2.16768 5.78118 -24.528 1.82885 -0.712098 0.177514 
2041 2 2.57033 5.67848 0.175899 -24.2957 1.96971 -1.91555 -0.735849 
2042 2 2.85179 4.84007 5.86151 -23.6987 -0.363967 4.253 3.46922 
3002 2 2.89215 2.46581 3.25317 -23.7089 0.671774 -4.94936 -3.42218 
6801 1 2.21128 4.13158 4.06951 -7.63702 -1.77409 3.74195 1.38967 
10161 1 0.742109 6.08707 1.28013 -8.75766 0.0901888 1.34123 0.926584 
5121 1 1.17608 1.18379 -0.539035 -7.92339 0.707416 1.07647 -0.662181 
4122 1 1.34103 3.23128 1.92729 -7.01229 -2.02312 0.102824 -2.32228 
4001 1 3.95335 3.94322 1.21389 -7.2092 -0.549692 1.4646 -0.722263 
11002 1 3.54195 0.794388 5.05527 -7.26231 -1.37113 1.79695 -5.35372 
4162 1 5.00645 3.03663 3.4811 -7.44814 0.0249911 -0.612719 2.09217 
8041 1 3.23002 4.65489 -1.69919 -7.23121 3.14661 -2.03611 -0.838026 
1002 2 -0.328459 2.07748 6.09029 -25.3161 -1.52455 3.76442 -2.30065 
9003 1 6.22812 5.95197 4.84644 -7.28194 -1.57661 0.323633 -2.64567 
9082 1 3.81208 0.898999 1.80759 -8.44663 0.682427 2.14927 3.46013 
42 2 -0.137878 4.93064 3.1047 -24.5899 1.73014 1.64547 1.3919 
1001 2 -0.162248 2.87121 0.299867 -23.4257 0.925696 -2.92559 2.82034 
6002 1 3.69315 6.54598 1.98158 -7.83002 -0.782066 -0.194606 -1.1838 
6160 1 0.641471 1.38244 4.01837 -7.22001 0.385622 -0.00147947 0.746115 
11202 1 6.28944 4.00716 -0.864849 -8.04139 0.902602 0.136048 -2.57565 
202 2 5.22448 -0.256053 3.02698 -23.8205 0.782024 -2.68732 -0.0804634 
3001 2 2.36733 2.45922 -2.19333 -23.4255 0.345521 0.283425 0.180317 
8080 1 6.48526 6.35547 0.604098 -8.07922 -0.398694 2.43034 -1.98626 
11362 1 6.31464 0.526617 4.72064 -8.07736 0.816766 0.461137 -0.248453 
5841 1 1.10321 4.17641 -0.919779 -8.45272 -2.43113 -1.13673 -0.475441 
41 3 -0.00109652 5.25552 -2.44707 -27.8437 -0.550526 0.286281 -2.0352 
8640 1 4.23094 1.16884 -0.606628 -7.68458 -0.822537 -0.07492 -2.45145 
7362 1 13.2549 5.27343 3.46216 -6.11934 2.91676 0.68638 -1.21481 
7201 1 7.3595 4.08338 1.82087 -8.25424 -1.39777 -0.636659 1.42826 
10601 1 12.8221 3.86413 1.27834 -7.66053 1.23366 -0.221319 -1.0123 
9600 1 7.08249 0.963963 -1.5262 -6.73004 -0.448343 -0.421166 0.48963 
10201 1 9.66019 0.642861 1.66171 -7.25867 0.296181 1.85042 -4.79344 
8201 1 9.27366 2.83427 -0.893402 -7.19081 0.568154 1.02518 -0.26985 
442 2 11.0165 5.82656 2.73777 -24.9697 5.18054 -4.64387 6.47704 
1401 2 11.4674 2.74604 0.104511 -23.8784 -3.11761 -0.796459 -0.889029 
1402 2 10.8918 2.19643 5.48835 -24.3775 0.977997 1.46079 1.43074 
2241 2 8.26414 5.15893 0.114902 -24.862 2.50041 -0.298589 -1.42856 
2242 2 8.04947 5.45016 5.76268 -24.3705 1.48228 -1.70321 -3.66676 
3202 2 8.59342 2.38212 2.79804 -23.9837 0.610706 0.299568 -0.928914 
10562 1 11.7707 2.04243 3.57988 -6.40327 -1.60924 -0.17831 -0.0494411 
4642 1 10.0156 4.09926 1.37776 -6.81763 0.511881 -3.42569 0.565634 
8561 1 9.59363 3.85942 4.38945 -7.2735 -1.21078 -2.03703 0.299632 
5201 1 8.56716 5.49883 -2.24248 -6.97731 -0.506079 -0.171511 3.26628 
9362 1 6.81871 1.17133 1.55133 -8.14363 -0.266306 0.254212 0.414783 
5162 1 7.11111 3.43173 5.79055 -6.56271 0.114082 -1.50645 -1.86078 
11360 1 11.5712 0.424558 -1.02215 -7.7098 3.36042 3.18207 5.55641 
9040 1 13.1118 0.914185 1.82382 -6.72131 -2.82667 -2.07368 -2.71149 
7841 1 9.41398 6.62628 4.20962 -6.92116 -2.66645 1.16994 -1.28464 
8241 1 9.77742 6.43604 1.39647 -6.58489 -4.69795 3.1567 -4.30361 
10439 1 11.6116 5.62541 -0.813608 -7.30514 -1.50309 0.304115 -1.46991 
9562 1 12.4166 3.87864 5.50227 -5.95836 0.721209 -2.02137 1.19883 
5204 1 9.63039 0.676939 6.52359 -7.89903 -0.886313 2.24346 1.30486 
10402 1 9.0047 0.334094 3.81872 -7.05359 0.257407 1.83212 0.984362 
7840 1 12.1858 3.47615 -1.94601 -8.37426 1.22747 -1.39471 -1.29657 
2441 2 13.7117 5.44086 -0.257539 -24.1433 1.10102 -0.477774 1.60041 
4560 1 18.4613 5.69125 -2.077 -8.29284 -0.489742 -1.34262 3.63491 
10441 1 15.4213 6.59943 1.27803 -9.09894 0.579822 -0.379259 0.298911 
7040 1 15.5791 3.94565 0.588191 -7.60027 -0.0338869 1.37849 -0.143337 
3402 2 13.8385 2.64573 2.95632 -25.6844 -1.00702 -0.437952 0.407345 
2401 2 13.8485 -0.263836 0.151594 -23.1304 0.12407 0.437742 0.781032 
2442 2 13.7033 5.62345 6.00797 -24.2987 -4.09799 -1.49014 -2.27349 
642 2 16.5709 4.9365 2.41908 -23.2821 1.28145 -0.616719 0.32408 
1601 2 16.7923 2.16005 -0.0221129 -23.745 -7.77278 -5.072 -2.30226 
1602 2 16.3147 1.67584 5.84279 -23.2891 3.37454 6.17339 -1.82368 
2641 3 19.9167 4.70832 0.0666919 -26.4664 -3.65618 0.479358 -1.57403 
2642 3 19.4293 5.41343 5.1498 -29.2079 -0.798087 -1.39265 -1.66403 
3602 3 19.4809 2.49383 2.50386 -27.9363 0.256082 1.87025 1.27625 
9602 1 14.4708 1.12288 4.85214 -7.37793 -0.587408 -0.169859 -1.36629 
5601 1 18.929 3.60966 5.18551 -5.84815 -0.708861 -1.43348 -0.295419 
7762 1 17.6894 0.964995 4.43863 -7.70071 1.41694 0.277527 -1.27521 
5721 1 18.2457 3.09955 0.756397 -7.77023 5.74292 5.33771 3.6303 
8401 1 17.7561 2.58874 -1.81754 -6.48126 0.549739 2.98046 0.852907 
6601 1 15.9394 2.99175 3.318 -7.45173 0.987242 2.086 1.36594 
8641 1 18.8568 4.66969 2.71003 -7.25331 -2.12382 0.152886 -0.206234 
6321 1 19.037 0.718468 1.73754 -7.69344 -1.10193 -1.12247 0.889159 
9880 1 15.4981 1.15153 1.49978 -6.89851 2.87758 -1.73906 -0.35263 
6442 1 17.4197 -0.0885326 -0.552201 -8.1878 -1.87411 0.534071 -0.130938 
4961 1 20.2239 0.876091 -1.36039 -7.07696 1.27964 0.238006 1.73851 
10684 1 16.1124 5.95569 4.50313 -8.1123 -1.88684 -2.22241 -1.84781 
4880 1 14.7985 5.44211 -2.04851 -7.02166 0.86465 0.00703922 -0.0339241 
6562 1 14.7136 1.31396 -1.1879 -8.21017 0.439811 -0.706518 -1.62447 
8442 1 20.6457 6.6666 5.92116 -7.87878 0.92483 -0.164627 2.89275 
601 2 16.3842 -0.320589 -2.54585 -23.3832 1.24288 1.84515 -2.5517 
602 2 16.8362 -0.316017 2.94955 -24.1791 -1.02953 -0.422417 -1.82973 
10600 1 21.8351 0.722997 1.05001 -7.29716 0.862864 0.602908 -1.25419 
4801 1 26.5041 3.90302 -0.839124 -8.55351 0.378344 0.914636 -0.787541 
9402 1 20.8378 3.40404 1.12759 -8.01645 2.27543 -2.01734 0.306924 
9761 1 20.6903 3.60777 -1.57102 -9.45853 2.9645 1.43886 0.993144 
11481 1 21.417 4.65844 4.11533 -5.944 -0.780419 0.124005 0.256174 
7161 1 27.0544 0.680891 1.16788 -8.16733 1.14444 1.96538 0.679813 
7001 1 26.1696 0.98894 -2.06673 -7.08147 0.740606 -0.1501 3.36389 
10079 1 26.1411 6.57002 1.00251 -7.50509 0.48883 -2.051 -1.54054 
9122 1 24.1538 4.43249 -1.97559 -8.16085 -0.58643 -2.01968 -2.02846 
10039 1 23.5916 1.42668 -1.74747 -7.98128 -2.42879 1.26264 -0.279333 
8801 1 26.6416 3.58192 2.21656 -8.07129 -1.62129 -1.61207 -1.91353 
842 3 22.2025 5.29552 2.11286 -28.7286 2.23814 -1.15072 5.92184 
1801 3 22.3533 2.3607 -0.534163 -26.5238 -0.290471 -1.14315 3.73624 
1802 2 21.9957 2.44387 5.55435 -24.077 -0.238139 3.1174 0.556369 
2841 3 24.9305 4.92515 -0.0985617 -27.2702 2.62444 2.99975 -0.216934 
2842 2 25.1069 5.04939 5.43552 -26.0378 -0.551802 -0.446169 0.90996 
3802 2 24.8899 2.13236 3.11671 -24.6017 1.87625 1.1563 -0.658272 
11881 1 25.9087 0.756316 4.45122 -7.20757 3.41121 -2.48382 -1.39275 
9802 1 23.8421 3.91997 3.48924 -6.78294 0.0244627 1.69755 -0.843842 
9961 1 23.4622 1.20469 4.46313 -8.4964 -2.53031 -2.50166 -0.759845 
11042 1 21.0234 1.93767 3.80163 -8.16579 -1.92443 -2.7526 -2.43096 
7880 1 23.3186 4.4851 0.364496 -7.78834 -4.71264 -1.2063 1.57988 
10362 1 25.6199 2.97328 5.57725 -5.56618 1.07038 -1.27556 -0.864456 
10761 1 24.3066 2.18553 0.990813 -7.49937 0.654575 -1.60411 -0.73358 
2802 3 24.5799 -0.000735413 5.86774 -27.8915 3.82531 -1.72983 -2.24471 
8402 1 20.926 5.86905 1.09564 -6.48698 -2.00423 2.45673 -4.05318 
4922 1 25.7308 6.16074 3.63879 -7.51593 0.900007 -0.494779 0.420187 
9962 1 23.4501 3.6642 6.49252 -7.23871 -1.88378 1.91849 2.96452 
10002 1 27.6921 4.31222 5.15074 -6.45157 0.540397 -0.464029 0.2965 
802 2 21.9935 -0.0758644 2.9877 -23.7293 -0.20927 -0.695693 -0.0368441 
6483 1 26.2644 6.57617 6.68081 -7.61832 0.341782 2.12347 -0.011068 
2801 2 25.3224 -0.0315753 0.221907 -23.9292 -0.60869 0.0021466 -2.33344 
6880 1 0.239868 9.35007 -1.12896 -7.24029 2.0684 -0.398696 -0.344441 
11842 1 0.529914 6.92804 4.2519 -7.46543 -1.34958 -0.746918 -1.53823 
8880 1 4.13258 7.15835 -1.32994 -7.71362 1.76273 0.411158 1.39036 
7241 1 3.89429 9.25932 1.44171 -7.939 -1.64784 0.756322 -2.35136 
10321 1 4.46172 11.7486 5.3878 -7.94607 -1.26204 -0.36627 -0.680496 
10041 1 3.51366 6.79649 4.89272 -7.00665 -2.94399 -3.21064 -2.3373 
5042 1 0.627156 9.80128 4.49288 -6.61171 -0.536766 0.0632239 0.850911 
5642 1 6.4645 9.42635 -1.67326 -8.1993 0.0156819 -4.75747 2.52362 
7041 1 1.4067 12.2691 -1.62273 -8.66968 -0.426121 -0.694004 -1.14755 
9002 1 0.993917 9.07841 1.85499 -7.59347 -0.324747 -0.959928 -2.09746 
282 2 4.63808 11.064 2.38005 -23.0835 2.57973 -2.97201 5.68672 
1241 2 5.3234 8.42913 0.0486808 -23.1592 1.0683 -0.565709 1.80165 
1242 2 4.87614 8.01568 5.73311 -24.9724 3.28117 0.258992 -1.68969 
2081 3 2.13481 10.7875 -0.162992 -26.6788 0.133985 -1.06088 0.525537 
2082 2 2.46704 10.8095 5.7213 -24.1222 -0.905277 -2.51662 -0.951442 
3042 2 2.08351 7.74654 3.04592 -24.7156 3.3343 1.16973 2.09194 
11841 1 3.0163 12.0179 1.60256 -8.13558 -1.31407 0.106395 -2.16018 
8119 1 3.25063 9.82428 -1.67601 -8.53557 0.757859 0.610994 1.64238 
4282 1 6.15484 8.00981 2.74496 -6.54918 -0.797637 -2.93777 0.440195 
4842 1 0.438999 11.1829 0.43414 -6.11211 0.379265 1.84579 0.69916 
10241 1 5.89424 11.3924 0.808642 -6.04823 -2.65907 1.48732 -2.99603 
10001 1 5.25442 13.1643 2.8874 -7.61766 -0.962397 0.064111 0.226912 
6042 1 1.51433 12.3626 4.2307 -7.76103 1.08382 1.41363 1.1443 
1041 3 -0.298157 7.88134 -0.063964 -28.0567 -1.88488 -0.644093 0.616531 
4639 1 1.52335 6.9674 -1.34662 -8.12938 -1.52098 -0.647784 2.69877 
1081 2 -0.0591792 13.4597 -0.367594 -25.8352 -2.3009 0.438811 2.23801 
8320 1 6.44301 11.9443 -1.63487 -5.11904 0.192295 0.395804 -1.66964 
1281 2 5.49113 13.3082 0.0888017 -24.4843 1.43028 1.84117 -2.68408 
1282 2 5.40733 13.6041 5.40408 -24.047 2.87004 2.71601 1.23416 
4881 1 4.15449 13.0533 -1.79884 -6.97322 -0.945846 0.108393 2.50541 
10243 1 3.32739 9.30713 4.29609 -7.10769 0.889911 1.11549 -0.392485 
1082 2 -0.163259 13.2734 5.47969 -24.0801 0.0643662 1.02928 -0.891948 
1482 2 11.336 13.3925 5.85768 -24.4677 1.00082 0.525718 1.52796 
8281 1 6.74374 9.21794 5.17964 -7.53312 -1.88997 -0.565649 -2.1139 
4402 1 12.5769 6.78725 1.07388 -7.42105 1.27874 -2.28587 3.17479 
11282 1 12.1457 10.1229 3.94884 -7.34032 1.51154 -0.434003 2.17395 
4322 1 7.61281 12.1352 4.14071 -7.1631 -1.78318 0.813226 0.38524 
11363 1 7.24155 9.88526 1.62065 -5.4514 3.54141 -3.4471 0.0461633 
9481 1 8.9229 7.69258 -0.687144 -7.60445 -1.29978 1.44829 -0.516882 
482 2 10.7343 10.7489 2.57958 -24.371 -0.456604 1.76147 -1.77218 
1441 3 11.057 7.82023 0.251681 -29.0364 -0.903039 1.34071 -2.17613 
1442 3 10.7384 8.316 5.74849 -27.6193 -0.550643 -0.871542 -1.1242 
2281 2 8.48407 10.0758 -0.253262 -24.931 -0.401565 1.80136 -1.03921 
2282 2 7.87213 10.815 5.7589 -23.6555 3.44603 2.62266 0.438549 
3242 2 8.14163 8.55853 3.3417 -24.277 -1.75892 -0.930217 0.503584 
9242 1 9.70952 8.88588 1.95274 -7.79481 1.49181 1.60487 -1.81525 
4522 1 10.6774 9.9664 -0.693814 -6.18238 -0.540914 -1.99181 2.49596 
6443 1 10.1045 13.1952 4.34567 -6.49391 -3.75307 -1.52262 -4.29219 
11562 1 11.9727 12.4423 1.38624 -6.98162 -0.165386 -2.27299 1.63871 
7881 1 12.4464 9.01506 1.43279 -6.62841 0.86953 3.49205 0.210387 
8200 1 9.19666 12.1521 1.6948 -6.9891 1.03462 -1.15571 -0.808878 
2482 2 13.4478 10.6924 5.64558 -24.464 6.28033 -0.456148 -3.01829 
5241 1 9.87966 12.2074 -1.80887 -6.46803 0.113979 0.601703 1.7855 
10242 1 13.4922 12.9915 5.07722 -5.72363 -2.32053 0.174165 0.542289 
11642 1 11.7554 6.78691 4.65253 -6.53364 1.45559 2.74752 1.42415 
6480 1 12.654 11.7006 -1.35286 -5.42096 2.01862 0.138584 -0.0619471 
1481 2 10.3576 13.5248 -0.00226755 -25.9335 0.839909 -1.51766 -0.0974082 
5483 1 11.7886 11.3468 6.61733 -8.39782 -0.638313 0.0905375 -1.05124 
8001 1 8.25252 7.46553 6.26737 -6.62358 2.96189 0.0583572 -0.385717 
8243 1 9.61268 9.72543 4.49833 -8.59351 -1.04443 0.499599 0.783203 
9241 1 11.4508 7.85617 -2.45575 -7.01256 0.163054 -0.697854 0.160331 
7442 1 16.181 9.79248 -1.59308 -7.27647 -2.0068 -3.49707 3.70434 
6603 1 17.3247 9.88427 4.44462 -7.87037 1.84013 -1.51464 -0.510507 
6641 1 14.0406 8.23192 -0.954782 -7.68449 0.690137 0.393482 -0.430382 
9440 1 18.2969 7.19356 0.94454 -7.53418 0.688049 -3.83364 1.92248 
6242 1 15.4394 9.25814 1.80401 -7.93248 -0.654253 -0.17649 -1.83638 
6482 1 18.3341 12.2584 0.577578 -7.48341 -1.345 2.41201 2.75162 
2481 2 14.3014 10.3357 -0.00275206 -23.808 -1.85586 0.678531 -1.26555 
6202 1 14.3748 8.24459 4.27056 -8.03263 0.999121 0.184539 3.03797 
3442 3 14.048 7.69571 2.59802 -26.8702 -2.86496 0.075038 -3.27593 
4683 1 17.8909 9.68931 1.07127 -7.25874 -0.795409 1.03129 1.08864 
682 2 16.8891 11.2498 2.64496 -25.1871 -0.312888 -0.815903 1.36209 
1641 2 16.7418 8.0459 -0.0507042 -23.1969 -1.38166 2.7753 -1.23443 
1642 2 16.3955 7.90184 5.1604 -23.8674 2.42733 2.45152 3.20513 
2681 2 19.4186 10.7618 -0.45612 -24.4095 0.853962 -2.60961 1.85019 
2682 3 19.3626 10.7014 5.48353 -27.644 -0.189504 1.45488 -2.75529 
3642 3 19.1718 8.19529 2.6632 -27.9577 3.215 0.342041 -2.61742 
10719 1 15.108 12.0788 1.71974 -7.92018 -0.815979 0.0380757 -4.17962 
7520 1 15.2295 11.4278 4.37232 -5.53296 1.38141 -2.06526 1.09263 
4442 1 18.0521 11.7605 -1.90069 -7.7822 1.60803 0.897046 -1.5463 
11520 1 15.323 12.0769 -1.95186 -6.5763 -0.344885 3.7247 1.40774 
11920 1 18.6121 8.7357 -1.57748 -7.79233 0.287263 2.14173 2.18805 
1681 2 16.6395 13.6343 -0.462264 -23.6779 4.60929 -4.84943 -2.23769 
6520 1 20.4812 9.26673 1.21347 -7.45296 2.05572 0.793292 -1.42062 
9683 1 19.0938 11.5797 3.31194 -7.14965 -0.646366 -0.668393 -1.36874 
10641 1 18.4486 7.18587 4.17673 -8.09566 -0.740457 1.05103 -0.535916 
10841 1 18.9135 13.3935 4.92872 -6.01282 -1.10028 1.38974 1.1873 
6642 1 20.5397 9.38314 6.4304 -7.90943 -0.889556 -0.746227 2.99627 
6521 1 16.5794 13.5631 3.58388 -6.62293 0.382753 0.704768 -4.77962 
1682 2 16.5856 13.2869 5.56918 -25.0844 -0.838567 -0.267125 2.63098 
7002 1 26.8921 6.95347 -2.02407 -7.42145 -2.03201 -1.19269 2.46193 
1881 2 22.2725 13.4597 -0.222951 -24.1395 2.73013 0.836024 -0.0505088 
4042 1 24.1031 6.96851 -1.10592 -7.54481 -0.334184 0.966025 -0.56074 
6843 1 23.4424 6.97578 1.64442 -7.78717 0.857594 0.48908 -0.798789 
7803 1 21.1213 7.31273 2.99327 -5.86555 -0.718406 0.868855 3.18455 
4043 1 25.4368 9.63999 -1.69847 -7.32282 -0.468147 0.342954 -0.817442 
82 2 27.469 10.5933 2.52795 -25.7209 1.4321 -1.5927 1.41244 
5080 1 21.2634 6.71523 -1.53014 -7.88693 -0.452179 -0.891271 -1.29531 
5641 1 20.7262 12.5395 -1.35437 -8.44237 1.02524 -3.64221 2.01495 
4082 1 20.8794 9.74035 4.01789 -7.72774 -1.67498 1.29243 -0.861669 
5482 1 21.8487 9.66352 -1.73355 -7.69198 -2.98303 -2.68114 1.48028 
8721 1 26.2541 12.0638 4.12716 -7.61158 1.99882 0.756773 1.21461 
1042 2 27.6243 8.18753 5.93205 -24.7472 2.57479 -0.164718 -1.66467 
8560 1 21.5167 11.9677 1.33665 -7.83488 -0.0237549 1.81949 0.481239 
10202 1 23.382 9.96137 0.706173 -8.38356 0.705257 -1.00487 1.47538 
3882 3 24.9783 13.3706 2.89392 -27.4833 3.01206 -4.16776 -2.5916 
7799 1 24.4207 12.7803 0.519868 -6.83821 -5.02687 4.39171 2.47451 
11682 1 23.3133 8.95838 3.76679 -7.38974 2.03594 0.650904 -0.745083 
882 3 22.1805 10.3781 2.50082 -27.9131 -0.106791 -0.908411 -0.455383 
1841 2 22.4483 8.21789 -0.129303 -24.3548 -1.31381 -2.82022 0.314438 
1842 2 21.9163 8.1913 5.18379 -24.5979 0.190108 0.289159 -2.03784 
2881 3 24.9167 11.2151 -0.0444752 -28.4827 2.63844 -3.64319 -2.19959 
2882 2 24.7209 10.3535 5.34014 -24.2947 2.02029 2.42733 -4.98901 
3842 3 25.219 7.67141 2.43001 -28.1964 -0.550963 1.41395 -0.0284256 
9882 1 26.4217 9.07173 1.03789 -7.29032 -1.11356 0.811683 0.812499 
7921 1 26.0746 9.10496 3.72089 -7.68015 0.0464127 -0.019181 1.19878 
9762 1 24.0026 11.3835 3.26907 -7.43846 -2.24048 1.28179 -0.190404 
4721 1 26.4617 12.4047 -1.74238 -7.87517 0.907043 -5.24159 -3.12233 
8681 1 26.4779 11.9423 1.30274 -6.45193 -1.85172 1.4137 0.926992 
4242 1 23.5699 6.95412 5.68298 -7.36694 0.553195 -1.7891 2.00208 
7081 1 26.6118 10.2079 6.48487 -7.9584 0.810707 0.117484 -2.10435 
6120 1 23.3993 11.623 -1.62183 -7.15493 1.61597 2.38943 0.41995 
7082 1 23.3482 9.77049 6.69646 -7.75783 -2.38066 -2.80088 2.70848 
4682 1 21.0683 11.9345 6.31931 -7.78417 -3.35291 -2.34243 0.832215 
6602 1 23.8079 12.4562 6.22728 -7.37633 6.12334 -2.03175 -2.0383 
1882 2 22.217 13.552 5.73283 -23.146 0.890147 1.19384 -2.05589 
81 2 27.6441 10.721 -2.57933 -24.0974 0.320771 -0.763407 -0.829297 
8644 1 1.25421 1.12809 7.17427 -7.88994 1.87623 -2.09787 -0.049384 
2003 2 2.21139 -0.0417736 11.6794 -24.5503 0.832421 -0.159857 -1.19902 
203 3 5.22038 -0.297102 8.65546 -27.0742 -1.53407 1.80471 -1.19015 
7243 1 4.32392 3.65058 7.04091 -8.27555 0.566456 -1.85147 -0.721573 
11603 1 1.51663 3.92186 7.40436 -7.49937 1.93122 -1.64351 -2.96987 
5801 1 0.919626 0.876097 10.0161 -7.10045 -0.969567 -0.704069 0.624189 
7204 1 3.84063 1.09896 9.83455 -8.282 2.6809 -1.62252 3.34525 
243 3 5.49862 5.15184 8.46972 -28.9205 -0.736979 1.13878 0.480535 
244 2 5.845 4.99622 14.2347 -24.4973 -0.629726 2.86752 -0.795237 
1203 2 5.241 2.40392 11.3025 -23.5794 -0.276332 -1.19732 1.1021 
2043 2 2.78861 5.26736 11.549 -25.1888 -1.37303 -2.08553 0.126378 
3003 2 2.81576 2.3267 8.49522 -24.9658 -4.0531 -1.34411 -3.19341 
3004 2 2.56566 2.75589 14.5201 -25.1342 -3.60588 -3.84676 -2.54575 
6204 1 3.31416 3.78606 9.76229 -6.05652 1.78754 1.49495 2.29434 
11043 1 4.23649 0.919666 7.18685 -6.98438 0.183218 0.856755 3.08387 
11243 1 1.14951 1.62344 12.7325 -7.47741 -1.31814 -0.563063 0.136329 
5243 1 4.03585 6.46801 13.1236 -8.10384 0.397757 1.0427 -0.760113 
8963 1 0.559558 3.57119 9.84732 -5.82779 0.116358 1.16083 1.79354 
7043 1 3.83109 0.721212 12.936 -6.97526 0.93567 0.154094 -0.126563 
10401 1 6.50718 6.62468 10.0839 -7.39877 -0.000364808 -0.933523 0.354747 
7403 1 4.05613 6.54195 15.9896 -8.75286 -1.47199 -0.262872 -0.199373 
43 2 0.144083 5.27079 8.24967 -25.6632 -1.6712 1.62722 1.4589 
44 2 -0.0584489 5.65414 13.9343 -23.558 -1.40741 -2.28849 -6.06202 
10003 1 3.82703 6.1699 9.99305 -6.7004 1.68454 2.74193 0.061608 
9202 1 3.89445 5.98428 7.42501 -6.87768 -1.31181 2.4455 -0.192514 
7083 1 1.70193 4.41042 13.3962 -7.00145 -1.86209 1.67705 -0.358707 
4044 1 3.73836 3.46039 12.3317 -6.59542 1.72012 -0.242473 0.165612 
5404 1 6.10613 3.64712 9.79681 -7.85947 0.921524 -0.279984 -0.374669 
6844 1 1.12472 4.03166 15.9453 -7.65587 2.13995 0.518502 -1.31806 
5803 1 0.91929 1.14363 15.5333 -8.33979 -0.401424 -0.520807 -0.985521 
7323 1 6.3139 0.790549 15.5438 -6.50589 1.59486 0.976407 0.837932 
4204 1 4.27746 3.6904 14.8672 -6.75508 2.50451 2.38213 2.35306 
5240 1 12.2881 0.425215 6.80994 -8.13911 1.86634 1.52526 -0.274138 
4643 1 6.92181 6.60119 15.5597 -8.33203 0.528805 -1.58028 1.20333 
11245 1 6.83853 0.920719 13.0071 -7.07198 -0.923611 -0.588247 -2.002 
404 3 10.9841 0.335966 14.2949 -26.9226 1.23425 -2.75953 -1.08864 
10363 1 9.28737 0.747478 15.4144 -8.46162 3.31837 -3.44052 0.962909 
2403 2 13.4896 -0.196287 11.347 -24.1898 1.07292 -1.47666 1.22835 
7402 1 6.87554 4.14766 12.5434 -7.87873 -1.46757 -3.50574 -0.350319 
4405 1 10.9796 2.73231 14.6303 -8.16066 2.71979 -0.726458 0.263167 
5324 1 9.01918 1.42093 9.84337 -7.97402 -1.72287 -1.23661 0.814283 
7603 1 11.3133 4.09518 12.1207 -7.1772 0.603578 0.577503 0.923559 
11444 1 6.87268 1.4094 7.61218 -7.3556 0.425173 -0.654159 0.977739 
4202 1 7.84604 4.77512 7.66909 -7.55627 1.1789 0.0296883 4.59588 
7443 1 12.262 3.71075 9.6713 -6.23323 1.09173 0.884024 1.92802 
9203 1 11.9949 1.14767 9.45953 -8.37136 1.39318 -3.36644 1.46471 
11843 1 9.07824 4.15962 10.1569 -8.44086 1.88455 -1.07891 -1.18726 
7602 1 10.7858 2.89925 7.79331 -7.08505 -3.34069 -0.683984 -2.00891 
443 3 10.5113 5.33183 9.08884 -26.8896 2.63451 -1.33547 -0.164625 
444 2 10.9815 5.11281 14.2109 -23.4876 -0.783913 -1.79924 0.0766641 
1403 2 10.7211 2.11185 10.9207 -24.2164 1.40446 2.8215 2.34733 
2243 2 7.86436 5.49081 11.2683 -24.0313 0.974764 1.76353 0.0191476 
3203 3 8.59218 2.3006 8.33616 -26.3832 -1.54135 2.32349 -3.32264 
3204 2 8.40298 2.28418 14.5132 -24.2154 -5.52387 4.56313 -3.42604 
3403 2 13.3301 2.12618 8.07277 -23.948 -0.0895013 2.66495 -0.137402 
3404 2 13.583 2.47824 14.205 -23.8854 -0.23434 1.1022 -1.01097 
5003 1 9.27407 1.44984 12.758 -8.07594 3.27996 -1.10461 -1.89943 
11242 1 11.982 5.505 7.68431 -6.5393 0.0842988 2.84569 -0.287689 
7281 1 12.5375 1.35371 12.6691 -7.92573 -4.85205 1.06776 -2.22786 
9404 1 6.68766 3.59018 15.673 -7.5664 0.828117 1.14723 -0.297292 
7682 1 12.8782 5.88532 14.0623 -8.03286 2.01517 0.595569 -2.02239 
8283 1 8.9231 4.98176 14.3254 -7.00258 -1.23858 1.66531 -0.37687 
11602 1 17.9848 6.02959 6.85147 -6.88009 -0.118468 0.364421 0.156051 
6362 1 15.3982 0.547465 7.15734 -7.92163 -2.90389 -2.50784 3.74163 
8602 1 17.9184 6.03216 9.79102 -7.21394 0.666619 1.6357 -0.0654786 
6522 1 20.3852 0.772987 9.72442 -6.55504 -0.242098 -1.62366 -2.48844 
10644 1 20.0442 1.30778 15.476 -7.87587 -0.160359 -0.866959 2.05772 
8765 1 14.374 3.37433 15.8181 -6.8933 1.18885 3.64547 3.08086 
6766 1 17.1758 0.838362 12.411 -7.64336 1.8087 1.15893 -2.81909 
5442 1 14.8122 3.68233 7.04379 -8.36707 -0.511329 0.582881 -0.169264 
2443 2 13.7214 5.32427 11.3608 -24.5514 0.639545 -0.2321 -1.07554 
7802 1 17.6445 4.07829 12.5514 -6.9639 1.03572 -1.42787 0.922718 
10603 1 15.0486 3.69876 12.9864 -6.35239 -2.39216 -0.161289 -0.48493 
9523 1 15.2641 4.08954 10.2234 -7.15446 0.0204252 -0.490329 -1.35338 
5603 1 15.0408 0.996141 9.90052 -8.05181 -1.06187 -0.331227 0.880195 
10403 1 15.4606 6.294 12.4818 -8.14725 -0.79685 3.56835 0.520291 
643 2 16.3348 5.10759 8.00793 -24.5696 0.687502 1.88282 2.69611 
644 3 16.89 5.55408 13.8133 -28.0469 -0.406893 -1.80553 1.4251 
1603 2 16.6297 2.54476 11.0786 -25.4012 -0.45338 2.51815 0.855253 
2643 2 19.4952 5.13435 11.1409 -23.5163 -1.48478 4.4087 0.811525 
3603 2 19.3224 2.21566 8.19895 -24.8567 0.679806 2.32425 2.75196 
3604 2 19.0973 2.64129 14.1404 -24.2972 -1.23612 2.48286 -1.68421 
9803 1 18.6586 4.5841 15.2679 -7.48069 -1.9049 -2.32248 -1.28684 
6604 1 14.6282 0.830666 13.4888 -6.65321 1.62498 -1.69063 -0.161245 
6324 1 17.8518 1.11057 9.96604 -7.46449 -1.40442 -2.67919 -2.58351 
8482 1 18.7843 3.43297 10.3578 -6.6862 0.498902 -2.71078 -2.7805 
9644 1 20.4476 4.16416 12.785 -8.70818 2.19436 -1.89533 0.243803 
10803 1 17.3979 3.27298 7.76764 -7.12869 -0.218313 -1.38159 -0.348612 
5401 1 19.8727 0.933623 12.7974 -7.50714 1.67524 1.61771 1.81018 
9643 1 20.6805 4.06298 7.28568 -7.72233 -0.544772 -2.3885 -0.375069 
9605 1 18.1602 6.61058 12.7274 -7.83411 1.04302 0.552956 -3.88552 
9764 1 18.367 0.763239 7.06719 -7.60458 -2.9817 -1.18145 -0.039502 
604 2 16.4338 -0.191106 13.9472 -24.331 -0.382991 -4.84494 4.61843 
9403 1 15.2895 6.30806 15.5131 -8.02561 2.8649 -0.0989921 -2.11861 
10563 1 16.9095 2.1611 14.9197 -7.69019 2.02153 -1.24368 1.34661 
8601 1 20.7762 0.931173 6.73432 -8.79969 2.41893 1.09218 1.30925 
8720 1 23.8541 0.843667 7.27022 -7.98384 -2.56014 2.59361 4.75291 
6764 1 24.0666 4.16338 15.959 -7.95089 0.355817 -0.588847 -3.43497 
4 3 27.2463 -0.158229 13.9369 -25.7596 0.498612 1.09862 2.02166 
10842 1 26.5953 4.89782 15.1354 -7.43439 -2.54291 -5.38341 1.29856 
8566 1 26.0011 1.76543 15.7806 -7.97007 1.61697 1.73911 -0.99297 
7606 1 23.279 -0.0191592 12.4542 -6.2833 -2.46145 -0.68676 3.18508 
4764 1 23.276 1.42924 15.6847 -7.61929 1.29628 -1.6488 0.709838 
8803 1 26.441 1.6174 13.0145 -8.86134 -0.19203 -0.168666 0.645103 
804 2 21.8205 0.554488 14.4066 -24.6275 1.60511 -0.321841 -3.66435 
9042 1 21.5152 3.64155 15.3807 -6.76213 -0.942858 1.37231 -1.88429 
9964 1 21.7631 4.55127 9.83135 -8.08909 -1.04042 0.180687 1.0952 
9043 1 24.3397 3.77908 10.9291 -7.85922 1.57272 -0.136443 -2.93979 
7003 1 25.8364 1.35327 10.1901 -8.32736 -0.431172 -0.034319 -0.0667554 
8603 1 23.1684 2.47124 13.2047 -6.90259 0.126908 -0.762076 2.54544 
6605 1 27.1047 4.68212 12.1565 -7.60649 -0.994668 -2.69941 -0.271223 
1003 2 27.5192 2.44316 11.3085 -24.345 2.0651 0.862234 -1.68372 
4923 1 22.862 1.47374 9.96621 -7.57949 2.45295 0.488129 -1.1536 
9364 1 26.6651 0.791899 7.32196 -7.30823 -1.35112 -2.40821 1.048 
6763 1 23.7287 4.9308 13.0164 -7.69513 4.04779 0.318959 -2.11499 
843 2 21.9784 5.62767 7.78807 -23.2064 3.14918 -2.82232 -1.39289 
844 2 22.1194 5.44726 14.0576 -23.8461 -3.39243 -1.76515 6.17478 
1803 2 22.2665 3.23575 11.5246 -23.3439 0.127594 -1.14441 -1.80604 
2843 3 25.0391 5.76542 11.2789 -27.4286 0.889675 -0.215789 -0.154693 
3803 2 24.4451 2.63615 8.82077 -23.8331 1.83567 1.17309 -1.50452 
3804 2 25.2313 3.13927 14.2092 -23.9025 -2.24725 0.403076 -0.546854 
8802 1 24.3261 5.60198 8.40592 -7.28236 -3.2271 -0.741354 0.225638 
9642 1 26.7167 3.90262 8.09846 -5.89551 -3.66335 -2.74743 -0.26201 
2803 2 24.5417 -0.317648 10.9486 -22.9215 3.0509 1.14453 0.372421 
8043 1 3.29735 12.4083 11.9559 -8.30367 1.5045 -2.48479 0.13043 
5402 1 1.45893 10.9914 14.807 -8.77804 1.31548 1.32666 0.646246 
3083 2 2.24502 13.2717 8.74154 -23.4845 0.144125 1.65947 -0.72863 
9883 1 1.17553 6.76987 6.90158 -6.67747 -0.2795 -3.35809 0.795984 
4085 1 6.24834 11.8958 15.8293 -8.11924 3.9252 2.36473 1.98675 
5363 1 0.972055 6.80047 9.68288 -7.38091 2.57499 -1.67199 -1.37216 
1283 3 5.21578 13.4335 11.3727 -27.1609 1.00106 -0.45625 -0.805227 
1043 2 -0.108887 7.94666 11.093 -24.3114 -4.29055 0.471628 0.852374 
11284 1 3.90022 12.1904 14.9385 -8.36438 -0.589817 0.0546964 -0.260675 
8003 1 0.85591 6.88795 15.146 -8.67587 3.01714 4.66951 4.18092 
5041 1 6.00393 7.32715 7.43778 -6.84472 -0.238156 -0.982871 1.47391 
11844 1 1.43399 6.90351 12.211 -8.19091 0.235359 -0.340147 2.1188 
8042 1 4.28473 9.50627 7.06842 -7.93523 -1.58998 1.15692 2.13452 
11044 1 6.58468 9.68466 12.8163 -7.56366 0.328906 -2.41705 -0.994095 
10082 1 6.21369 9.2338 9.74909 -6.43362 -0.825782 -3.16993 1.87981 
9004 1 0.460004 12.0414 9.81118 -8.44859 1.68744 3.38663 1.02722 
8083 1 1.02714 12.1948 7.04583 -9.68075 1.07224 -0.950827 -0.0478087 
4284 1 0.783457 12.3672 12.5106 -9.34597 -0.31855 -1.52713 1.3424 
10042 1 3.57153 11.6326 9.02184 -7.42368 0.167809 -1.64231 -0.743851 
6003 1 1.39019 9.04974 7.16725 -7.31113 -0.42395 4.88657 0.54394 
7282 1 0.852347 9.62554 9.97843 -8.07856 -0.44104 -1.36744 0.41365 
7843 1 3.62209 9.44476 13.0187 -8.43819 -0.794314 0.546734 -1.8573 
6041 1 3.48758 8.73675 10.3156 -7.60901 -1.18084 1.95813 -0.081568 
5843 1 0.570119 9.00642 13.3529 -8.1865 1.00192 1.47157 -2.38818 
283 3 5.54757 10.5171 8.56038 -27.8056 -3.94798 2.52535 1.23473 
284 2 5.49937 10.824 14.2351 -23.1765 1.1999 1.04382 -4.62018 
1243 2 5.11856 8.09665 11.5497 -24.5585 2.10193 -0.642018 -0.209138 
2083 2 2.01732 10.5892 11.5042 -22.4857 2.42166 0.415732 -0.748044 
3043 2 2.63298 7.65365 8.52886 -25.0563 0.854396 0.245309 -0.929856 
3044 2 2.42741 7.94182 14.1223 -22.5264 2.22179 0.0805369 -1.73049 
84 3 -0.230238 11.0168 13.9242 -26.0378 -3.56201 0.508032 -0.778917 
10482 1 6.44003 12.8569 7.27883 -7.85116 -2.52309 -1.4932 -1.68507 
6043 1 6.37156 11.6112 10.361 -6.94963 -2.28957 2.96053 -2.21517 
7042 1 4.5397 9.48223 15.402 -8.3803 -4.30932 -2.50349 2.66808 
3084 2 2.57076 13.307 13.8091 -22.5341 -2.17337 3.79189 -1.31137 
83 2 -0.260846 10.804 8.25372 -23.9029 -2.11934 -2.65037 0.816093 
11161 1 12.3235 8.56641 6.99253 -7.81801 1.69784 0.21924 -0.0147727 
1483 3 10.9079 13.4304 11.6256 -26.8144 1.19881 1.47335 -0.832059 
10122 1 9.72983 9.13766 7.34842 -7.36779 1.30249 2.23319 0.945267 
10282 1 11.7971 13.1677 8.49468 -7.85574 -7.14783 -1.91444 -0.986799 
3284 2 8.28712 13.5082 14.4268 -23.1391 1.88112 -3.16813 -4.04508 
3283 2 8.02376 13.2967 8.50687 -23.0221 -3.28914 8.08262 -5.4524 
11641 1 12.379 7.04836 10.458 -7.34448 -0.953956 -0.433886 -0.524805 
7643 1 9.41525 6.983 9.43798 -7.47056 0.327858 -1.21883 -1.16941 
4645 1 12.9318 11.8571 13.2776 -7.51941 -2.11537 1.00456 1.46535 
10483 1 9.73199 11.7119 15.7002 -7.17272 -2.91818 -0.590251 -0.195471 
5443 1 10.3193 8.01065 14.9766 -8.2232 0.982881 0.279795 -1.3301 
9243 1 6.74133 12.2855 12.6713 -8.04083 -0.419715 2.78999 3.3102 
11205 1 6.85458 6.75683 13.0499 -7.63442 -2.22541 0.544523 -2.73214 
5284 1 12.6383 9.49872 15.5232 -7.21431 -0.947554 1.42879 -2.95873 
4882 1 11.5732 11.421 11.1565 -7.60863 -3.37784 0.370754 -0.231235 
4241 1 12.6163 8.90633 12.69 -7.76291 -0.517619 0.946108 0.316406 
10442 1 9.42621 6.81201 12.2596 -7.63324 2.26155 -0.312142 -1.46425 
5242 1 7.20707 10.2804 7.71992 -7.75721 0.853665 1.85859 -1.60242 
9323 1 9.18867 12.1845 6.95562 -7.69586 1.4279 -0.25361 -0.0066661 
5002 1 8.95449 9.52634 10.1679 -7.45008 0.948328 -0.746581 -3.12815 
6244 1 9.68314 12.1977 13.0174 -7.92115 -0.136506 3.29373 -0.740018 
8242 1 12.7173 10.1523 9.51769 -7.55491 -2.26884 -2.08246 -2.58919 
4283 1 9.52056 9.9047 12.6397 -8.20544 1.12179 -4.99476 1.39746 
483 2 10.9008 11.1748 8.45825 -23.1574 -3.2041 -1.88136 2.96138 
484 2 10.877 10.5754 14.2037 -24.1352 2.73101 1.55722 1.61579 
1443 2 10.8277 9.01471 10.9447 -23.1183 3.5687 -2.92948 1.45556 
2283 2 8.16408 11.0245 11.3864 -24.6878 -3.72453 0.99471 2.40915 
3243 2 7.79794 8.29821 8.16469 -25.4417 1.45806 -1.71401 4.79125 
3244 2 8.54088 7.77733 13.8789 -23.8743 -3.02483 1.99233 2.29548 
8282 1 8.97556 12.1887 9.65777 -8.01797 7.94433 -5.6003 7.15759 
8364 1 7.7416 9.27662 15.6292 -7.26216 -0.670486 0.563232 -0.110451 
3483 2 13.6457 13.6643 8.6356 -22.5057 6.70866 2.24918 0.0565008 
5484 1 12.3062 12.2957 16.0054 -5.99805 0.139138 -1.83458 -1.26316 
1683 2 16.2707 13.5513 10.8588 -23.5405 1.38479 1.07661 1.11521 