# LAMMPS data file written by OVITO Basic 3.8.4

112 atoms
3 atom types

0.0 7.8085999489 xlo xhi
0.0 7.8085999489 ylo yhi
0.0 25.1979999542 zlo zhi

Masses

1 6.941  # Li
2 15.9994  # O
3 35.453  # Cl

Atoms  # full

1 1 1 0.0 0.0 1.952149987 0.0
2 1 1 0.0 0.0 1.952149987 12.598999977
3 1 1 0.0 0.0 5.856449962 0.0
4 1 1 0.0 0.0 5.856449962 12.598999977
5 1 1 0.0 3.904299974 1.952149987 0.0
6 1 1 0.0 3.904299974 1.952149987 12.598999977
7 1 1 0.0 3.904299974 5.856449962 0.0
8 1 1 0.0 3.904299974 5.856449962 12.598999977
9 1 1 0.0 1.952149987 0.0 0.0
10 1 1 0.0 1.952149987 0.0 12.598999977
11 1 1 0.0 1.952149987 3.904299974 0.0
12 1 1 0.0 1.952149987 3.904299974 12.598999977
13 1 1 0.0 5.856449962 0.0 0.0
14 1 1 0.0 5.856449962 0.0 12.598999977
15 1 1 0.0 5.856449962 3.904299974 0.0
16 1 1 0.0 5.856449962 3.904299974 12.598999977
17 1 1 0.0 1.952149987 3.904299974 6.299499989
18 1 1 0.0 1.952149987 3.904299974 18.898499966
19 1 1 0.0 1.952149987 0.0 6.299499989
20 1 1 0.0 1.952149987 0.0 18.898499966
21 1 1 0.0 5.856449962 3.904299974 6.299499989
22 1 1 0.0 5.856449962 3.904299974 18.898499966
23 1 1 0.0 5.856449962 0.0 6.299499989
24 1 1 0.0 5.856449962 0.0 18.898499966
25 1 1 0.0 0.0 1.952149987 6.299499989
26 1 1 0.0 0.0 1.952149987 18.898499966
27 1 1 0.0 0.0 5.856449962 6.299499989
28 1 1 0.0 0.0 5.856449962 18.898499966
29 1 1 0.0 3.904299974 1.952149987 6.299499989
30 1 1 0.0 3.904299974 1.952149987 18.898499966
31 1 1 0.0 3.904299974 5.856449962 6.299499989
32 1 1 0.0 3.904299974 5.856449962 18.898499966
33 1 1 0.0 3.904299974 0.0 1.928151042
34 1 1 0.0 3.904299974 0.0 14.527151582
35 1 1 0.0 3.904299974 3.904299974 1.928151042
36 1 1 0.0 3.904299974 3.904299974 14.527151582
37 1 1 0.0 0.0 0.0 1.928151042
38 1 1 0.0 0.0 0.0 14.527151582
39 1 1 0.0 0.0 3.904299974 1.928151042
40 1 1 0.0 0.0 3.904299974 14.527151582
41 1 1 0.0 0.0 0.0 10.670849123
42 1 1 0.0 0.0 0.0 23.269849851
43 1 1 0.0 0.0 3.904299974 10.670849123
44 1 1 0.0 0.0 3.904299974 23.269849851
45 1 1 0.0 3.904299974 0.0 10.670849123
46 1 1 0.0 3.904299974 0.0 23.269849851
47 1 1 0.0 3.904299974 3.904299974 10.670849123
48 1 1 0.0 3.904299974 3.904299974 23.269849851
49 1 1 0.0 1.952149987 1.952149987 8.227650842
50 1 1 0.0 1.952149987 1.952149987 20.826650069
51 1 1 0.0 1.952149987 5.856449962 8.227650842
52 1 1 0.0 1.952149987 5.856449962 20.826650069
53 1 1 0.0 5.856449962 1.952149987 8.227650842
54 1 1 0.0 5.856449962 1.952149987 20.826650069
55 1 1 0.0 5.856449962 5.856449962 8.227650842
56 1 1 0.0 5.856449962 5.856449962 20.826650069
57 1 1 0.0 1.952149987 1.952149987 4.371349135
58 1 1 0.0 1.952149987 1.952149987 16.970349863
59 1 1 0.0 1.952149987 5.856449962 4.371349135
60 1 1 0.0 1.952149987 5.856449962 16.970349863
61 1 1 0.0 5.856449962 1.952149987 4.371349135
62 1 1 0.0 5.856449962 1.952149987 16.970349863
63 1 1 0.0 5.856449962 5.856449962 4.371349135
64 1 1 0.0 5.856449962 5.856449962 16.970349863
65 1 3 0.0 0.0 3.904299974 4.363915768
66 1 3 0.0 0.0 3.904299974 16.962915369
67 1 3 0.0 0.0 0.0 4.363915768
68 1 3 0.0 0.0 0.0 16.962915369
69 1 3 0.0 3.904299974 3.904299974 4.363915768
70 1 3 0.0 3.904299974 3.904299974 16.962915369
71 1 3 0.0 3.904299974 0.0 4.363915768
72 1 3 0.0 3.904299974 0.0 16.962915369
73 1 3 0.0 0.0 3.904299974 8.235084585
74 1 3 0.0 0.0 3.904299974 20.834084562
75 1 3 0.0 0.0 0.0 8.235084585
76 1 3 0.0 0.0 0.0 20.834084562
77 1 3 0.0 3.904299974 3.904299974 8.235084585
78 1 3 0.0 3.904299974 3.904299974 20.834084562
79 1 3 0.0 3.904299974 0.0 8.235084585
80 1 3 0.0 3.904299974 0.0 20.834084562
81 1 3 0.0 1.952149987 1.952149987 10.663415381
82 1 3 0.0 1.952149987 1.952149987 23.262415358
83 1 3 0.0 1.952149987 5.856449962 10.663415381
84 1 3 0.0 1.952149987 5.856449962 23.262415358
85 1 3 0.0 5.856449962 1.952149987 10.663415381
86 1 3 0.0 5.856449962 1.952149987 23.262415358
87 1 3 0.0 5.856449962 5.856449962 10.663415381
88 1 3 0.0 5.856449962 5.856449962 23.262415358
89 1 3 0.0 1.952149987 1.952149987 1.935584408
90 1 3 0.0 1.952149987 1.952149987 14.534584573
91 1 3 0.0 1.952149987 5.856449962 1.935584408
92 1 3 0.0 1.952149987 5.856449962 14.534584573
93 1 3 0.0 5.856449962 1.952149987 1.935584408
94 1 3 0.0 5.856449962 1.952149987 14.534584573
95 1 3 0.0 5.856449962 5.856449962 1.935584408
96 1 3 0.0 5.856449962 5.856449962 14.534584573
97 1 2 0.0 3.904299974 0.0 0.0
98 1 2 0.0 3.904299974 0.0 12.598999977
99 1 2 0.0 3.904299974 3.904299974 0.0
100 1 2 0.0 3.904299974 3.904299974 12.598999977
101 1 2 0.0 0.0 0.0 0.0
102 1 2 0.0 0.0 0.0 12.598999977
103 1 2 0.0 0.0 3.904299974 0.0
104 1 2 0.0 0.0 3.904299974 12.598999977
105 1 2 0.0 1.952149987 1.952149987 6.299499989
106 1 2 0.0 1.952149987 1.952149987 18.898499966
107 1 2 0.0 1.952149987 5.856449962 6.299499989
108 1 2 0.0 1.952149987 5.856449962 18.898499966
109 1 2 0.0 5.856449962 1.952149987 6.299499989
110 1 2 0.0 5.856449962 1.952149987 18.898499966
111 1 2 0.0 5.856449962 5.856449962 6.299499989
112 1 2 0.0 5.856449962 5.856449962 18.898499966
