 # Fcc Pb oriented X=[100], Y=[010], Z=[001].
  
       10147  atoms
           2  atom types
 
      0.000000000000      65.650000000000  xlo xhi
      0.000000000000      65.650000000000  ylo yhi
      0.000000000000      65.650000000000  zlo zhi
 
Masses
 
            1   207.20000000            # Pb
            2   55.84500000             # Fe
 
Atoms # atomic
 
         1    1        0.000000000000       0.000000000000       0.000000000000
         2    1        2.525000101000       2.525000101000       0.000000000000
         3    1        0.000000000000       2.525000101000       2.525000101000
         4    1        2.525000101000       0.000000000000       2.525000101000
         5    1        5.050000202000       0.000000000000       0.000000000000
         6    1        7.575000303000       2.525000101000       0.000000000000
         7    1        5.050000202000       2.525000101000       2.525000101000
         8    1        7.575000303000       0.000000000000       2.525000101000
         9    1       10.099999747500       0.000000000000       0.000000000000
        10    1       12.624999848500       2.525000101000       0.000000000000
        11    1       10.099999747500       2.525000101000       2.525000101000
        12    1       12.624999848500       0.000000000000       2.525000101000
        13    1       15.149999949500       0.000000000000       0.000000000000
        14    1       17.675000050500       2.525000101000       0.000000000000
        15    1       15.149999949500       2.525000101000       2.525000101000
        16    1       17.675000050500       0.000000000000       2.525000101000
        17    1       20.200000151500       0.000000000000       0.000000000000
        18    1       22.725000252500       2.525000101000       0.000000000000
        19    1       20.200000151500       2.525000101000       2.525000101000
        20    1       22.725000252500       0.000000000000       2.525000101000
        21    1       25.249999697000       0.000000000000       0.000000000000
        22    1       27.774999798000       2.525000101000       0.000000000000
        23    1       25.249999697000       2.525000101000       2.525000101000
        24    1       27.774999798000       0.000000000000       2.525000101000
        25    1       30.299999899000       0.000000000000       0.000000000000
        26    1       32.825000000000       2.525000101000       0.000000000000
        27    1       30.299999899000       2.525000101000       2.525000101000
        28    1       32.825000000000       0.000000000000       2.525000101000
        29    1       35.350000101000       0.000000000000       0.000000000000
        30    1       37.875000202000       2.525000101000       0.000000000000
        31    1       35.350000101000       2.525000101000       2.525000101000
        32    1       37.875000202000       0.000000000000       2.525000101000
        33    1       40.400000303000       0.000000000000       0.000000000000
        34    1       42.924999747500       2.525000101000       0.000000000000
        35    1       40.400000303000       2.525000101000       2.525000101000
        36    1       42.924999747500       0.000000000000       2.525000101000
        37    1       45.449999848500       0.000000000000       0.000000000000
        38    1       47.974999949500       2.525000101000       0.000000000000
        39    1       45.449999848500       2.525000101000       2.525000101000
        40    1       47.974999949500       0.000000000000       2.525000101000
        41    1       50.500000050500       0.000000000000       0.000000000000
        42    1       53.025000151500       2.525000101000       0.000000000000
        43    1       50.500000050500       2.525000101000       2.525000101000
        44    1       53.025000151500       0.000000000000       2.525000101000
        45    1       55.550000252500       0.000000000000       0.000000000000
        46    1       58.074999697000       2.525000101000       0.000000000000
        47    1       55.550000252500       2.525000101000       2.525000101000
        48    1       58.074999697000       0.000000000000       2.525000101000
        49    1       60.599999798000       0.000000000000       0.000000000000
        50    1       63.124999899000       2.525000101000       0.000000000000
        51    1       60.599999798000       2.525000101000       2.525000101000
        52    1       63.124999899000       0.000000000000       2.525000101000
        53    1        0.000000000000       5.050000202000       0.000000000000
        54    1        2.525000101000       7.575000303000       0.000000000000
        55    1        0.000000000000       7.575000303000       2.525000101000
        56    1        2.525000101000       5.050000202000       2.525000101000
        57    1        5.050000202000       5.050000202000       0.000000000000
        58    1        7.575000303000       7.575000303000       0.000000000000
        59    1        5.050000202000       7.575000303000       2.525000101000
        60    1        7.575000303000       5.050000202000       2.525000101000
        61    1       10.099999747500       5.050000202000       0.000000000000
        62    1       12.624999848500       7.575000303000       0.000000000000
        63    1       10.099999747500       7.575000303000       2.525000101000
        64    1       12.624999848500       5.050000202000       2.525000101000
        65    1       15.149999949500       5.050000202000       0.000000000000
        66    1       17.675000050500       7.575000303000       0.000000000000
        67    1       15.149999949500       7.575000303000       2.525000101000
        68    1       17.675000050500       5.050000202000       2.525000101000
        69    1       20.200000151500       5.050000202000       0.000000000000
        70    1       22.725000252500       7.575000303000       0.000000000000
        71    1       20.200000151500       7.575000303000       2.525000101000
        72    1       22.725000252500       5.050000202000       2.525000101000
        73    1       25.249999697000       5.050000202000       0.000000000000
        74    1       27.774999798000       7.575000303000       0.000000000000
        75    1       25.249999697000       7.575000303000       2.525000101000
        76    1       27.774999798000       5.050000202000       2.525000101000
        77    1       30.299999899000       5.050000202000       0.000000000000
        78    1       32.825000000000       7.575000303000       0.000000000000
        79    1       30.299999899000       7.575000303000       2.525000101000
        80    1       32.825000000000       5.050000202000       2.525000101000
        81    1       35.350000101000       5.050000202000       0.000000000000
        82    1       37.875000202000       7.575000303000       0.000000000000
        83    1       35.350000101000       7.575000303000       2.525000101000
        84    1       37.875000202000       5.050000202000       2.525000101000
        85    1       40.400000303000       5.050000202000       0.000000000000
        86    1       42.924999747500       7.575000303000       0.000000000000
        87    1       40.400000303000       7.575000303000       2.525000101000
        88    1       42.924999747500       5.050000202000       2.525000101000
        89    1       45.449999848500       5.050000202000       0.000000000000
        90    1       47.974999949500       7.575000303000       0.000000000000
        91    1       45.449999848500       7.575000303000       2.525000101000
        92    1       47.974999949500       5.050000202000       2.525000101000
        93    1       50.500000050500       5.050000202000       0.000000000000
        94    1       53.025000151500       7.575000303000       0.000000000000
        95    1       50.500000050500       7.575000303000       2.525000101000
        96    1       53.025000151500       5.050000202000       2.525000101000
        97    1       55.550000252500       5.050000202000       0.000000000000
        98    1       58.074999697000       7.575000303000       0.000000000000
        99    1       55.550000252500       7.575000303000       2.525000101000
       100    1       58.074999697000       5.050000202000       2.525000101000
       101    1       60.599999798000       5.050000202000       0.000000000000
       102    1       63.124999899000       7.575000303000       0.000000000000
       103    1       60.599999798000       7.575000303000       2.525000101000
       104    1       63.124999899000       5.050000202000       2.525000101000
       105    1        0.000000000000      10.099999747500       0.000000000000
       106    1        2.525000101000      12.624999848500       0.000000000000
       107    1        0.000000000000      12.624999848500       2.525000101000
       108    1        2.525000101000      10.099999747500       2.525000101000
       109    1        5.050000202000      10.099999747500       0.000000000000
       110    1        7.575000303000      12.624999848500       0.000000000000
       111    1        5.050000202000      12.624999848500       2.525000101000
       112    1        7.575000303000      10.099999747500       2.525000101000
       113    1       10.099999747500      10.099999747500       0.000000000000
       114    1       12.624999848500      12.624999848500       0.000000000000
       115    1       10.099999747500      12.624999848500       2.525000101000
       116    1       12.624999848500      10.099999747500       2.525000101000
       117    1       15.149999949500      10.099999747500       0.000000000000
       118    1       17.675000050500      12.624999848500       0.000000000000
       119    1       15.149999949500      12.624999848500       2.525000101000
       120    1       17.675000050500      10.099999747500       2.525000101000
       121    1       20.200000151500      10.099999747500       0.000000000000
       122    1       22.725000252500      12.624999848500       0.000000000000
       123    1       20.200000151500      12.624999848500       2.525000101000
       124    1       22.725000252500      10.099999747500       2.525000101000
       125    1       25.249999697000      10.099999747500       0.000000000000
       126    1       27.774999798000      12.624999848500       0.000000000000
       127    1       25.249999697000      12.624999848500       2.525000101000
       128    1       27.774999798000      10.099999747500       2.525000101000
       129    1       30.299999899000      10.099999747500       0.000000000000
       130    1       32.825000000000      12.624999848500       0.000000000000
       131    1       30.299999899000      12.624999848500       2.525000101000
       132    1       32.825000000000      10.099999747500       2.525000101000
       133    1       35.350000101000      10.099999747500       0.000000000000
       134    1       37.875000202000      12.624999848500       0.000000000000
       135    1       35.350000101000      12.624999848500       2.525000101000
       136    1       37.875000202000      10.099999747500       2.525000101000
       137    1       40.400000303000      10.099999747500       0.000000000000
       138    1       42.924999747500      12.624999848500       0.000000000000
       139    1       40.400000303000      12.624999848500       2.525000101000
       140    1       42.924999747500      10.099999747500       2.525000101000
       141    1       45.449999848500      10.099999747500       0.000000000000
       142    1       47.974999949500      12.624999848500       0.000000000000
       143    1       45.449999848500      12.624999848500       2.525000101000
       144    1       47.974999949500      10.099999747500       2.525000101000
       145    1       50.500000050500      10.099999747500       0.000000000000
       146    1       53.025000151500      12.624999848500       0.000000000000
       147    1       50.500000050500      12.624999848500       2.525000101000
       148    1       53.025000151500      10.099999747500       2.525000101000
       149    1       55.550000252500      10.099999747500       0.000000000000
       150    1       58.074999697000      12.624999848500       0.000000000000
       151    1       55.550000252500      12.624999848500       2.525000101000
       152    1       58.074999697000      10.099999747500       2.525000101000
       153    1       60.599999798000      10.099999747500       0.000000000000
       154    1       63.124999899000      12.624999848500       0.000000000000
       155    1       60.599999798000      12.624999848500       2.525000101000
       156    1       63.124999899000      10.099999747500       2.525000101000
       157    1        0.000000000000      15.149999949500       0.000000000000
       158    1        2.525000101000      17.675000050500       0.000000000000
       159    1        0.000000000000      17.675000050500       2.525000101000
       160    1        2.525000101000      15.149999949500       2.525000101000
       161    1        5.050000202000      15.149999949500       0.000000000000
       162    1        7.575000303000      17.675000050500       0.000000000000
       163    1        5.050000202000      17.675000050500       2.525000101000
       164    1        7.575000303000      15.149999949500       2.525000101000
       165    1       10.099999747500      15.149999949500       0.000000000000
       166    1       12.624999848500      17.675000050500       0.000000000000
       167    1       10.099999747500      17.675000050500       2.525000101000
       168    1       12.624999848500      15.149999949500       2.525000101000
       169    1       15.149999949500      15.149999949500       0.000000000000
       170    1       17.675000050500      17.675000050500       0.000000000000
       171    1       15.149999949500      17.675000050500       2.525000101000
       172    1       17.675000050500      15.149999949500       2.525000101000
       173    1       20.200000151500      15.149999949500       0.000000000000
       174    1       22.725000252500      17.675000050500       0.000000000000
       175    1       20.200000151500      17.675000050500       2.525000101000
       176    1       22.725000252500      15.149999949500       2.525000101000
       177    1       25.249999697000      15.149999949500       0.000000000000
       178    1       27.774999798000      17.675000050500       0.000000000000
       179    1       25.249999697000      17.675000050500       2.525000101000
       180    1       27.774999798000      15.149999949500       2.525000101000
       181    1       30.299999899000      15.149999949500       0.000000000000
       182    1       32.825000000000      17.675000050500       0.000000000000
       183    1       30.299999899000      17.675000050500       2.525000101000
       184    1       32.825000000000      15.149999949500       2.525000101000
       185    1       35.350000101000      15.149999949500       0.000000000000
       186    1       37.875000202000      17.675000050500       0.000000000000
       187    1       35.350000101000      17.675000050500       2.525000101000
       188    1       37.875000202000      15.149999949500       2.525000101000
       189    1       40.400000303000      15.149999949500       0.000000000000
       190    1       42.924999747500      17.675000050500       0.000000000000
       191    1       40.400000303000      17.675000050500       2.525000101000
       192    1       42.924999747500      15.149999949500       2.525000101000
       193    1       45.449999848500      15.149999949500       0.000000000000
       194    1       47.974999949500      17.675000050500       0.000000000000
       195    1       45.449999848500      17.675000050500       2.525000101000
       196    1       47.974999949500      15.149999949500       2.525000101000
       197    1       50.500000050500      15.149999949500       0.000000000000
       198    1       53.025000151500      17.675000050500       0.000000000000
       199    1       50.500000050500      17.675000050500       2.525000101000
       200    1       53.025000151500      15.149999949500       2.525000101000
       201    1       55.550000252500      15.149999949500       0.000000000000
       202    1       58.074999697000      17.675000050500       0.000000000000
       203    1       55.550000252500      17.675000050500       2.525000101000
       204    1       58.074999697000      15.149999949500       2.525000101000
       205    1       60.599999798000      15.149999949500       0.000000000000
       206    1       63.124999899000      17.675000050500       0.000000000000
       207    1       60.599999798000      17.675000050500       2.525000101000
       208    1       63.124999899000      15.149999949500       2.525000101000
       209    1        0.000000000000      20.200000151500       0.000000000000
       210    1        2.525000101000      22.725000252500       0.000000000000
       211    1        0.000000000000      22.725000252500       2.525000101000
       212    1        2.525000101000      20.200000151500       2.525000101000
       213    1        5.050000202000      20.200000151500       0.000000000000
       214    1        7.575000303000      22.725000252500       0.000000000000
       215    1        5.050000202000      22.725000252500       2.525000101000
       216    1        7.575000303000      20.200000151500       2.525000101000
       217    1       10.099999747500      20.200000151500       0.000000000000
       218    1       12.624999848500      22.725000252500       0.000000000000
       219    1       10.099999747500      22.725000252500       2.525000101000
       220    1       12.624999848500      20.200000151500       2.525000101000
       221    1       15.149999949500      20.200000151500       0.000000000000
       222    1       17.675000050500      22.725000252500       0.000000000000
       223    1       15.149999949500      22.725000252500       2.525000101000
       224    1       17.675000050500      20.200000151500       2.525000101000
       225    1       20.200000151500      20.200000151500       0.000000000000
       226    1       22.725000252500      22.725000252500       0.000000000000
       227    1       20.200000151500      22.725000252500       2.525000101000
       228    1       22.725000252500      20.200000151500       2.525000101000
       229    1       25.249999697000      20.200000151500       0.000000000000
       230    1       27.774999798000      22.725000252500       0.000000000000
       231    1       25.249999697000      22.725000252500       2.525000101000
       232    1       27.774999798000      20.200000151500       2.525000101000
       233    1       30.299999899000      20.200000151500       0.000000000000
       234    1       32.825000000000      22.725000252500       0.000000000000
       235    1       30.299999899000      22.725000252500       2.525000101000
       236    1       32.825000000000      20.200000151500       2.525000101000
       237    1       35.350000101000      20.200000151500       0.000000000000
       238    1       37.875000202000      22.725000252500       0.000000000000
       239    1       35.350000101000      22.725000252500       2.525000101000
       240    1       37.875000202000      20.200000151500       2.525000101000
       241    1       40.400000303000      20.200000151500       0.000000000000
       242    1       42.924999747500      22.725000252500       0.000000000000
       243    1       40.400000303000      22.725000252500       2.525000101000
       244    1       42.924999747500      20.200000151500       2.525000101000
       245    1       45.449999848500      20.200000151500       0.000000000000
       246    1       47.974999949500      22.725000252500       0.000000000000
       247    1       45.449999848500      22.725000252500       2.525000101000
       248    1       47.974999949500      20.200000151500       2.525000101000
       249    1       50.500000050500      20.200000151500       0.000000000000
       250    1       53.025000151500      22.725000252500       0.000000000000
       251    1       50.500000050500      22.725000252500       2.525000101000
       252    1       53.025000151500      20.200000151500       2.525000101000
       253    1       55.550000252500      20.200000151500       0.000000000000
       254    1       58.074999697000      22.725000252500       0.000000000000
       255    1       55.550000252500      22.725000252500       2.525000101000
       256    1       58.074999697000      20.200000151500       2.525000101000
       257    1       60.599999798000      20.200000151500       0.000000000000
       258    1       63.124999899000      22.725000252500       0.000000000000
       259    1       60.599999798000      22.725000252500       2.525000101000
       260    1       63.124999899000      20.200000151500       2.525000101000
       261    1        0.000000000000      25.249999697000       0.000000000000
       262    1        2.525000101000      27.774999798000       0.000000000000
       263    1        0.000000000000      27.774999798000       2.525000101000
       264    1        2.525000101000      25.249999697000       2.525000101000
       265    1        5.050000202000      25.249999697000       0.000000000000
       266    1        7.575000303000      27.774999798000       0.000000000000
       267    1        5.050000202000      27.774999798000       2.525000101000
       268    1        7.575000303000      25.249999697000       2.525000101000
       269    1       10.099999747500      25.249999697000       0.000000000000
       270    1       12.624999848500      27.774999798000       0.000000000000
       271    1       10.099999747500      27.774999798000       2.525000101000
       272    1       12.624999848500      25.249999697000       2.525000101000
       273    1       15.149999949500      25.249999697000       0.000000000000
       274    1       17.675000050500      27.774999798000       0.000000000000
       275    1       15.149999949500      27.774999798000       2.525000101000
       276    1       17.675000050500      25.249999697000       2.525000101000
       277    1       20.200000151500      25.249999697000       0.000000000000
       278    1       22.725000252500      27.774999798000       0.000000000000
       279    1       20.200000151500      27.774999798000       2.525000101000
       280    1       22.725000252500      25.249999697000       2.525000101000
       281    1       25.249999697000      25.249999697000       0.000000000000
       282    1       27.774999798000      27.774999798000       0.000000000000
       283    1       25.249999697000      27.774999798000       2.525000101000
       284    1       27.774999798000      25.249999697000       2.525000101000
       285    1       30.299999899000      25.249999697000       0.000000000000
       286    1       32.825000000000      27.774999798000       0.000000000000
       287    1       30.299999899000      27.774999798000       2.525000101000
       288    1       32.825000000000      25.249999697000       2.525000101000
       289    1       35.350000101000      25.249999697000       0.000000000000
       290    1       37.875000202000      27.774999798000       0.000000000000
       291    1       35.350000101000      27.774999798000       2.525000101000
       292    1       37.875000202000      25.249999697000       2.525000101000
       293    1       40.400000303000      25.249999697000       0.000000000000
       294    1       42.924999747500      27.774999798000       0.000000000000
       295    1       40.400000303000      27.774999798000       2.525000101000
       296    1       42.924999747500      25.249999697000       2.525000101000
       297    1       45.449999848500      25.249999697000       0.000000000000
       298    1       47.974999949500      27.774999798000       0.000000000000
       299    1       45.449999848500      27.774999798000       2.525000101000
       300    1       47.974999949500      25.249999697000       2.525000101000
       301    1       50.500000050500      25.249999697000       0.000000000000
       302    1       53.025000151500      27.774999798000       0.000000000000
       303    1       50.500000050500      27.774999798000       2.525000101000
       304    1       53.025000151500      25.249999697000       2.525000101000
       305    1       55.550000252500      25.249999697000       0.000000000000
       306    1       58.074999697000      27.774999798000       0.000000000000
       307    1       55.550000252500      27.774999798000       2.525000101000
       308    1       58.074999697000      25.249999697000       2.525000101000
       309    1       60.599999798000      25.249999697000       0.000000000000
       310    1       63.124999899000      27.774999798000       0.000000000000
       311    1       60.599999798000      27.774999798000       2.525000101000
       312    1       63.124999899000      25.249999697000       2.525000101000
       313    1        0.000000000000      30.299999899000       0.000000000000
       314    1        2.525000101000      32.825000000000       0.000000000000
       315    1        0.000000000000      32.825000000000       2.525000101000
       316    1        2.525000101000      30.299999899000       2.525000101000
       317    1        5.050000202000      30.299999899000       0.000000000000
       318    1        7.575000303000      32.825000000000       0.000000000000
       319    1        5.050000202000      32.825000000000       2.525000101000
       320    1        7.575000303000      30.299999899000       2.525000101000
       321    1       10.099999747500      30.299999899000       0.000000000000
       322    1       12.624999848500      32.825000000000       0.000000000000
       323    1       10.099999747500      32.825000000000       2.525000101000
       324    1       12.624999848500      30.299999899000       2.525000101000
       325    1       15.149999949500      30.299999899000       0.000000000000
       326    1       17.675000050500      32.825000000000       0.000000000000
       327    1       15.149999949500      32.825000000000       2.525000101000
       328    1       17.675000050500      30.299999899000       2.525000101000
       329    1       20.200000151500      30.299999899000       0.000000000000
       330    1       22.725000252500      32.825000000000       0.000000000000
       331    1       20.200000151500      32.825000000000       2.525000101000
       332    1       22.725000252500      30.299999899000       2.525000101000
       333    1       25.249999697000      30.299999899000       0.000000000000
       334    1       27.774999798000      32.825000000000       0.000000000000
       335    1       25.249999697000      32.825000000000       2.525000101000
       336    1       27.774999798000      30.299999899000       2.525000101000
       337    1       30.299999899000      30.299999899000       0.000000000000
       338    1       32.825000000000      32.825000000000       0.000000000000
       339    1       30.299999899000      32.825000000000       2.525000101000
       340    1       32.825000000000      30.299999899000       2.525000101000
       341    1       35.350000101000      30.299999899000       0.000000000000
       342    1       37.875000202000      32.825000000000       0.000000000000
       343    1       35.350000101000      32.825000000000       2.525000101000
       344    1       37.875000202000      30.299999899000       2.525000101000
       345    1       40.400000303000      30.299999899000       0.000000000000
       346    1       42.924999747500      32.825000000000       0.000000000000
       347    1       40.400000303000      32.825000000000       2.525000101000
       348    1       42.924999747500      30.299999899000       2.525000101000
       349    1       45.449999848500      30.299999899000       0.000000000000
       350    1       47.974999949500      32.825000000000       0.000000000000
       351    1       45.449999848500      32.825000000000       2.525000101000
       352    1       47.974999949500      30.299999899000       2.525000101000
       353    1       50.500000050500      30.299999899000       0.000000000000
       354    1       53.025000151500      32.825000000000       0.000000000000
       355    1       50.500000050500      32.825000000000       2.525000101000
       356    1       53.025000151500      30.299999899000       2.525000101000
       357    1       55.550000252500      30.299999899000       0.000000000000
       358    1       58.074999697000      32.825000000000       0.000000000000
       359    1       55.550000252500      32.825000000000       2.525000101000
       360    1       58.074999697000      30.299999899000       2.525000101000
       361    1       60.599999798000      30.299999899000       0.000000000000
       362    1       63.124999899000      32.825000000000       0.000000000000
       363    1       60.599999798000      32.825000000000       2.525000101000
       364    1       63.124999899000      30.299999899000       2.525000101000
       365    1        0.000000000000      35.350000101000       0.000000000000
       366    1        2.525000101000      37.875000202000       0.000000000000
       367    1        0.000000000000      37.875000202000       2.525000101000
       368    1        2.525000101000      35.350000101000       2.525000101000
       369    1        5.050000202000      35.350000101000       0.000000000000
       370    1        7.575000303000      37.875000202000       0.000000000000