# LAMMPS data file written by OVITO Basic 3.8.4

2 atoms
2 atom types

0.0 2.844 xlo xhi
0.0 2.844 ylo yhi
0.0 2.844 zlo zhi

Masses

1 55.845  # Fe
2 4.0026  # He

Atoms  # atomic

1 1 0.0 0.0 0.0
2 2 1.422 1.422 1.422
