LAMMPS data file via write_data, version 22 Dec 2022, timestep = 1000

21182 atoms
1 atom types

-0.31065071994571625 50.31065071994571 xlo xhi
-0.6213014398914325 100.62130143989143 ylo yhi
-0.31065071994571625 50.31065071994571 zlo zhi

Masses

1 63.546

Atoms # atomic

1 1 -0.10808283413084863 0.07091428974461822 -0.09222130734829587 0 0 0
1454 1 31.182918691741765 44.13931314897096 21.077697921969673 0 0 0
656 1 38.441577863791665 48.03407427035854 21.676706380644482 0 0 0
4 1 -0.003702266612633176 1.8071548711294056 1.726392740982012 0 0 0
5 1 3.525622580986646 0.04430539022062019 -0.06790144913288623 0 0 0
8 1 3.5377554565028007 1.859045220096176 1.748208243619859 0 0 0
57 1 0.018672044228185636 3.5420030254946235 -0.06829713144301633 0 0 0
59 1 1.79062095620864 3.59770798593427 1.7240573784034385 0 0 0
61 1 3.6553334552670464 3.645114677498862 -0.0018767727336694295 0 0 0
664 1 34.800241648516206 47.96048980402972 21.61822520748712 0 0 0
786 1 1.7720922411785613 1.876678932695568 3.585988813968203 0 0 0
789 1 3.4732663077520494 0.05667109402073944 3.6067269923809513 0 0 0
841 1 -0.01789361267361278 3.574029601558899 3.559726727897126 0 0 0
845 1 3.536073586471656 3.6840017819366224 3.5753525120689074 0 0 0
6 1 5.36390791995434 1.9214273723451467 -0.028011132587203225 0 0 0
7 1 5.27909515301161 0.08447773668886471 1.7097865458540586 0 0 0
9 1 7.159513030909724 0.04995094581184634 -0.018242289334845063 0 0 0
12 1 7.199131660832514 1.992924109443436 1.757795263337059 0 0 0
63 1 5.388522684289212 3.757062311069367 1.7821848691943787 0 0 0
65 1 7.282076510084225 3.736672765977942 -0.016171616192050542 0 0 0
790 1 5.3204940648051755 1.922649722592701 3.5508961422469807 0 0 0
662 1 34.81424966310368 46.2724884815172 23.536417341270397 0 0 0
849 1 7.219339163036736 3.7924128957008403 3.5706964795652776 0 0 0
10 1 8.967946513082342 1.8705703832958558 -0.04530515146982461 0 0 0
658 1 36.68780073151798 46.200868835592956 21.869514202173367 0 0 0
13 1 10.706072255198581 -0.04326031647749029 -0.049811442748704415 0 0 0
16 1 10.784071142927594 1.846658751859461 1.7802458091487745 0 0 0
67 1 9.068859830275494 3.721892059307007 1.7670917542722924 0 0 0
1452 1 30.84514693857088 43.25989713324133 23.381628620658965 0 0 0
794 1 8.936855928297694 1.9357441884843447 3.6046730734878913 0 0 0
797 1 10.721569256633781 0.06148936204693922 3.5328435509911094 0 0 0
853 1 10.816553151303628 3.7708146017497803 3.5669066656545083 0 0 0
1448 1 33.00937329865623 42.485052549832915 22.194605065837333 0 0 0
654 1 36.64529106203206 48.109759925206745 23.454825210375592 0 0 0
17 1 14.296230889602223 -0.0008694883981699153 -0.04377235089761822 0 0 0
18 1 16.085840629660904 1.8595847212098344 -0.01155245311620079 0 0 0
672 1 31.06494746255204 48.137169617253164 21.604282629823427 0 0 0
20 1 14.376292544652088 1.8295560988090505 1.8062382937566355 0 0 0
71 1 12.588567502494284 3.6838328382600274 1.7338792079651983 0 0 0
73 1 14.34271408008868 3.7011477244524125 -0.01637890983846213 0 0 0
75 1 16.152479552904655 3.760401744146285 1.7681804607159148 0 0 0
798 1 12.561438854194167 1.9105038564468235 3.6069358048180264 0 0 0
801 1 14.273891848602105 -0.022436186790836588 3.6109973642100863 0 0 0
802 1 16.112259600424416 1.8623681171077222 3.599024969149645 0 0 0
857 1 14.345574771332055 3.749839212585311 3.5721457424024563 0 0 0
21 1 17.857609653666717 0.0017245177171240078 -0.02182817293228978 0 0 0
22 1 19.716371301497674 1.9505011309378242 -0.07953812842213462 0 0 0
670 1 30.987745634596454 46.1486159475524 23.25955772829438 0 0 0
24 1 17.924800480925356 1.8588718195416138 1.774200319688664 0 0 0
77 1 17.895988027689302 3.710681223907457 -0.00704512350000186 0 0 0
79 1 19.66999923557546 3.757087209961564 1.826396897396942 0 0 0
666 1 33.05034147004483 46.023349209366636 21.58596005602318 0 0 0
806 1 19.73463314443821 1.9335296553256733 3.589996402216201 0 0 0
861 1 17.89561220294659 3.766797614675731 3.5569308182665313 0 0 0
25 1 21.490439932181996 -0.015375818548733267 -0.027795132376623677 0 0 0
26 1 23.35363730836281 1.8816439961916007 -0.03414087373406821 0 0 0
27 1 23.342749517453786 0.028124341934752217 1.7562166096463576 0 0 0
28 1 21.546267657548547 1.9099864295822075 1.7291833960228638 0 0 0
81 1 21.588113674480148 3.702234037710295 -0.05395013020601419 0 0 0
83 1 23.419007050311443 3.738841143173107 1.7405037059337154 0 0 0
809 1 21.511231769528727 0.05532451584363707 3.6042569226993564 0 0 0
810 1 23.42653468141949 1.8900115066732184 3.561306754676947 0 0 0
865 1 21.579982432890528 3.7525179909896433 3.538528344476367 0 0 0
29 1 25.220971446728132 -0.03182606799636034 -0.056951715239609346 0 0 0
1444 1 32.92779148000862 44.63678110485967 23.555703277065138 0 0 0
660 1 32.95621926832118 47.91890382103704 23.29619722280992 0 0 0
32 1 25.242697795462806 1.8395616741917689 1.7316376759648588 0 0 0
33 1 28.872179778149878 -0.04206793346044613 -0.07057976369941951 0 0 0
36 1 28.918100297762482 1.7498913790484578 1.7736614271759912 0 0 0
1499 1 25.132007336773057 43.20720159126862 21.524776819304986 0 0 0
87 1 27.124908999410543 3.656944681311426 1.7690182160274635 0 0 0
1498 1 26.969000463262653 45.00700688328979 21.656871477396738 0 0 0
813 1 25.238565265893097 -0.005465840920504728 3.5568601236700914 0 0 0
814 1 27.106978570632148 1.8586168464315374 3.498297877493413 0 0 0
716 1 25.296920799183635 46.818572011204694 21.612043916919912 0 0 0
869 1 25.243835298687962 3.692328365175052 3.6352722458558353 0 0 0
873 1 28.851956266788147 3.6053386455449283 3.589392253523172 0 0 0
34 1 30.69575236348791 1.7759541634556428 -0.04113141688039573 0 0 0
35 1 30.74913525159786 -0.05985994838246356 1.7648485245456 0 0 0
37 1 32.51719445373993 0.009140561499105804 -0.049484512464669006 0 0 0
40 1 32.4480288332594 1.7751630065962605 1.788402667379235 0 0 0
91 1 30.630974778724724 3.532585799083532 1.8081190674383838 0 0 0
1497 1 26.860052677130128 43.19684669042255 23.433534801126303 0 0 0
818 1 30.720195502302357 1.8374618545353978 3.5957046339900574 0 0 0
821 1 32.54400808069353 -0.011020702302938834 3.5966779172870837 0 0 0
877 1 32.51871169168852 3.5885228072604543 3.5827679539112385 0 0 0
38 1 34.21997208767441 1.7464557079086913 -0.01015361056593761 0 0 0
715 1 27.259835518640248 48.449737948775336 21.701209064319176 0 0 0
41 1 36.10078159850748 0.0060913077469219035 -0.0986166732451623 0 0 0
44 1 36.100311352292636 1.796154647782648 1.7881151761222713 0 0 0
95 1 34.26573800647637 3.5033345152865953 1.7879926508909056 0 0 0
1495 1 25.09158948186211 44.973066459794794 23.449523167736473 0 0 0
822 1 34.262555230261086 1.803535848884363 3.622852826702795 0 0 0
714 1 27.070267959909657 46.700463535748796 23.495838761507155 0 0 0
881 1 36.080013782817616 3.487798046814489 3.636987127106586 0 0 0
42 1 37.90670500436215 1.696507419116669 -0.015440088676251129 0 0 0
43 1 37.879700910364676 0.016991132824516808 1.7577716534115027 0 0 0
45 1 39.75415325882119 0.020942103994189054 -0.02566767191845548 0 0 0
46 1 41.519545793027845 1.8247496310358655 -0.04173928204750932 0 0 0
47 1 41.53133421137649 0.028447871932153035 1.7795573628513663 0 0 0
48 1 39.695923023819006 1.7677281167056478 1.8268691735978573 0 0 0
99 1 37.83179902844002 3.4937145044280635 1.7362138277191215 0 0 0
101 1 39.674454857253735 3.4345910270720594 -0.10661489824193604 0 0 0
103 1 41.50343489368694 3.524075576092258 1.7514109104531101 0 0 0
826 1 37.87115958656939 1.8001394939009456 3.6323856964061734 0 0 0
829 1 39.709078997337556 0.010125585066091958 3.6468328349902266 0 0 0
830 1 41.51277886124147 1.8214568573057535 3.653891436293495 0 0 0
885 1 39.70083449755998 3.5527870679204883 3.6163523332754743 0 0 0
49 1 43.333579909041944 0.096457220284759 -0.02066414963679103 0 0 0
50 1 45.12783933037106 1.8660972947106762 -0.03673473371417885 0 0 0
51 1 45.11910078302519 0.001992107355986872 1.7778674687202396 0 0 0
52 1 43.31940123425093 1.786954017922107 1.8385907868672366 0 0 0
105 1 43.3375468984235 3.556447352469447 -0.0492491621666602 0 0 0
107 1 45.16579232036267 3.5498820456967213 1.7988167310225416 0 0 0
833 1 43.27530271477269 -0.02904846709409492 3.6435803821683006 0 0 0
834 1 45.11686750336399 1.863048768002045 3.632586854793253 0 0 0
889 1 43.2980270938573 3.575683010498804 3.5955246747667924 0 0 0
53 1 46.891518195251464 0.0723543973754932 -0.038618695876406206 0 0 0
54 1 48.729101137809366 1.778796224628929 -0.04533111887576535 0 0 0
55 1 48.70278957125947 0.032159692108765126 1.719651489750642 0 0 0
56 1 46.87424158361229 1.8109191778299727 1.790460847822387 0 0 0
109 1 47.04900067809915 3.5777191083795588 -0.018969636121600908 0 0 0
111 1 48.837869637980646 3.5396980134901357 1.796239450677136 0 0 0
713 1 25.29808534538258 48.59806445066316 23.42280538982325 0 0 0
838 1 48.70762015349207 1.8430244971925105 3.5581202603439874 0 0 0
893 1 47.05349137788747 3.5568650687758305 3.6281603922832133 0 0 0
58 1 1.8695554349753665 5.361489189643184 -0.07958538259974623 0 0 0
60 1 0.032073967649920154 5.3169768265204915 1.7921079569398177 0 0 0
64 1 3.6250970552190336 5.46791738127147 1.765443412230356 0 0 0
113 1 0.08660604911366093 7.085427265819424 -0.011692362103097098 0 0 0
115 1 1.8261791119551192 7.23259317279977 1.7270753132229149 0 0 0
117 1 3.682729756638092 7.249659998432832 -0.041845573984626294 0 0 0
842 1 1.8299570266291836 5.42756130806083 3.5650265375743544 0 0 0
897 1 0.09258655518375847 7.168389830899484 3.581514587114937 0 0 0
901 1 3.6346631074733255 7.242727438662864 3.543398476052939 0 0 0
1456 1 28.797958072691145 43.293199299629876 21.70174617466642 0 0 0
68 1 7.3558950008022075 5.499081759887519 1.755436891445806 0 0 0
119 1 5.552112904630172 7.248520619252767 1.7742805189585074 0 0 0
121 1 7.382981142905501 7.249165994297878 -0.012168036605321342 0 0 0
846 1 5.4748771022602 5.4785969071850245 3.5787840369683805 0 0 0
905 1 7.329359158766713 7.241890913210492 3.5608202899974817 0 0 0
1450 1 28.814093664418003 44.88108738622934 23.506941305220103 0 0 0
72 1 10.858269249670453 5.530593715773335 1.7839097039734337 0 0 0
123 1 9.149861881178154 7.289431104895337 1.7628478110495607 0 0 0
125 1 10.89867762402694 7.2446510248539555 -0.05663545920243196 0 0 0
850 1 9.09670577935882 5.561564765791987 3.62318434242604 0 0 0
909 1 10.935636457321444 7.317229758815131 3.5940271781439437 0 0 0
70 1 12.58571202658467 5.479273402570278 -0.07291108238014227 0 0 0
74 1 16.120655749939957 5.530711210920209 -0.08189468734142005 0 0 0
76 1 14.3619412475756 5.5996133647877615 1.754634224219585 0 0 0
127 1 12.639844376902486 7.369335720552331 1.7048827794549295 0 0 0
1503 1 21.4527810466307 43.35815000614785 21.66902500572942 0 0 0
131 1 16.09823647694799 7.338248177127032 1.7445081376699285 0 0 0
854 1 12.586951898453824 5.579757136680636 3.571225948952269 0 0 0
858 1 16.133493374381178 5.578983868411173 3.5583916126711133 0 0 0
913 1 14.37294316543654 7.391686411851815 3.614444756712694 0 0 0
78 1 19.66007853799586 5.484477270972694 -0.01361956302596462 0 0 0
80 1 17.905002155698583 5.56929553112127 1.7541013103061482 0 0 0
133 1 17.88104909589844 7.302896255986877 -0.028172660612328038 0 0 0
135 1 19.686389674823626 7.290307315687596 1.7839410973596128 0 0 0
862 1 19.653869891840618 5.550927286852134 3.5917262503985845 0 0 0
917 1 17.94951939523761 7.339324218298216 3.571474270517681 0 0 0
82 1 23.34966039536693 5.435869020350935 -0.08949622302640864 0 0 0
84 1 21.443620803017083 5.458241280620422 1.716037008552266 0 0 0
137 1 21.436863053829757 7.25057604809537 -0.0590604276445299 0 0 0
139 1 23.30369208906667 7.177101790232502 1.6954095354831287 0 0 0
866 1 23.346347872222776 5.501234904210349 3.5657702722633458 0 0 0
921 1 21.50079115854357 7.272642811842148 3.6209098583650268 0 0 0
86 1 26.963467877214345 5.422566105405333 -0.07434827236338495 0 0 0
88 1 25.166457364295194 5.423589228566306 1.7742337109476947 0 0 0
92 1 28.831788931052937 5.386176416115944 1.7701930460718747 0 0 0
1502 1 23.37186835386967 45.0060526843009 21.681028060885698 0 0 0
143 1 26.990433023653278 7.244607091408925 1.6954343069107844 0 0 0
145 1 28.821201603225056 7.221813416087161 -0.046903211253564836 0 0 0
870 1 27.020420083495782 5.4916855633022905 3.5569011726657576 0 0 0
925 1 25.191677877020133 7.240635528281845 3.572908932600694 0 0 0
929 1 28.83972879572275 7.2366647511706015 3.574557739537697 0 0 0
90 1 30.65289507843085 5.395835707961189 -0.01738836628085405 0 0 0
96 1 32.46228415919805 5.326192399360813 1.7651739570164753 0 0 0
147 1 30.65939052735845 7.129208991460291 1.7440056623079871 0 0 0
1501 1 23.31957559807424 43.16183890077856 23.423967884351793 0 0 0
874 1 30.657481347230274 5.299947912106519 3.55411975888224 0 0 0
933 1 32.53114112561637 7.085888263925677 3.588260336197038 0 0 0
1500 1 21.68326242196311 45.1424328253309 23.50006753791479 0 0 0
100 1 36.097794664757714 5.273479386207904 1.727318571231777 0 0 0
151 1 34.348495978482006 7.082685360866103 1.7563003742456527 0 0 0
153 1 36.15696146445468 7.022830381631082 -0.10608535174634817 0 0 0
878 1 34.28955785429342 5.3119852327329715 3.6034524782762216 0 0 0
937 1 36.084731021588794 7.060257101946111 3.5572061281052028 0 0 0
98 1 37.88015907314349 5.203424656987659 -0.05436248467999816 0 0 0
1507 1 17.94986106169753 43.524202614874724 21.65650394448254 0 0 0
104 1 39.726586323770704 5.2629130270244024 1.7076224449295263 0 0 0
155 1 37.867767745678975 6.958551630180483 1.7103054727485039 0 0 0
1506 1 19.8696766010261 45.311304382627185 21.712428794139825 0 0 0
159 1 41.57248178561828 7.032145669381209 1.7028974169022315 0 0 0
882 1 37.799759160647696 5.246243578008641 3.553001593092328 0 0 0
886 1 41.53299802300447 5.251870454744379 3.537606950063811 0 0 0
941 1 39.7023863491258 6.969013606333059 3.5439683462996032 0 0 0
106 1 45.19580833270567 5.33688216739184 -0.024909616346691477 0 0 0
108 1 43.381313126709884 5.268871499236727 1.7511270797570622 0 0 0
161 1 43.406111128178324 7.002221919393793 -0.00036211384370582467 0 0 0
163 1 45.30463926056814 7.021641662953442 1.7811716041104493 0 0 0
890 1 45.24138662694837 5.288340491694071 3.538720473212034 0 0 0
945 1 43.405768119807746 7.024252261538261 3.551273143403358 0 0 0
110 1 48.820794618794295 5.297114418577218 0.053525216661140185 0 0 0
112 1 47.05159739072734 5.277668623076603 1.8009712071341792 0 0 0
165 1 47.12168986258317 7.0145689915929585 0.019040245119384236 0 0 0
167 1 48.91267630257961 7.138449668438891 1.7746092932682331 0 0 0
894 1 48.83513558156734 5.328686091113464 3.584534089557099 0 0 0
949 1 47.11217058185002 7.053709361989332 3.5551725301416277 0 0 0
114 1 1.7875873873265808 9.033155758718461 -0.09021887217469624 0 0 0
116 1 0.01368411088253757 8.972479968893163 1.7520004668156104 0 0 0
120 1 3.648289512598373 9.00786215819919 1.6912867088544044 0 0 0
1505 1 19.723239803393017 43.548954605007005 23.48499895937523 0 0 0
171 1 1.7858282558617447 10.804380360990177 1.7196577336470904 0 0 0
173 1 3.577253953751377 10.857158421804277 -0.0464465097127712 0 0 0
898 1 1.7716042025685304 8.990348859588812 3.5320230410996065 0 0 0
953 1 0.0009064202887063 10.81405399061747 3.564362912934659 0 0 0
957 1 3.6173183560451534 10.76362756645282 3.5380034531924704 0 0 0
118 1 5.492986955073747 9.097142361705972 -0.02993330291029095 0 0 0
124 1 7.3449885983862115 9.072083611730665 1.7369840932436764 0 0 0
175 1 5.464841354935353 10.858611208077374 1.7420002349884527 0 0 0
177 1 7.264658826906481 10.966129089146829 -0.043802591332658236 0 0 0
902 1 5.476067082494115 9.038349151118208 3.5529081951657266 0 0 0
961 1 7.271175219418681 10.905289113566269 3.64016009186676 0 0 0
1504 1 18.001672126888202 45.25371936385991 23.43780803854702 0 0 0
128 1 10.910075259184431 9.141418727872894 1.7249496076538575 0 0 0
179 1 9.060626590687493 10.937411649178552 1.7491618092438004 0 0 0
181 1 10.850082061980906 11.049409692506773 -0.06606060323939936 0 0 0
906 1 9.094919519884655 9.05394038541232 3.559781045173313 0 0 0
965 1 10.931083113188219 10.928930203964777 3.596353110841051 0 0 0
126 1 12.624446787988742 9.276429202738665 -0.06914446701808924 0 0 0
130 1 16.126124595157467 9.230453120543224 -0.09648003747632192 0 0 0
132 1 14.424169985850659 9.267460293690656 1.7424279211583737 0 0 0
183 1 12.69532227068229 11.081583702796594 1.7289179809789634 0 0 0
185 1 14.4608878927348 11.195735740992905 -0.11324676623739865 0 0 0
187 1 16.22427959615435 11.084958562832673 1.7729703985378205 0 0 0
910 1 12.653726734345549 9.18709467574046 3.5605670548038333 0 0 0
914 1 16.206921217071287 9.151323036287268 3.584949478575928 0 0 0
969 1 14.484747375789919 11.075409460090931 3.6174287706399757 0 0 0
1557 1 12.534208771957031 45.35764611724624 21.70370723243546 0 0 0
136 1 17.948787913091078 9.19419788318289 1.7312576368616406 0 0 0
189 1 17.976610318758613 11.115976555539069 -0.06379505557058007 0 0 0
191 1 19.77631417667878 11.05832725280339 1.7604981874028152 0 0 0
918 1 19.792319562847236 9.143378905098876 3.5909485627400217 0 0 0
973 1 17.9912414869871 11.020883505381951 3.6642651738246066 0 0 0
1555 1 12.581557439274905 43.59233446349957 23.42796107701454 0 0 0
140 1 21.565695948461478 9.095807769159304 1.7611745333720212 0 0 0
193 1 21.64349646008648 11.088979784552777 -0.0474395984040073 0 0 0
195 1 23.430957380376203 10.961605199505321 1.8226361915981322 0 0 0
922 1 23.394401343627713 9.036618769865663 3.611142918440235 0 0 0
977 1 21.667609460614717 10.963109864963489 3.6734180989587215 0 0 0
1511 1 14.2971290232171 43.531797606048315 21.64856516660039 0 0 0
144 1 25.267181573244514 9.106705946331862 1.7751580151402053 0 0 0
148 1 28.929056711580593 9.026591918162389 1.7517040750999615 0 0 0
197 1 25.256029729134266 11.022296005179125 -0.03516548943290437 0 0 0
199 1 27.101833669159905 10.916940294057474 1.7060186987738852 0 0 0
201 1 28.900039543053335 10.91200362308333 -0.045095975426879265 0 0 0
926 1 27.087622456876257 9.001810819492484 3.6024312955938576 0 0 0
981 1 25.290191330991682 10.87233900338163 3.5751889606224627 0 0 0
985 1 28.905214693122335 10.788308976572464 3.6232786703176267 0 0 0
146 1 30.688157367209794 8.966193214026712 -0.041984015056535484 0 0 0
152 1 32.52078180973581 8.911795241663325 1.7872756227779814 0 0 0
203 1 30.729341134546647 10.763045347215714 1.8214653568548407 0 0 0
1510 1 16.12977523419521 45.21420719511434 21.695825984860758 0 0 0
930 1 30.754868521838976 8.908857849668006 3.5458561908466235 0 0 0
989 1 32.534539608148805 10.647924787489309 3.6285460579101256 0 0 0
150 1 34.32030974936838 8.871738163717032 -0.06775881778532161 0 0 0
156 1 36.13846808028768 8.835151494785574 1.7395416292367738 0 0 0
207 1 34.33210114465352 10.697900825335616 1.7598553099717944 0 0 0
209 1 36.14571590352969 10.650296647585426 -0.046100389273130316 0 0 0
934 1 34.29798571690604 8.833023100918304 3.5611682144210217 0 0 0
993 1 36.122965708443374 10.602325909477349 3.57329109209089 0 0 0
1509 1 15.986288573221543 43.48512949897399 23.45204818570068 0 0 0
158 1 41.53916441614605 8.767362920251129 -0.05748447030737708 0 0 0
160 1 39.69077754899601 8.690046590576317 1.6895618716219634 0 0 0
211 1 37.947191518962285 10.628764578858084 1.74975867990403 0 0 0
1508 1 14.376732954316186 45.38521199548165 23.44063518039366 0 0 0
215 1 41.57494534909729 10.53209701444804 1.7957781101636843 0 0 0
938 1 37.91740559176702 8.783000210613707 3.58708623393199 0 0 0
942 1 41.51252620875333 8.678232030722684 3.597818425559708 0 0 0
997 1 39.7817993909687 10.506029432943055 3.5958928074501006 0 0 0
162 1 45.25653086279432 8.772322637229884 -0.06421251169067049 0 0 0
164 1 43.41545777965547 8.797678925617092 1.7553268328185583 0 0 0
217 1 43.37276971564914 10.621714590875516 -0.02185505628082257 0 0 0
219 1 45.150444625978736 10.639006266811476 1.8028514795725301 0 0 0
946 1 45.21998526394334 8.766610181689266 3.604234797787034 0 0 0
1001 1 43.33382140972954 10.563061613865077 3.6239411905579924 0 0 0
166 1 48.84492635632273 8.872095316822026 -0.018226455083897253 0 0 0
168 1 47.049519697450535 8.810297421732873 1.7516229309696687 0 0 0
1561 1 8.91493573077493 45.11273032327298 21.694854610129166 0 0 0
223 1 48.75664660852277 10.781350313937429 1.8081215444695786 0 0 0
950 1 48.807591303098974 8.890022290552956 3.554824304081783 0 0 0
1005 1 46.95280332397155 10.692099540276375 3.605345032991 0 0 0
170 1 1.7305654110632727 12.728031776821636 -0.02885288129848579 0 0 0
172 1 -0.08187238732765562 12.638507457854681 1.7541231140977716 0 0 0
176 1 3.578271806540601 12.660616939397093 1.7491000003434976 0 0 0
225 1 -0.07997727838873483 14.582663967063114 -0.04322524937505007 0 0 0
1560 1 8.97934681235611 43.3616689297201 23.47322685228938 0 0 0
227 1 1.7246442199008443 14.502498604106448 1.8307996356889311 0 0 0
228 1 -0.04986820534456515 16.343420858613577 1.8177294735521135 0 0 0
1558 1 10.752178198299534 43.4829653568612 21.714550679983514 0 0 0
232 1 3.5962957935250186 16.351822639928535 1.8049664373448384 0 0 0
954 1 1.7609976343860692 12.582507132396618 3.5808138680905928 0 0 0
1009 1 -0.05594938039255992 14.412476726440604 3.678880935342795 0 0 0
1010 1 1.7632098648846708 16.333279150630222 3.660625442638804 0 0 0
1013 1 3.5485739442522717 14.525661950340192 3.6418507145762904 0 0 0
1512 1 10.765981268887488 45.28931969337173 23.46261458709941 0 0 0
180 1 7.192683877189877 12.688419608031902 1.80147100161334 0 0 0
230 1 5.439107966609685 16.331976748871387 -0.040659043611123935 0 0 0
231 1 5.4252254411469245 14.486415858298043 1.801035047557404 0 0 0
233 1 7.198029381431832 14.556949724969888 -0.020036267926434648 0 0 0
236 1 7.238414555473456 16.34825587491636 1.7905315003844744 0 0 0
958 1 5.358355217639275 12.685805433079635 3.5945030799561923 0 0 0
1014 1 5.37039720762706 16.352178622881222 3.6280826338999863 0 0 0
1017 1 7.252664916994951 14.50343050060993 3.5740685046767067 0 0 0
178 1 9.023394141137558 12.812978019598722 -0.056088819680040536 0 0 0
184 1 10.86406819062135 12.7540204862818 1.7525888804009724 0 0 0
234 1 9.049113041269711 16.39849584975826 -0.02575226185732904 0 0 0
235 1 9.074284553959444 14.530102690640124 1.7874770204415142 0 0 0
1565 1 5.170085803285444 45.188843796935245 21.742606839595673 0 0 0
240 1 10.865092987002253 16.436635667763053 1.8492533672915008 0 0 0
962 1 9.09906137878743 12.708137332337447 3.6058121663211455 0 0 0
1018 1 9.079703680913582 16.37313142160495 3.6738111082819525 0 0 0
1021 1 10.913197062193316 14.603938372461865 3.6275350604247496 0 0 0
182 1 12.675663146337063 12.951418023530325 -0.02820832257474326 0 0 0
186 1 16.290111093383516 12.917391727968948 -0.0687559459820668 0 0 0
188 1 14.460657944808881 12.911574734260638 1.7640987527150465 0 0 0
1564 1 5.213547936463025 43.39219620857803 23.404374036824397 0 0 0
239 1 12.686108580851956 14.70890673184082 1.7484435532984905 0 0 0
1562 1 7.1242756610329865 43.371549810746025 21.642543999413803 0 0 0
1559 1 7.084288086049313 45.14612092220606 23.45428885091751 0 0 0
243 1 16.22240424067537 14.683181584322037 1.7769559323764406 0 0 0
244 1 14.350923533425798 16.50001291744667 1.8266609734670936 0 0 0
966 1 12.670655088412914 12.85395846061797 3.5647659586509417 0 0 0
970 1 16.287145520457653 12.85199322429766 3.602803338098095 0 0 0
1022 1 12.585216078357773 16.42622745984069 3.6400744821027224 0 0 0
1025 1 14.402426847725355 14.671537644970687 3.5607171818309293 0 0 0
1026 1 16.166683793432266 16.38700865648747 3.613828021851962 0 0 0
2224 1 50.19330946704261 43.448235832503734 21.596367607494365 -1 0 0
192 1 18.065199432569376 12.942832926494335 1.7260644354869767 0 0 0
245 1 18.06767481860058 14.751428716828286 -0.017432806454017125 0 0 0
2222 1 1.3841389127230768 45.14139609723777 21.634877285630502 0 0 0
247 1 19.960120021349432 14.670573938504846 1.7775131910206459 0 0 0
248 1 18.081652202462603 16.45683246969196 1.8332036389593442 0 0 0
974 1 19.853317812203915 12.8179290154968 3.62266860062571 0 0 0
1029 1 18.103776317646993 14.638392629458203 3.627259438186986 0 0 0
1030 1 19.865927889602577 16.419428073870343 3.6801388736164635 0 0 0
194 1 23.591172371252625 12.89343070449745 -0.042224256904787816 0 0 0
196 1 21.777254727552712 12.841322903712086 1.8476366922279475 0 0 0
1568 1 1.437691250478824 43.446626198230554 23.482644429563365 0 0 0
1567 1 50.246870877162465 45.16006770981106 23.534674579602946 -1 0 0
251 1 23.63810103632985 14.582293972477459 1.7935609520097633 0 0 0
252 1 21.723747976451836 16.361496710399635 1.8348625046203657 0 0 0
978 1 23.570082730470357 12.804999959760107 3.6375872367523425 0 0 0
1033 1 21.713452645700944 14.582352678075571 3.6437877251438175 0 0 0
1034 1 23.595699267121514 16.30069409788745 3.6543369256155325 0 0 0
198 1 27.182092717675566 12.798387966715357 -0.012866633426297513 0 0 0
200 1 25.407218524013864 12.78187199637014 1.835068162015674 0 0 0
204 1 28.94123480151887 12.5903097141947 1.8272869571119723 0 0 0
253 1 25.409330044060457 14.563669942929543 -0.04446560916612763 0 0 0
1566 1 3.296783674461939 43.48409638039629 21.61034090282286 0 0 0
255 1 27.20819143995786 14.45364172815409 1.8592327800037607 0 0 0
256 1 25.438252395550776 16.361568686775588 1.8458294483278048 0 0 0
1563 1 3.2665226361250657 45.19329070808531 23.48139833855418 0 0 0
260 1 29.141146831389335 16.328287722315036 1.817928664850076 0 0 0
982 1 27.172714104984433 12.618172653644084 3.615066070262164 0 0 0
1037 1 25.44488267153715 14.488373852396453 3.6060405125250266 0 0 0
1038 1 27.297278768472946 16.340074598440737 3.6287640027179733 0 0 0
1041 1 28.992263770383474 14.435208862708947 3.6081976873667787 0 0 0
202 1 30.795640777236652 12.570347182193055 0.010920947763983502 0 0 0
208 1 32.61243530706791 12.52886976165736 1.7939094409017922 0 0 0
258 1 30.965410222917797 16.317716648818024 -0.008491111968162268 0 0 0
259 1 30.8766675044908 14.391415900264235 1.8663500577487264 0 0 0
261 1 32.747598268637034 14.43652279349404 -0.009342244812352074 0 0 0
264 1 32.74483510315373 16.30842394783488 1.823321454076881 0 0 0
986 1 30.76694870263864 12.536910976317571 3.6376900035877306 0 0 0
1042 1 30.930322978808444 16.289686067735317 3.608129324759658 0 0 0
1045 1 32.646678761141345 14.318836560990432 3.6086461513688564 0 0 0
206 1 34.44229303264939 12.53891606249198 -0.0510911113498243 0 0 0
212 1 36.27154176363477 12.430901044086731 1.7656865549647618 0 0 0
262 1 34.52473513941952 16.27143909051158 0.024549813993124725 0 0 0
263 1 34.47627803065045 14.341198488794962 1.8482110395978752 0 0 0
265 1 36.24550833017648 14.38565850028452 0.014285951451271262 0 0 0
268 1 36.28003475606441 16.248793658604846 1.8120802467457513 0 0 0
990 1 34.40034918170794 12.465715249127365 3.600657459724351 0 0 0
1046 1 34.49035891392873 16.2072318318026 3.575812222285578 0 0 0
1049 1 36.272136759417535 14.299352760069429 3.6116338669513373 0 0 0
210 1 38.04859184050541 12.465714676676225 -0.040642806689853206 0 0 0
3063 1 48.47485747486638 38.28854301703866 21.645332091436654 0 0 0
216 1 39.84537100530844 12.359586248460735 1.8089121296489177 0 0 0
266 1 38.00222282088481 16.166595146248667 0.03194265837407495 0 0 0
267 1 38.0709835946752 14.25627060395149 1.8076274093682838 0 0 0
269 1 39.90315024247025 14.3510789957289 -0.002266754439151475 0 0 0
3022 1 46.67397939281969 38.39113777141781 23.474220705969742 0 0 0
271 1 41.61763332686792 14.317198368329539 1.8151581322263977 0 0 0
272 1 39.8443612652035 16.197598267083613 1.82426338160103 0 0 0
994 1 38.020009393308754 12.374276155775402 3.6270000335736756 0 0 0
998 1 41.55582730224012 12.34651821389923 3.626893344557457 0 0 0
1050 1 38.028035248042855 16.2628009901382 3.6317678172334364 0 0 0
1053 1 39.81732201528108 14.291459040372542 3.686910686304489 0 0 0
1054 1 41.66400884207974 16.19556811995116 3.6281237494244944 0 0 0
2228 1 46.79406421906428 40.21801647323275 21.554714548472493 0 0 0
220 1 43.332907784172264 12.378792019493714 1.7631749548381586 0 0 0
273 1 43.384256331566064 14.346592318560173 -0.08267354210087724 0 0 0
274 1 45.18839435402191 16.267151783902346 -0.08907012854642071 0 0 0
275 1 45.19760685837778 14.362395038582477 1.80333499827444 0 0 0
276 1 43.42227798384367 16.24430921562176 1.7566571741684136 0 0 0
1002 1 45.12739733050498 12.402919488597606 3.5933343538582987 0 0 0
1057 1 43.34835799598076 14.237315624776857 3.6326526571040807 0 0 0
1058 1 45.178563647071414 16.252695933946907 3.5829122972409944 0 0 0
222 1 48.72050358559741 12.621907460185739 -0.03151624833198635 0 0 0
224 1 46.9717291721621 12.558388785636975 1.8314684690504475 0 0 0
277 1 46.931984201625184 14.412719864221694 -0.038341906508831736 0 0 0
278 1 48.73192454061858 16.316944386574686 -0.082129993925466 0 0 0
279 1 48.77410853806158 14.47775256012946 1.7841434079121528 0 0 0
280 1 46.97839187609843 16.302420121166836 1.7596615519466652 0 0 0
1006 1 48.797513585628295 12.519318352742278 3.6153552499009365 0 0 0
1061 1 47.00159662477495 14.315806520465202 3.655755465138559 0 0 0
1062 1 48.80139109917157 16.18843523316971 3.59842300973766 0 0 0
2226 1 48.45795188645906 40.15380252017417 23.43749957517021 0 0 0
282 1 1.8437084438201077 19.858947652380188 -0.04783493467626637 0 0 0
283 1 1.7817227571230365 18.11459773962437 1.8645328145059588 0 0 0
284 1 -0.022320351043446762 19.914292191564293 1.8070079380059902 0 0 0
285 1 3.629753962099529 18.132937686521664 -0.04016243299794903 0 0 0
288 1 3.5587107209897164 19.963989438037636 1.8924072937814773 0 0 0
1065 1 -0.09232266887189525 18.18814671028202 3.625943207279664 0 0 0
1066 1 1.7632473428144442 19.993560661147054 3.653049922179596 0 0 0