ITEM: TIMESTEP
0
ITEM: NUMBER OF ATOMS
12960
ITEM: BOX BOUNDS xy xz yz pp pp pp
-4.2285055563883844e-02 2.1632685055563648e+01 0.0000000000000000e+00
-4.6741365286806058e-02 2.1637141365286496e+01 0.0000000000000000e+00
-1.8693820199163156e+00 3.1098938201991979e+02 0.0000000000000000e+00
ITEM: ATOMS id type x y z c_peratom fx fy fz 
6 1 0.797857 0.715482 0.378257 -7.96052 0.077922 -1.22061 0.280126 
222 1 0.902149 0.922268 5.69916 -7.88096 -0.0517679 -0.480347 -0.888105 
438 1 0.999699 0.639078 10.8088 -7.87371 0.0270741 0.744064 0.0420007 
42 1 0.747398 4.24788 0.449047 -8.16768 -0.244182 -0.22736 -0.0115898 
258 1 0.693471 4.26133 5.77765 -7.95605 -0.497682 0.272605 -1.47203 
474 1 0.906239 4.42652 10.8584 -7.8395 -0.81258 -0.41251 0.831982 
78 1 0.838058 7.98129 0.439777 -7.55184 -0.128892 -0.681075 0.43667 
294 1 0.853693 8.09644 5.68324 -7.89226 0.563079 -1.0022 -0.240928 
510 1 0.793899 7.87553 10.8754 -8.04692 0.936562 1.3809 -0.235133 
114 1 0.84204 11.5306 0.563335 -7.73227 -0.478838 0.256619 -0.220144 
330 1 0.910459 11.6071 5.7832 -7.91741 0.569518 -0.548447 -0.134073 
546 1 0.939267 11.658 10.9254 -7.89223 0.584045 -0.623608 -0.384939 
150 1 0.866978 15.2118 0.466651 -8.20293 0.172301 0.259744 0.285201 
366 1 0.908709 15.2663 5.6898 -7.75403 -0.933286 -1.04582 0.00629146 
582 1 1.01284 15.0731 10.8713 -7.94378 -0.516028 0.738826 -0.236552 
186 1 0.876934 18.7236 0.446163 -7.82567 -0.787155 -0.139371 0.91579 
402 1 0.951376 18.7533 5.66233 -7.43979 -0.355615 -0.0459713 0.107956 
618 1 1.07069 18.8092 10.85 -7.63587 0.0208263 0.60278 0.0689151 
12 1 4.42393 0.635061 0.602947 -7.6892 -1.13883 1.09719 -1.62736 
228 1 4.42051 0.847754 5.74153 -8.48485 -0.140654 -1.36841 0.218456 
444 1 4.63327 0.804567 10.8735 -7.68974 -0.284032 -0.195419 0.849712 
48 1 4.40439 4.44553 0.391639 -7.47254 -0.428107 -1.14695 -0.103354 
264 1 4.46793 4.35892 5.56168 -7.61012 0.71808 0.92562 0.448455 
480 1 4.57528 4.42413 10.8381 -7.62725 0.0323036 0.720626 -0.36734 
84 1 4.32763 7.93252 0.432803 -8.23751 0.706342 -0.331217 0.947569 
300 1 4.5428 7.96343 5.68899 -7.90246 -0.0511615 -0.136344 -1.15959 
516 1 4.47046 8.02987 10.7889 -8.01475 -0.412465 0.609416 0.673098 
120 1 4.55417 11.6493 0.533059 -7.94745 -0.606655 -1.23549 -0.0958714 
336 1 4.60454 11.6474 5.57801 -8.07127 -0.971735 -0.454804 1.07826 
552 1 4.60019 11.6621 10.7707 -8.32939 -0.311056 -1.18535 0.74595 
156 1 4.45218 15.2145 0.551611 -7.99007 -0.543619 -0.831134 -0.0356207 
372 1 4.59424 15.1282 5.68401 -7.93867 0.252625 -0.123211 -0.0746328 
588 1 4.61931 15.2989 10.8904 -7.74184 -0.344886 -0.515551 -0.0823143 
192 1 4.57891 18.7648 0.42555 -7.54513 -0.603691 0.259643 0.182964 
408 1 4.32163 18.8416 5.65277 -7.56719 0.486845 0.233744 -0.530206 
624 1 4.56763 18.7641 10.7864 -8.16296 0.380584 -0.0445512 0.641157 
18 1 7.93026 0.799826 0.394617 -7.98141 1.00779 0.253392 0.775114 
234 1 8.02975 0.777432 5.67868 -8.13323 -0.513943 -0.0135177 -0.130079 
450 1 8.20879 0.662197 10.7666 -7.8818 -0.548951 0.623812 0.167979 
54 1 7.87467 4.38647 0.330714 -7.96062 0.467937 -0.461879 0.878047 
270 1 8.20051 4.38631 5.72115 -7.92444 -0.892563 -0.649036 -0.247436 
486 1 8.214 4.44963 10.9054 -7.49086 -0.142404 0.266395 -0.240779 
90 1 8.15575 7.92354 0.422326 -8.29248 -1.14038 -0.107586 -0.0492279 
306 1 8.08106 8.06022 5.61263 -7.90919 -0.0242528 -0.846702 0.186736 
522 1 8.3156 8.07045 10.8469 -8.07081 -0.822151 -0.24291 0.859405 
126 1 8.22606 11.5905 0.429765 -7.78907 -0.932061 -0.795201 0.342338 
342 1 8.2002 11.5368 5.56215 -7.67775 -0.543552 -0.43382 0.394314 
558 1 8.08501 11.6769 10.8864 -8.13136 -0.0950624 -0.0479856 -0.18558 
162 1 8.10536 15.1805 0.523792 -7.65847 0.167598 0.559548 -0.707436 
378 1 7.95384 15.3362 5.60637 -8.38305 0.514574 0.109991 0.616709 
594 1 8.32919 15.0469 10.9541 -7.74062 -0.796991 1.47822 -0.284768 
198 1 7.89999 18.8848 0.47175 -7.86279 0.937757 -0.437144 0.696291 
414 1 8.02138 18.8761 5.67327 -8.10011 0.204598 -0.459989 -0.107328 
630 1 8.17865 18.8372 10.8865 -8.10593 0.30979 -0.209966 -0.668846 
24 1 11.5741 0.832325 0.365058 -8.06546 0.754558 -1.24857 0.198532 
240 1 11.6792 0.708489 5.6551 -8.19843 -0.37316 0.538023 -0.616738 
456 1 11.8224 0.829232 10.715 -7.71798 -0.338328 -1.70479 0.992248 
60 1 11.8109 4.22663 0.469365 -8.21999 -0.325884 1.12551 0.107884 
276 1 11.6355 4.36037 5.76437 -8.23482 0.150574 0.173102 -0.462802 
492 1 11.7683 4.41998 10.9369 -7.79609 -0.105377 -1.19985 -0.350785 
96 1 11.5976 7.91518 0.39961 -7.63551 1.00112 -0.616363 -0.186779 
312 1 11.6516 7.95873 5.53876 -7.70489 0.240821 -0.75093 0.442179 
528 1 11.8058 8.05565 10.9501 -7.7734 -0.637223 0.179385 -1.37622 
132 1 11.781 11.575 0.385599 -7.83864 -0.198733 -1.11666 -0.397335 
348 1 11.683 11.71 5.60216 -8.07415 -0.203419 0.423186 -0.333333 
564 1 11.9079 11.4687 10.8111 -8.01346 0.124333 -0.0239596 0.184411 
168 1 11.7132 15.1959 0.476942 -7.87824 -0.443336 0.520043 -0.428828 
384 1 11.756 15.1168 5.57994 -8.06731 -1.01786 0.0829241 0.0988148 
600 1 11.9206 15.2741 10.7822 -7.75905 -0.46585 -0.136484 0.238648 
204 1 11.6246 18.8341 0.348135 -7.496 -0.0374792 -0.574807 -0.873933 
420 1 11.7249 18.9387 5.50982 -7.81073 0.0165305 -0.863829 0.441311 
636 1 11.6913 18.7286 10.8519 -8.42176 1.07149 0.447975 -0.20223 
30 1 15.2219 0.643152 0.34329 -7.94219 -0.350623 -0.643624 0.111235 
246 1 15.2623 0.916243 5.71454 -7.88709 -0.144151 -1.17178 -1.38878 
462 1 15.3561 0.699151 10.8118 -7.76899 0.310007 0.64678 0.117548 
66 1 15.3109 4.29017 0.40302 -7.63555 -0.231619 0.214139 -0.081157 
282 1 15.1643 4.38618 5.66907 -8.06608 -0.0824114 0.761074 -0.0641573 
498 1 15.3901 4.30582 10.9182 -8.05066 -0.228581 -0.152554 -0.259883 
102 1 15.3639 7.90798 0.340349 -7.7563 -0.200703 0.120145 1.49961 
318 1 15.3139 8.03125 5.63459 -7.85503 -0.981966 -0.615922 -0.243104 
534 1 15.4294 7.88953 10.8942 -7.09926 0.584167 0.442421 -1.72703 
138 1 15.2447 11.5652 0.461784 -7.93443 0.492758 -0.389766 0.487411 
354 1 15.1552 11.4637 5.63705 -7.10035 0.300023 0.030116 0.0781789 
570 1 15.429 11.6572 10.819 -7.78552 0.144389 0.664215 -0.217936 
174 1 15.1874 15.1716 0.424153 -7.59593 0.517119 0.326615 0.202639 
390 1 15.4688 15.4197 5.66615 -7.52465 -0.458107 -1.93453 0.410014 
606 1 15.4142 15.1073 10.9378 -7.98933 0.796171 0.0245278 -1.51719 
210 1 15.3232 18.7195 0.379789 -7.73239 -0.269839 1.0457 0.255891 
426 1 15.3059 18.7034 5.59187 -8.32745 -0.95423 -0.129691 0.627665 
642 1 15.5857 18.8732 10.8417 -7.77665 -0.376033 -0.438204 0.151097 
36 1 18.8197 0.618074 0.442611 -7.73029 0.586804 -0.176222 -0.636648 
252 1 18.7221 0.713013 5.57514 -7.75905 -0.229658 -0.774741 0.475082 
468 1 19.1076 0.818131 10.8162 -8.0029 0.165847 -0.55455 0.332967 
72 1 18.9158 4.29677 0.36722 -8.11708 0.21516 -0.310881 -0.00139315 
288 1 18.8784 4.49239 5.66108 -8.23459 0.24116 -0.508755 -0.100399 
504 1 18.9134 4.3063 10.9075 -7.89126 1.16816 -0.400812 -0.584358 
108 1 18.9202 7.8813 0.444448 -7.92612 -0.496052 1.1918 0.613048 
324 1 18.9201 7.99165 5.68408 -8.01304 -0.525385 -0.275758 0.422408 
540 1 19.0228 7.99902 10.8677 -7.99213 -0.65457 0.863804 0.459613 
144 1 18.8858 11.615 0.616504 -8.53989 -0.305027 -0.479415 -1.50092 
360 1 18.8726 11.5523 5.70666 -7.98251 0.601338 -0.10821 1.04501 
576 1 18.9971 11.5429 10.9159 -7.92191 -0.147057 -0.165579 0.499278 
180 1 18.9441 15.1156 0.434219 -7.74616 -0.784257 -0.294051 -0.509108 
396 1 18.8575 15.0814 5.61909 -7.59916 0.229783 -0.168946 -0.0964061 
612 1 19.1497 15.2822 10.8946 -8.03361 -0.400586 -0.692917 -1.35904 
216 1 18.9627 18.6939 0.509535 -7.72874 -1.32062 0.565908 -0.0150921 
432 1 18.9094 18.9269 5.63971 -8.04459 0.247599 0.799051 0.267308 
648 1 19 18.8415 10.8518 -7.60771 -0.234072 -0.762301 -0.276691 
5 1 0.957277 0.701447 3.00174 -7.95561 -0.0997794 -0.21002 0.260056 
221 1 0.813617 0.766557 8.21628 -7.69846 1.0288 0.6922 0.800379 
41 1 0.750038 4.25261 3.0408 -7.97067 0.85604 -0.129612 0.672013 
257 1 0.89781 4.4296 8.28426 -7.48529 -0.676007 -0.789386 0.182923 
77 1 0.755377 7.96981 3.06888 -7.97197 0.0314219 0.350026 0.26188 
293 1 1.00163 8.08276 8.23992 -7.84874 -0.764193 0.000463041 0.648821 
113 1 0.785266 11.6771 3.22926 -8.14084 -0.181229 -0.377402 -0.559905 
329 1 0.984288 11.497 8.34496 -8.1268 0.620611 -0.317923 0.120705 
149 1 1.00304 15.3529 3.14367 -8.14888 -0.41942 -1.18876 -1.14188 
365 1 0.916357 15.2508 8.24887 -7.83887 0.607398 -0.620786 0.355793 
185 1 0.890443 18.8464 3.185 -7.82351 0.48155 -0.308196 -1.92355 
401 1 0.862932 18.8085 8.15016 -7.4859 -0.387754 0.252305 1.16149 
11 1 4.60626 0.853173 3.0649 -7.8892 -1.01982 0.0315408 1.93384 
227 1 4.40127 0.843285 8.39904 -7.90435 1.14563 -0.964803 -1.6635 
47 1 4.3662 4.31817 2.93816 -7.32987 1.02223 -0.156373 0.432262 
263 1 4.58013 4.59715 8.13566 -7.68041 -0.518246 -1.211 0.652952 
83 1 4.38344 7.93487 3.04748 -8.14633 0.487534 -0.00535427 0.234055 
299 1 4.61233 7.90029 8.18676 -7.45901 0.511076 -0.721208 0.434557 
119 1 4.3966 11.4836 3.09204 -8.15016 1.39265 0.244018 -0.624445 
335 1 4.52581 11.5518 8.2349 -8.0086 -0.024384 -0.165678 -0.255961 
155 1 4.44927 15.2575 3.09976 -7.61177 -0.17298 -0.752466 -0.294179 
371 1 4.56727 15.2887 8.3278 -7.95217 -0.816408 -0.444595 -0.724766 
191 1 4.56398 18.844 3.04294 -7.72367 0.755351 0.525626 0.273387 
407 1 4.49739 18.9566 8.19581 -8.06005 0.13249 -0.671341 0.453471 
17 1 8.07157 0.807875 3.04072 -8.00791 0.329583 -0.414483 -0.193307 
233 1 8.14088 0.761181 8.25345 -8.16985 0.00361887 -0.0879613 -0.119993 
53 1 8.10726 4.45606 3.0471 -7.80546 -0.119937 -0.214214 -0.360664 
269 1 8.18775 4.39119 8.34574 -7.55054 0.419915 -1.02978 -0.718278 
89 1 8.12763 7.87996 3.03665 -8.16871 -1.17953 0.0660063 -0.160203 
305 1 8.23606 7.98686 8.29116 -7.87296 -0.437757 -0.231977 -0.585727 
125 1 7.93839 11.54 2.99342 -7.7881 0.449093 -0.489646 0.11183 
341 1 8.12911 11.5953 8.28713 -8.02616 0.625436 -0.234707 -0.236506 
161 1 8.22849 15.0446 3.03289 -8.03393 -0.911649 0.632218 1.04625 
377 1 8.11126 15.186 8.3705 -8.15137 -0.587222 0.113814 -1.04151 
197 1 8.03372 18.8325 3.07547 -8.29778 0.673983 0.00957584 0.28492 
413 1 8.1223 18.861 8.27241 -8.17327 -0.641901 0.155684 0.176822 
23 1 11.6379 0.742817 2.96023 -8.13965 1.10525 -0.208093 0.59073 
239 1 11.7338 0.750392 8.22833 -7.98835 0.0799769 -0.415522 -0.534798 
59 1 11.7072 4.35466 3.07816 -7.96214 0.350309 0.0879298 0.324011 
275 1 11.7941 4.28594 8.35545 -8.24209 0.58271 0.580883 -0.446668 
95 1 11.6718 7.87045 2.9318 -7.56376 -0.61416 -0.0703338 0.434548 
311 1 11.735 7.90507 8.26328 -8.13614 0.863963 0.463246 -0.244233 
131 1 11.8143 11.4362 2.9824 -8.10717 -0.549081 0.755822 0.578265 
347 1 11.6661 11.5544 8.16836 -7.76915 0.591842 -0.0551755 0.265547 
167 1 11.6987 15.1075 2.98804 -8.28968 -1.09148 -0.178256 1.0878 
383 1 11.6937 15.2602 8.18337 -7.8543 0.429034 0.393297 0.130405 
203 1 11.7203 18.7626 2.92301 -7.77964 -0.134292 0.18133 0.376154 
419 1 11.785 18.6009 8.1839 -7.99612 -0.422237 0.66551 -0.206872 
29 1 15.2917 0.785985 2.96342 -7.83206 -0.235395 -0.54216 0.828602 
245 1 15.3098 0.584352 8.23045 -7.87895 0.301263 0.0427027 0.608061 
65 1 15.3619 4.33321 3.00693 -7.91554 -1.06591 -0.864732 0.468752 
281 1 15.3912 4.43863 8.30097 -8.20092 -0.531908 0.687758 0.008582 
101 1 15.4462 8.00012 3.04442 -8.26736 -0.301105 -0.352761 -0.246702 
317 1 15.4195 8.02147 8.23747 -7.83315 -1.15621 -0.793486 0.269012 
137 1 15.2968 11.3815 3.11585 -7.90927 -0.0251674 0.351608 -1.38189 
353 1 15.3619 11.5373 8.28491 -7.87515 -0.127135 1.23236 -0.21199 
173 1 15.2887 15.1869 3.08234 -7.79725 0.958396 0.234419 -0.603694 
389 1 15.3069 15.0656 8.25614 -8.21098 0.734576 0.0716127 0.44345 
209 1 15.3568 18.7538 3.00452 -8.03842 -0.800026 0.45943 0.156488 
425 1 15.4404 18.7855 8.27369 -7.89494 -0.479177 -0.778628 -0.947959 
35 1 18.9268 0.561153 3.02489 -7.73515 0.370109 0.167098 -0.247218 
251 1 18.9129 0.830302 8.19612 -7.78428 -0.591265 -0.114974 0.0793974 
71 1 18.8997 4.24223 2.98415 -7.88099 0.875517 -0.0245822 0.449561 
287 1 18.8988 4.36505 8.27356 -8.16655 1.23094 0.384336 0.238551 
107 1 18.8813 7.79981 3.10653 -8.17155 0.156929 0.898682 -0.637089 
323 1 18.9568 7.99888 8.32282 -7.77352 0.952413 -0.00186805 -0.72402 
143 1 18.9557 11.7513 3.12041 -7.85876 -0.0844015 -0.537789 -0.0493249 
359 1 18.9539 11.666 8.40925 -7.98807 0.68349 -1.3283 -0.957391 
179 1 18.9074 15.3032 3.03422 -7.5852 -0.129246 -0.268922 -0.198038 
395 1 19.0645 15.2299 8.16317 -7.74549 0.089852 -0.2495 1.263 
215 1 19.033 18.7684 3.10927 -8.18118 -0.730753 0.45893 -0.203661 
431 1 18.9461 18.746 8.22815 -7.74715 0.19989 -0.494463 -0.0334863 
2 2 0.860542 2.49175 -0.638674 -29.1637 0.544973 -0.0745494 -0.147165 
218 2 0.979424 2.56844 4.63145 -28.9401 -1.7047 0.341387 -0.500409 
434 2 0.891473 2.58775 9.93424 -29.3679 0.665364 -0.358684 -0.664248 
38 2 0.957072 6.07446 -0.510968 -29.3822 0.242223 0.957402 0.396371 
254 2 0.797138 6.15838 4.6572 -29.4258 0.548257 0.00676598 0.478012 
470 2 0.902335 6.16162 9.84884 -29.4462 0.659768 -0.181036 -0.470928 
74 2 0.97318 9.78361 -0.617421 -29.9432 -0.0133973 -0.402235 0.693462 
290 2 0.832663 9.81717 4.67737 -29.0513 0.113478 0.170606 -0.424793 
506 2 1.02717 9.78611 9.90503 -28.9783 -0.534772 -0.207291 -0.367951 
110 2 0.873865 13.3819 -0.505485 -29.3227 0.593205 -0.435573 -0.558763 
326 2 0.914699 13.3751 4.60482 -29.1602 -0.597706 0.679289 0.998568 
542 2 0.925653 13.3925 9.85181 -29.1083 -0.155246 -0.55126 -0.363153 
146 2 0.982385 17.0069 -0.758728 -29.2216 -0.738165 -0.546767 0.981556 
362 2 0.939912 16.9745 4.62883 -29.6718 0.353901 0.856649 0.386663 
578 2 0.91041 16.9447 9.90192 -29.727 0.597617 0.582589 0.0796968 
182 2 0.900413 20.5292 -0.497368 -29.0509 -0.959517 0.161986 0.0249977 
398 2 0.931595 20.63 4.62282 -29.6122 0.548975 -0.232705 1.1448 
614 2 0.882159 20.5921 9.79194 -29.5133 -0.389808 -0.467961 -0.0186993 
8 2 4.43237 2.48643 -0.530673 -29.3212 0.692873 0.544538 -0.17501 
224 2 4.49757 2.55583 4.78273 -29.2054 0.269179 1.00672 -1.95302 
440 2 4.56713 2.56442 9.83056 -29.4654 -0.649399 0.659476 0.545268 
44 2 4.604 6.20948 -0.568416 -29.1683 -0.863057 -1.48992 0.0219692 
260 2 4.58226 6.206 4.6858 -29.3114 -2.00122 -0.775696 -0.337934 
476 2 4.5983 6.32014 9.77058 -29.6775 -0.247043 -1.5159 -0.247415 
80 2 4.53375 9.64519 -0.455989 -28.83 -0.348156 2.25921 -1.01862 
296 2 4.5096 9.82776 4.58107 -28.9696 -1.09744 -0.967086 0.849566 
512 2 4.60307 9.85448 9.83633 -28.8063 0.314267 -0.807084 -0.794218 
116 2 4.53785 13.4043 -0.548348 -29.6111 -0.280751 -0.338579 0.132605 
332 2 4.40573 13.2944 4.48212 -28.9351 0.485499 1.83719 0.970609 
548 2 4.56876 13.4654 9.90228 -29.1792 -0.101577 0.723214 -0.827483 
152 2 4.57662 16.9249 -0.577237 -29.4811 0.0308048 1.01124 0.0715671 
368 2 4.54723 17.0032 4.59704 -29.6108 -0.713925 0.0993401 0.455217 
584 2 4.61639 17.0443 9.80915 -29.0822 -1.13302 -0.929821 -0.204613 
188 2 4.49871 20.5822 -0.564835 -29.6485 0.334574 -0.229508 0.360146 
404 2 4.55377 20.6896 4.75564 -28.9214 -1.10261 -0.91071 -1.07346 
620 2 4.47423 20.5288 9.73998 -29.3787 -0.168221 1.77484 1.32239 
14 2 8.05083 2.57027 -0.566269 -29.3529 0.28868 -0.0331594 -0.842554 
230 2 8.12385 2.59927 4.66439 -29.1286 -0.505143 0.0425525 0.0404576 
446 2 8.13721 2.51886 9.85009 -29.4518 0.27686 1.28449 0.464391 
50 2 8.15421 6.14194 -0.584054 -28.9822 0.099653 -0.152292 -0.352457 
266 2 8.15987 6.13915 4.64823 -29.3932 -0.0464238 0.390458 -0.0115475 
482 2 8.20489 6.2411 9.82907 -29.6036 -0.0635722 -0.592883 0.433123 
86 2 8.13552 9.78017 -0.488916 -29.1273 0.162201 0.244511 -1.22118 
302 2 8.01893 9.77879 4.53034 -29.1531 0.978355 0.141198 0.692693 
518 2 8.19383 9.82837 9.82728 -29.0602 0.125859 0.308099 -0.411765 
122 2 8.19486 13.339 -0.640363 -29.8756 -0.549052 0.39435 1.39417 
338 2 8.08553 13.4312 4.641 -29.5171 -0.127652 -0.729186 -0.212859 
554 2 8.23267 13.461 9.8603 -29.2265 -0.49083 -0.867598 -1.32199 
158 2 8.08608 17.065 -0.486712 -29.2965 -0.136304 -0.0813523 -0.54238 
374 2 8.06092 17.0554 4.58639 -28.5639 0.480984 0.673944 0.121255 
590 2 8.05724 16.9995 9.75309 -28.8864 0.973216 -0.427518 1.03225 
194 2 8.08878 20.7285 -0.602564 -29.9082 -0.0814424 -1.00099 -0.761765 
410 2 8.0771 20.7061 4.62314 -28.8927 1.13698 -0.390317 0.462755 
626 2 8.12882 20.5674 9.8686 -28.959 -0.163717 0.403933 -0.362674 
20 2 11.7791 2.55894 -0.595034 -29.0948 -0.276016 -0.560993 -0.877852 
236 2 11.7185 2.53239 4.66634 -28.9736 -0.333375 0.37579 -0.119509 
452 2 11.832 2.54058 9.68795 -29.3472 -0.186428 0.329695 1.34068 
56 2 11.7287 6.11051 -0.557417 -29.0448 0.850172 0.0183257 0.0479736 
272 2 11.7419 6.07496 4.66488 -29.1176 -0.370017 0.899748 -0.546222 
488 2 11.7433 6.1435 9.83708 -29.3466 -0.0218828 0.810253 1.34467 
92 2 11.7176 9.739 -0.629904 -29.4147 -1.00651 -0.106365 -0.0611726 
308 2 11.6262 9.74531 4.53867 -29.5174 0.364459 0.241816 0.592901 
524 2 11.7641 9.76405 9.74312 -29.1558 0.258748 -0.487504 0.326595 
128 2 11.8042 13.3679 -0.594043 -29.7464 -0.179894 0.217243 0.454212 
344 2 11.6969 13.4558 4.55252 -28.6896 0.513609 -1.00679 -0.390861 
560 2 11.8001 13.2875 9.89179 -29.3765 -0.787279 0.997168 -0.05664 
164 2 11.81 16.9466 -0.577913 -28.9867 0.159035 0.768299 -0.00448777 
380 2 11.6836 17.0454 4.52257 -29.0733 0.193254 0.0880826 0.803884 
596 2 11.721 16.9821 9.69705 -29.2885 0.176784 -0.300347 0.402488 
200 2 11.7217 20.6163 -0.711182 -29.2573 -0.0328687 0.202204 0.53976 
416 2 11.7771 20.685 4.52984 -28.9748 -1.09212 -0.386764 0.1279 
632 2 11.7495 20.5343 9.77617 -28.7408 0.924521 0.929509 0.0936687 
26 2 15.3097 2.46944 -0.558641 -29.5855 1.0425 0.606204 -0.628528 
242 2 15.232 2.69783 4.57973 -29.3943 0.950245 -1.39483 0.077915 
458 2 15.3637 2.52825 9.82334 -29.0485 0.195193 -0.200108 0.295356 
62 2 15.4289 6.16367 -0.649138 -29.7801 -0.38916 -0.583423 -0.393409 
278 2 15.329 6.16422 4.65687 -28.8657 0.251127 0.438203 -0.572545 
494 2 15.3836 6.10043 9.82133 -29.4644 0.475131 1.10396 1.41814 
98 2 15.3514 9.72765 -0.512289 -29.333 -0.519518 0.13635 -0.874843 
314 2 15.3682 9.74943 4.53731 -29.6721 -0.341411 0.432636 0.738349 
530 2 15.4371 9.81341 9.86196 -29.7889 -0.892539 -0.9459 0.229904 
134 2 15.3646 13.3965 -0.605684 -29.6765 -0.499164 0.0266127 0.102589 
350 2 15.3226 13.4142 4.66446 -29.7931 0.788252 -0.462418 0.702201 
566 2 15.4026 13.4352 9.69171 -28.8302 -0.584756 -0.897058 0.725302 
170 2 15.4315 16.9659 -0.557702 -29.4705 -0.900433 -0.262651 -0.636695 
386 2 15.2799 16.9659 4.49339 -29.2013 0.64223 -0.0549388 0.417746 
602 2 15.4487 16.933 9.77342 -29.2821 -0.294721 0.788317 0.97353 
206 2 15.3822 20.568 -0.624097 -29.0463 1.11811 -0.687673 -0.347262 
422 2 15.3099 20.575 4.69712 -28.9232 0.246957 1.00206 -1.04628 
638 2 15.389 20.5847 9.81943 -29.5976 -0.100201 0.146446 -0.924764 
32 2 18.9904 2.43206 -0.60196 -29.4631 -0.587633 -0.0964499 -0.291909 
248 2 18.798 2.54463 4.62563 -29.4025 1.3035 0.0247232 -0.0422039 
464 2 18.926 2.51491 9.74536 -29.1434 -0.596118 0.718962 0.0129871 
68 2 19.0419 6.09023 -0.656543 -29.2586 -0.673907 0.963395 0.0441136 
284 2 18.8837 6.18433 4.61276 -29.0721 0.365878 0.284516 -0.422619 
500 2 19.0561 6.19706 9.92329 -29.3791 -0.822626 -0.473209 -0.28463 
104 2 18.8607 9.87722 -0.540053 -28.7711 1.47729 -2.08859 -0.331196 
320 2 18.9363 9.77775 4.70286 -28.9855 -0.296793 -0.157023 0.434989 
536 2 18.9475 9.81344 9.88808 -28.9763 0.54944 -0.587598 -0.290997 
140 2 19.0327 13.3628 -0.652545 -28.9129 -0.429433 0.832409 0.810267 
356 2 18.945 13.3 4.60707 -29.5002 -0.505203 0.926931 0.54022 
572 2 18.9746 13.3631 9.94473 -29.1067 0.886028 0.407375 -0.676714 
176 2 18.9179 16.9352 -0.527391 -29.5207 1.41057 -0.0714641 -0.154751 
392 2 18.9423 17.0311 4.63846 -29.7729 0.00563636 -0.982109 0.0110677 
608 2 19.0188 17.0128 9.78103 -29.4202 -0.0774246 0.569603 0.0160098 
212 2 18.9658 20.4919 -0.633065 -29.5216 0.398618 0.011771 0.56994 
428 2 18.9618 20.6327 4.51948 -29.1416 -0.270744 0.160939 0.538479 
644 2 18.974 20.6542 9.8717 -29.4917 -0.133043 -0.468099 -0.627609 
1 2 2.73967 0.675754 2.06164 -29.0706 0.304612 0.0445073 -0.294007 
217 2 2.68605 0.812263 7.24284 -29.2757 -0.745306 -0.0990717 0.569918 
37 2 2.60466 4.18807 2.06046 -29.4264 0.194237 1.31008 -0.229527 
253 2 2.72243 4.37952 7.34147 -29.6638 -0.506942 0.861978 -0.378463 
73 2 2.55728 7.92004 2.05112 -29.5444 0.0803611 0.0346025 -0.0942066 
289 2 2.76825 7.99494 7.19593 -29.6826 0.412382 -0.540017 0.281365 
109 2 2.61959 11.5567 2.0677 -29.3222 -0.519136 -0.165692 -0.840386 
325 2 2.808 11.579 7.24905 -28.7829 -1.03948 0.355258 -0.295873 
145 2 2.57105 15.3194 1.86456 -28.9598 1.81764 -1.12888 1.22328 
361 2 2.73656 15.2095 7.19715 -29.1327 0.0567362 -0.271249 0.777178 
181 2 2.78063 18.8121 2.0372 -29.3444 -0.242907 -0.725692 0.953638 
397 2 2.65406 18.7891 7.26732 -29.8113 -0.0033269 0.175705 -0.956882 
7 2 6.26185 0.752027 2.03774 -29.4367 0.435851 0.589657 -0.431129 
223 2 6.32572 0.767269 7.24262 -28.6322 -0.400446 0.164791 1.03814 
43 2 6.26224 4.37111 2.02211 -29.664 -0.524196 -0.378505 0.301575 
259 2 6.39398 4.35633 7.29018 -29.4658 0.266974 0.575646 0.088579 
79 2 6.2498 7.89675 2.03792 -28.3327 0.0301751 0.539094 0.99421 
295 2 6.45726 7.95622 7.21573 -29.58 -0.730587 0.50017 0.19334 
115 2 6.27331 11.5481 2.03154 -28.8221 -0.603599 0.936598 -0.885865 
331 2 6.33789 11.6084 7.21551 -29.4435 0.304587 -0.573667 0.382385 
151 2 6.30567 15.174 2.10246 -29.4032 -0.157935 -0.151343 -0.789881 
367 2 6.27345 15.1893 7.10118 -29.219 0.192357 0.116766 0.879458 
187 2 6.34562 18.8174 2.0291 -29.3791 -1.55257 0.472151 -1.1226 
403 2 6.30716 18.9263 7.22948 -28.9001 -0.0575833 -1.45046 -0.0985377 
13 2 9.85113 0.760674 1.98884 -29.0312 0.262228 0.0875277 -0.236326 
229 2 9.92328 0.814707 7.22143 -28.9302 0.0667822 -1.26793 0.211534 
49 2 9.88797 4.33704 2.1169 -29.1421 0.427404 0.356045 -0.029999 
265 2 9.9959 4.35166 7.30935 -29.334 -0.756189 0.760661 -0.152153 
85 2 9.84271 7.9353 1.95984 -29.434 0.95113 -0.512396 0.0651508 
301 2 9.98346 8.04401 7.19629 -29.3231 -0.126667 -0.576557 -0.198941 
121 2 9.94646 11.5365 2.05426 -29.5426 -0.722723 0.365193 -0.686435 
337 2 9.89305 11.5705 7.09881 -29.4087 -0.102711 0.579338 0.463207 
157 2 9.90873 15.2452 1.90942 -29.2194 -0.0664074 -1.1306 -0.0574269 
373 2 9.94448 15.295 7.24533 -28.9244 -0.69948 -0.891268 -0.140988 
193 2 9.79678 18.9438 2.04475 -29.0383 1.56851 -1.22571 -0.74099 
409 2 9.88757 18.8352 7.20449 -29.1359 0.704565 0.373406 -0.449229 
19 2 13.6033 0.664133 1.91596 -28.8734 -1.17266 0.364342 0.712597 
235 2 13.5461 0.673884 7.1767 -29.3117 -0.367054 0.932835 0.315636 
55 2 13.5444 4.37675 1.96035 -29.2683 0.0261298 -0.755649 0.408498 
271 2 13.6386 4.49164 7.30626 -28.7937 -0.972543 -2.04721 -0.486268 
91 2 13.4956 7.90589 2.0867 -29.2315 0.316389 0.0827239 -0.293324 
307 2 13.6151 8.03302 7.24219 -29.0532 -0.298865 0.437588 0.0486287 
127 2 13.5116 11.4844 1.97497 -29.292 0.83136 0.917172 -0.121239 
343 2 13.4632 11.5838 7.14512 -29.6079 1.01564 -0.00983506 0.225819 
163 2 13.4796 15.2166 2.0591 -29.5171 0.877388 -0.744432 -1.26183 
379 2 13.5131 15.1248 7.2962 -29.249 0.14921 0.957287 -0.885745 
199 2 13.5778 18.839 1.99204 -29.1558 -0.707862 -1.48492 -0.209073 
415 2 13.6028 18.7393 7.14208 -29.0879 -0.448901 0.269383 0.610268 
25 2 17.1536 0.655823 1.98102 -29.6284 -0.417995 -0.0644755 0.323078 
241 2 16.9747 0.800579 7.13107 -29.4389 1.57217 0.148639 -0.131872 
61 2 17.1339 4.25997 1.99152 -29.5512 -0.273279 -0.176176 -0.550949 
277 2 17.1975 4.49003 7.24274 -28.9738 -0.723554 -1.4211 0.0268334 
97 2 17.1552 7.85635 1.97525 -28.939 -0.00253082 -0.22471 -0.334314 
313 2 17.2104 7.94443 7.25565 -29.3684 -0.288656 0.993516 0.312845 
133 2 17.1492 11.5214 2.02987 -28.9703 -0.699949 1.11437 0.590299 
349 2 17.1957 11.5585 7.35622 -29.3771 -0.762516 -0.175184 -1.45255 
169 2 17.143 15.1358 2.04855 -29.2967 -0.179522 0.033896 -0.101063 
385 2 17.2318 15.1528 7.20752 -29.6411 -0.363307 0.180509 -1.28773 
205 2 17.171 18.6932 2.06664 -29.1296 0.244945 1.00215 -0.597077 
421 2 17.1319 18.7605 7.09843 -29.3603 0.56363 0.626898 0.994303 
31 2 20.7405 0.616697 2.09266 -29.4568 0.265913 0.574329 -0.491517 
247 2 20.7492 0.821213 7.23469 -29.4017 -0.310358 -1.34226 0.108155 
67 2 20.6959 4.27142 1.95782 -29.3653 -0.132004 -0.290659 0.493013 
283 2 20.6892 4.36819 7.14356 -29.1672 0.719006 0.149226 1.00587 
103 2 20.6709 7.95115 1.95673 -29.214 0.422191 -0.298128 0.291062 
319 2 20.8675 8.00311 7.3289 -29.2001 -0.779754 -0.237135 -0.28021 
139 2 20.6963 11.5806 2.11681 -29.1069 0.716311 -0.0236875 -0.655604 
355 2 20.801 11.4711 7.32333 -29.0407 0.100887 1.77573 0.0947571 
175 2 20.822 15.1715 2.06366 -29.403 -1.10271 0.291462 0.22724 
391 2 20.8251 15.1167 7.20064 -29.5026 -0.0823542 0.750199 -0.2743 
211 2 20.8201 18.6894 2.08303 -29.2984 -0.127995 -0.117269 -0.503635 
427 2 20.7218 18.8219 7.17411 -29.5536 0.456533 0.254986 0.0695444 
3 1 2.75753 2.53823 -1.75231 -7.83608 0.137201 0.335931 0.54753 
219 1 2.68058 2.51915 3.62261 -8.16485 0.259169 -0.291784 -0.730588 
435 1 2.74209 2.63712 8.80671 -7.8743 -0.647938 0.411392 -0.495779 
39 1 2.75777 6.20468 -1.46229 -7.99009 0.417286 -0.143986 -1.35537 
255 1 2.56467 6.08474 3.70539 -7.3181 0.34018 0.452843 0.26805 
471 1 2.70394 6.19097 8.8042 -7.58807 0.142228 0.399104 0.652649 
75 1 2.81651 9.79163 -1.56564 -7.62052 0.750975 -0.0647298 -0.44817 
291 1 2.59691 9.83378 3.49299 -7.97613 -0.4367 -0.719156 1.21482 
507 1 2.89559 9.62044 8.80382 -7.90741 -1.10616 1.43874 0.875656 
111 1 2.67054 13.421 -1.57255 -7.51304 0.189189 -0.551895 0.0526451 
327 1 2.67555 13.327 3.53668 -7.99973 -0.350116 0.406387 0.0129575 
543 1 2.74724 13.4056 8.84144 -8.19838 0.126832 0.0419853 -0.200824 
147 1 2.78907 16.9264 -1.67786 -8.01792 -0.0365029 1.00617 -0.179134 
363 1 2.79112 17.0999 3.59736 -7.60747 -0.712801 0.276334 -0.540534 
579 1 2.70438 17.0945 8.95918 -7.85056 0.634226 -0.0217614 -1.23817 
183 1 2.58022 20.5507 -1.5396 -8.13138 1.35205 1.04889 -0.786376 
399 1 2.7725 20.6569 3.5743 -8.01407 0.361875 0.521449 0.948231 
615 1 2.62955 20.6004 8.7904 -7.75785 0.388589 0.32876 0.30144 
9 1 6.30781 2.47558 -1.65478 -7.87312 -0.792415 0.0363579 0.029298 
225 1 6.37712 2.71826 3.68564 -7.78787 -0.822416 -0.325759 -0.244797 
441 1 6.31093 2.63966 8.79329 -8.08916 0.340495 -0.527833 -0.290747 
45 1 6.35077 6.04744 -1.55329 -8.00983 0.208822 0.986788 -0.881391 
261 1 6.24372 6.06537 3.63068 -8.0738 0.377296 0.981758 0.241645 
477 1 6.46133 6.10586 8.82287 -7.48273 -0.28625 1.25052 0.172376 
81 1 6.3411 9.83959 -1.60601 -8.13526 0.00596567 -0.40163 0.296869 
297 1 6.23867 9.66849 3.60696 -8.45843 0.114759 -0.22928 -1.0342 
513 1 6.37966 9.6921 8.7526 -7.93622 0.125632 0.608248 1.39002 
117 1 6.37915 13.4227 -1.49568 -7.51439 -0.732437 -0.0791581 -1.10309 
333 1 6.20397 13.3894 3.628 -8.12243 0.468026 0.218458 -0.585799 
549 1 6.27257 13.3509 8.77873 -7.58251 0.519201 0.407069 0.290192 
153 1 6.33998 17.085 -1.61929 -7.71979 0.132319 -0.84743 0.27679 
369 1 6.31643 16.9862 3.49752 -8.23232 0.813118 -0.699883 0.814245 
585 1 6.30491 17.0746 8.68426 -8.12236 0.635029 0.423357 0.522076 
189 1 6.26049 20.6548 -1.57426 -7.51379 0.58947 0.325697 -0.790133 
405 1 6.36845 20.7233 3.67879 -8.03814 -1.14826 -0.454454 -0.361952 
621 1 6.28549 20.676 8.8595 -8.18577 0.64425 0.132116 -0.9264 
15 1 9.93602 2.48766 -1.53501 -7.87879 -0.0839911 0.738979 -0.178369 
231 1 9.81957 2.56135 3.6446 -7.9361 1.51689 0.137705 0.855027 
447 1 9.98025 2.5877 8.86693 -7.93421 -0.562835 -0.435324 -0.55934 
51 1 10.0007 5.91704 -1.52085 -8.11704 -0.802749 0.588391 -1.22567 
267 1 9.9407 6.10388 3.57975 -7.67787 0.0601199 0.165172 0.816903 
483 1 9.97676 6.15892 8.8615 -7.82232 0.514975 -0.365711 -0.376187 
87 1 9.76137 9.75411 -1.65628 -7.39867 0.916199 0.0163068 -0.454088 
303 1 9.81677 9.79494 3.46793 -8.20778 0.432049 -0.0772611 -0.0440824 
519 1 9.99118 9.75956 8.73263 -7.97125 -0.406697 0.166437 0.0899549 
123 1 9.97843 13.4787 -1.4507 -7.6224 0.151685 0.104892 -1.69098 
339 1 9.8676 13.1263 3.62983 -7.85387 1.19612 0.461468 0.440517 
555 1 10.0482 13.4276 8.83799 -7.62555 -0.765022 -0.13902 0.246815 
159 1 9.89401 17.0983 -1.63553 -8.42841 0.860999 -0.758293 0.177352 
375 1 9.88621 17.0361 3.54792 -8.08365 -0.396942 -0.305826 0.302915 
591 1 9.85076 17.0015 8.68941 -8.06407 -0.192055 0.228185 0.65923 
195 1 9.94049 20.6559 -1.60828 -7.42234 0.372779 -0.124178 -0.759551 
411 1 9.88758 20.6007 3.54726 -8.30648 -0.048492 0.203182 -0.309884 
627 1 10.0119 20.4931 8.78516 -8.27708 -0.248998 0.382303 0.26456 
21 1 13.5891 2.41492 -1.65298 -7.93091 -0.120064 0.855879 0.160384 
237 1 13.4541 2.61384 3.63607 -7.8604 0.204273 -0.411679 -0.136953 
453 1 13.6644 2.48869 8.78063 -7.91656 -0.0924264 0.558647 -0.253635 
430 1 20.8953 20.697 6.16813 -7.72486 -1.00291 -0.218866 0.447001 
273 1 13.5754 6.15372 3.58191 -8.33309 -0.18095 0.0515313 0.404859 
489 1 13.5304 6.15764 8.92603 -8.1788 0.793519 0.0421372 -1.56074 
93 1 13.5464 9.79512 -1.58429 -8.01735 -0.556824 0.398536 0.49244 
309 1 13.4079 9.55527 3.61266 -7.66349 1.38002 0.179467 0.413721 
525 1 13.5784 9.80241 8.81921 -7.78541 -0.418946 -0.443432 -0.120086 
129 1 13.5051 13.3668 -1.63079 -7.61158 0.690089 -0.4848 0.0702524 
345 1 13.6479 13.4154 3.65592 -7.73886 -2.02532 -0.682311 -0.997715 
561 1 13.4281 13.3983 8.77251 -8.06481 1.00367 -0.579677 -0.571508 
165 1 13.6806 17.0666 -1.7172 -7.89306 -1.41976 -0.053521 0.124858 
381 1 13.4973 16.9241 3.50332 -8.27335 -0.509027 0.760748 0.533201 
597 1 13.6356 16.9466 8.86255 -7.80291 0.0805408 -0.0860214 -0.767426 
201 1 13.6728 20.6831 -1.65426 -8.23086 -0.77342 -0.0426091 0.477665 
417 1 13.5257 20.5757 3.54854 -8.25021 0.706522 0.492551 -0.234798 
633 1 13.5274 20.4483 8.66823 -7.94709 -0.567487 0.320228 0.511686 
27 1 17.1724 2.67557 -1.59263 -7.51085 0.361356 -0.002097 0.353467 
243 1 17.1626 2.44089 3.547 -7.7463 -0.759076 0.374068 -0.132985 
459 1 17.0481 2.6106 8.67466 -7.96419 0.44079 -1.0889 0.712677 