LAMMPS data file via write_data, version 22 Dec 2022, timestep = 6

3 atoms
2 atom types

0.000949377507700259 3.0341609024923 xlo xhi
0.0008221850394602089 2.62766042076054 ylo yhi
0.0010082141653974881 3.222199785834603 zlo zhi
-1.5166057624923 0 0 xy xz yz

Masses

1 10.81
2 47.867

Atoms # atomic

2 1 0.0009493775163633292 1.7520476754874834 1.611604 0 0 0
1 1 1.5175551400076428 0.8764349302458223 1.611604 0 0 0
3 2 1.5175551400081275 2.627660420727298 0.0010082141653974881 -1 -1 0

Velocities

2 0 0 0
1 0 0 0
3 0 0 0
