LAMMPS (22 Dec 2022)
  using 1 OpenMP thread(s) per MPI task
Loaded 1 plugins from C:\Program Files\LAMMPS 64-bit 23Jun2022\plugins
Loaded 0 plugins from C:\Program Files\LAMMPS 64-bit 23Jun2022-MPI\plugins
Loaded 1 plugins from C:\Program Files\LAMMPS 64-bit 22Dec2022-MSMPI\plugins
Loaded 1 plugins from C:\Program Files\LAMMPS 64-bit 28Mar2023-MPI\plugins
# Compute elastic constant tensor for a crystal
#
# Written by Aidan Thompson (Sandia, athomps@sandia.gov)
#
#  This script uses the following three include files.
#
#   init.mod      (must be modified for different crystal structures)
# 	       	  Define units, deformation parameters and initial
#		  configuration of the atoms and simulation cell.
#
#
#   potential.mod    (must be modified for different pair styles)
# 		     Define pair style and other attributes
#		     not stored in restart file
#
#
#   displace.mod    (displace.mod should not need to be modified)
# 		    Perform positive and negative box displacements
# 		    in direction ${dir} and size ${up}.
# 		    It uses the resultant changes
#		    in stress to compute one
# 		    row of the elastic stiffness tensor
#
#		    Inputs variables:
#		    	   dir = the Voigt deformation component
#		    		    (1,2,3,4,5,6)
#		    Global constants:
#       	    	   up = the deformation magnitude (strain units)
#       		   cfac = conversion from LAMMPS pressure units to
#               	   output units for elastic constants
#
#
#  To run this on a different system, it should only be necessary to
#  modify the files init.mod and potential.mod. In order to calculate
#  the elastic constants correctly, care must be taken to specify
#  the correct units in init.mod (units, cfac and cunits). It is also
#  important to verify that the minimization of energy w.r.t atom
#  positions in the deformed cell is fully converged.
#  One indication of this is that the elastic constants are insensitive
#  to the choice of the variable ${up} in init.mod. Another is to check
#  the final max and two-norm forces reported in the log file. If you know
#  that minimization is not required, you can set maxiter = 0.0 in
#  init.mod.
#

include init.mod
# NOTE: This script can be modified for different atomic structures,
# units, etc. See in.elastic for more info.
#

# Define the finite deformation size. Try several values of this
# variable to verify that results do not depend on it.
variable up equal 1.0e-6

# Define the amount of random jiggle for atoms
# This prevents atoms from staying on saddle points
variable atomjiggle equal 1.0e-5

# Uncomment one of these blocks, depending on what units
# you are using in LAMMPS and for output

# metal units, elastic constants in eV/A^3
#units		metal
#variable cfac equal 6.2414e-7
#variable cunits string eV/A^3

# metal units, elastic constants in GPa
units		metal
variable cfac equal 1.0e-4
variable cunits string GPa

# real units, elastic constants in GPa
#units		real
#variable cfac equal 1.01325e-4
#variable cunits string GPa

# Define minimization parameters
variable etol equal 0.0
variable ftol equal 1.0e-10
variable maxiter equal 100
variable maxeval equal 1000
variable dmax equal 1.0e-2

# generate the box and atom positions using a diamond lattice

dimension    3
boundary     p p p
read_data    data.in
Reading data file ...
  triclinic box = (0.00094937751 0.00082218504 0.0010082142) to (3.0341609 2.6276604 3.2221998) with tilt (-1.5166058 0 0)
WARNING: Triclinic box skew is large. LAMMPS will run inefficiently. (src/domain.cpp:220)
  1 by 2 by 2 MPI processor grid
  reading atoms ...
  3 atoms
  reading velocities ...
  3 velocities
  read_data CPU = 0.001 seconds
replicate    2 3 4
Replication is creating a 2x3x4 = 24 times larger system...
  triclinic box = (0.00094937751 0.00082218504 0.0010082142) to (6.0673724 7.8813369 12.885775) with tilt (-4.5498173 0 0)
WARNING: Triclinic box skew is large. LAMMPS will run inefficiently. (src/domain.cpp:220)
  1 by 2 by 2 MPI processor grid
  72 atoms
  replicate CPU = 0.000 seconds
change_box   all triclinic
Changing box ...
WARNING: Triclinic box skew is large. LAMMPS will run inefficiently. (src/domain.cpp:220)
  triclinic box = (0.00094937751 0.00082218504 0.0010082142) to (6.0673724 7.8813369 12.885775) with tilt (-4.5498173 0 0)

# Need to set mass to something, just to satisfy LAMMPS
mass 1 1.0e-20

include potential.mod
# NOTE: This script can be modified for different pair styles
# See in.elastic for more info.

# Choose potential
#-----------------------
#pair_style	sw
#pair_coeff * * Si.sw Si
#-----------------------
#pair_style morse	2.83994742	# D0[eV] a[1/A] r0[A] rc[A], 1NN for BCC
#pair_coeff 1 1	2.1173	1.0202	2.4595	2.6497	#	Fe-Fe
#-----------------------
#pair_style smatb # R0(A)   p       q     A(eV)   xi(eV)  Rcs(A)   Rc(A), 4NN: Rcs=4NN, Rc=(4NN+5NN)/2
#pair_coeff 1 1	2.4802	7.0149	2.3779	0.3144	3.0551	4.033	4.176	#	Co	Co
#-----------------------
#pair_style eam/alloy
#pair_coeff * * AlCrFeCoNi_Zhou04.eam.alloy Fe
#-----------------------
pair_style meam
pair_coeff * * ./../../library.meam B Ti ./../../BTi.meam B Ti
#-----------------------

# Setup neighbor style
neighbor 1.0 nsq
neigh_modify once no every 1 delay 0 check yes

# Setup minimization style
min_style	     cg
min_modify	     dmax ${dmax} line quadratic
min_modify	     dmax 0.01 line quadratic

# Setup output
thermo		1
thermo_style custom step temp pe press pxx pyy pzz pxy pxz pyz lx ly lz vol
thermo_modify norm no

# Compute initial state
fix 3 all box/relax  aniso 0.0
minimize ${etol} ${ftol} ${maxiter} ${maxeval}
minimize 0 ${ftol} ${maxiter} ${maxeval}
minimize 0 1e-10 ${maxiter} ${maxeval}
minimize 0 1e-10 100 ${maxeval}
minimize 0 1e-10 100 1000
Neighbor list info ...
  update: every = 1 steps, delay = 0 steps, check = yes
  max neighbors/atom: 2000, page size: 100000
  master list distance cutoff = 6
  ghost atom cutoff = 6
  2 neighbor lists, perpetual/occasional/extra = 2 0 0
  (1) pair meam, perpetual
      attributes: full, newton on
      pair build: full/nsq
      stencil: none
      bin: none
  (2) pair meam, perpetual, half/full from (1)
      attributes: half, newton on
      pair build: halffull/newton
      stencil: none
      bin: none
Per MPI rank memory allocation (min/avg/max) = 9.901 | 9.903 | 9.905 Mbytes
   Step          Temp          PotEng         Press           Pxx            Pyy            Pzz            Pxy            Pxz            Pyz             Lx             Ly             Lz           Volume    
         0   0             -471.46462     -1.7233672e-07  21181.638      21181.638     -42363.276     -2.789801e-07  -3.8172197e-12 -6.4721275e-11  6.066423       7.8805147      12.884766      615.97604    
         1   0             -471.46705     -37.568742      20991.115      20991.115     -42094.935     -6.0239281e-07 -4.7692686e-11 -4.0680914e-11  6.0667264      7.8809087      12.883478      615.97604    
         2   0             -471.46946     -74.224422      20801.593      20801.593     -41825.859     -9.2255768e-07  5.1618211e-12  2.3101857e-12  6.0670288      7.8813016      12.882189      615.97585    
         3   0             -471.47186     -109.97672      20613.059      20613.059     -41556.049     -1.2403995e-06 -8.099191e-11  -1.714592e-11   6.0673305      7.8816935      12.880901      615.97548    
         4   0             -471.47423     -144.83522      20425.5        20425.5       -41285.506     -1.5552752e-06 -4.4362851e-11  1.4944036e-11  6.0676312      7.8820842      12.879612      615.97493    
         5   0             -471.47659     -178.80945      20238.902      20238.902     -41014.232     -1.8672941e-06  1.1948023e-11 -2.1585855e-11  6.0679312      7.8824738      12.878324      615.97421    
         6   0             -471.47893     -211.90883      20053.251      20053.251     -40742.229     -2.1766848e-06  5.5589073e-11  3.0321312e-12  6.0682303      7.8828624      12.877035      615.97331    
         7   0             -471.48124     -244.14272      19868.535      19868.535     -40469.498     -2.4833832e-06  7.8239952e-12 -5.3495552e-11  6.0685286      7.8832499      12.875747      615.97223    
         8   0             -471.48354     -275.52038      19684.74       19684.74      -40196.041     -2.7869843e-06  5.0301081e-11 -5.3134691e-11  6.0688261      7.8836364      12.874458      615.97098    
         9   0             -471.48582     -306.05102      19501.853      19501.853     -39921.858     -3.0879178e-06  7.8366629e-11 -4.9525111e-11  6.0691229      7.8840219      12.87317       615.96957    
        10   0             -471.48808     -335.74375      19319.86       19319.86      -39646.952     -3.3870826e-06  6.612991e-11   3.0610351e-11  6.0694188      7.8844063      12.871882      615.96798    
        11   0             -471.49032     -364.60762      19138.75       19138.75      -39371.322     -3.6823157e-06  1.4538153e-11  7.2916374e-12  6.069714       7.8847898      12.870593      615.96623    
        12   0             -471.49254     -392.65159      18958.508      18958.508     -39094.972     -3.9752236e-06  5.2070394e-12  8.616432e-11   6.0700084      7.8851722      12.869305      615.96432    
        13   0             -471.49474     -419.88458      18779.123      18779.123     -38817.9       -4.2656301e-06 -5.9551766e-11 -9.1940202e-11  6.0703021      7.8855537      12.868016      615.96224    
        14   0             -471.49692     -446.3154       18600.582      18600.582     -38540.11      -4.5542085e-06  1.4529276e-11 -4.7143439e-11  6.070595       7.8859342      12.866728      615.96       
        15   0             -471.49908     -471.95281      18422.871      18422.871     -38261.601     -4.8390848e-06 -3.7198701e-11  2.9780619e-11  6.0708871      7.8863137      12.865439      615.95761    
        16   0             -471.50123     -496.80551      18245.979      18245.979     -37982.375     -5.1216663e-06  2.8742929e-11  6.8910834e-11  6.0711786      7.8866923      12.864151      615.95506    
        17   0             -471.50335     -520.8821       18069.893      18069.893     -37702.432     -5.4015579e-06  3.9238557e-11 -3.3210186e-12  6.0714693      7.88707        12.862862      615.95235    
        18   0             -471.50546     -544.19115      17894.6        17894.6       -37421.774     -5.6783319e-06  4.3579547e-11  2.7903906e-11  6.0717593      7.8874467      12.861574      615.94949    
        19   0             -471.50755     -566.74114      17720.089      17720.089     -37140.401     -5.9533846e-06  3.4762733e-11 -3.6459356e-12  6.0720486      7.8878226      12.860285      615.94648    
        20   0             -471.50962     -588.54052      17546.346      17546.346     -36858.314     -6.2253464e-06 -2.0919114e-11 -6.2270013e-11  6.0723373      7.8881975      12.858997      615.94331    
        21   0             -471.51167     -609.59764      17373.36       17373.36      -36575.514     -6.4946546e-06 -7.0112801e-11  7.2558492e-11  6.0726252      7.8885715      12.857708      615.94001    
        22   0             -471.5137      -629.92081      17201.119      17201.119     -36292.001     -6.7615275e-06 -6.6692819e-11  8.0536768e-11  6.0729124      7.8889447      12.85642       615.93655    
        23   0             -471.51572     -649.51826      17029.611      17029.611     -36007.777     -7.0264405e-06 -5.8074533e-11  1.212932e-11   6.073199       7.889317       12.855131      615.93295    
        24   0             -471.51771     -668.39816      16858.823      16858.823     -35722.841     -7.2882942e-06 -1.7147208e-13 -4.3860753e-11  6.073485       7.8896884      12.853843      615.92921    
        25   0             -471.51969     -686.56863      16688.744      16688.744     -35437.194     -7.5474734e-06  5.7732305e-11  1.8699599e-11  6.0737702      7.890059       12.852554      615.92532    
        26   0             -471.52165     -704.03773      16519.362      16519.362     -35150.838     -7.8050514e-06  2.264363e-11  -6.1261443e-11  6.0740549      7.8904287      12.851266      615.9213     
        27   0             -471.52359     -720.81344      16350.665      16350.665     -34863.771     -8.0592065e-06 -5.0612329e-11 -3.1479281e-11  6.0743389      7.8907977      12.849977      615.91714    
        28   0             -471.52551     -736.90372      16182.642      16182.642     -34575.995     -8.3114463e-06  3.6010093e-12  4.4583925e-11  6.0746222      7.8911658      12.848689      615.91284    
        29   0             -471.52741     -752.31644      16015.281      16015.281     -34287.511     -8.5603735e-06  2.2499701e-11  3.2346141e-11  6.074905       7.8915331      12.8474        615.90841    
        30   0             -471.5293      -767.05943      15848.57       15848.57      -33998.317     -8.807755e-06   2.8429436e-11  1.0303189e-10  6.0751871      7.8918996      12.846112      615.90384    
        31   0             -471.53117     -781.14048      15682.497      15682.497     -33708.416     -9.0521885e-06 -5.1750994e-11 -4.9783481e-11  6.0754687      7.8922653      12.844824      615.89915    
        32   0             -471.53301     -794.56731      15517.052      15517.052     -33417.806     -9.29409e-06   -4.4982381e-11 -1.1642711e-10  6.0757496      7.8926303      12.843535      615.89432    
        33   0             -471.53485     -807.34758      15352.223      15352.223     -33126.489     -9.534224e-06   5.7491989e-12  8.3611583e-11  6.07603        7.8929944      12.842247      615.88937    
        34   0             -471.53666     -819.48893      15187.999      15187.998     -32834.464     -9.7716887e-06  3.4703065e-11  5.0542825e-11  6.0763097      7.8933579      12.840958      615.88429    
        35   0             -471.53845     -830.99892      15024.367      15024.367     -32541.731     -1.0005888e-05 -3.4215976e-11  5.3720256e-11  6.0765889      7.8937206      12.83967       615.87908    
        36   0             -471.54023     -841.88508      14861.318      14861.318     -32248.292     -1.0238838e-05 -4.7835991e-13  6.0038682e-11  6.0768676      7.8940825      12.838381      615.87376    
        37   0             -471.54199     -852.15488      14698.84       14698.84      -31954.145     -1.0468773e-05  1.1778589e-11 -1.3285887e-11  6.0771456      7.8944438      12.837093      615.86831    
        38   0             -471.54373     -861.81575      14536.922      14536.921     -31659.29      -1.0696274e-05 -4.5345721e-11  1.1192017e-11  6.0774232      7.8948043      12.835804      615.86274    
        39   0             -471.54545     -870.87506      14375.552      14375.552     -31363.729     -1.0921045e-05 -5.8117793e-11  3.7114516e-11  6.0777002      7.8951641      12.834516      615.85705    
        40   0             -471.54715     -879.34009      14214.72       14214.72      -31067.46      -1.1144179e-05  2.4758287e-11 -9.6289247e-11  6.0779766      7.8955232      12.833227      615.85125    
        41   0             -471.54884     -887.21918      14054.413      14054.413     -30770.484     -1.1364833e-05 -9.022465e-11   8.3834189e-11  6.0782526      7.8958817      12.831939      615.84533    
        42   0             -471.55051     -894.51971      13894.62       13894.62      -30472.8       -1.1583175e-05  7.515184e-11  -5.863396e-11   6.078528       7.8962394      12.83065       615.83929    
        43   0             -471.55216     -901.24885      13735.331      13735.331     -30174.409     -1.1798739e-05 -2.0218809e-12  1.2636756e-11  6.0788029      7.8965966      12.829362      615.83315    
        44   0             -471.55379     -907.41372      13576.534      13576.534     -29875.31      -1.2012078e-05  6.8997386e-11 -2.1229965e-11  6.0790773      7.896953       12.828073      615.82689    
        45   0             -471.55541     -913.02142      13418.219      13418.219     -29575.503     -1.2223499e-05  4.7217302e-11  4.2243734e-12  6.0793512      7.8973088      12.826785      615.82053    
        46   0             -471.55701     -918.07898      13260.375      13260.375     -29274.987     -1.2432423e-05 -3.7279585e-11 -9.3009405e-11  6.0796246      7.897664       12.825496      615.81405    
        47   0             -471.55859     -922.59343      13102.991      13102.991     -28973.763     -1.2638896e-05  2.3830304e-11 -9.1530031e-11  6.0798975      7.8980185      12.824208      615.80747    
        48   0             -471.56015     -926.57172      12946.058      12946.057     -28671.83      -1.2842634e-05 -6.7519928e-12  4.7661125e-11  6.0801699      7.8983724      12.822919      615.80079    
        49   0             -471.56169     -930.0208       12789.563      12789.563     -28369.188     -1.3044583e-05 -4.8609468e-11 -1.0586664e-10  6.0804419      7.8987258      12.821631      615.794      
        50   0             -471.56322     -932.94757      12633.497      12633.497     -28065.836     -1.3243993e-05  1.2366892e-11  2.0148105e-11  6.0807134      7.8990785      12.820342      615.78711    
        51   0             -471.56473     -935.35888      12477.849      12477.849     -27761.774     -1.3441827e-05 -1.5201521e-11 -8.4493013e-11  6.0809845      7.8994306      12.819054      615.78012    
        52   0             -471.56622     -937.26158      12322.609      12322.609     -27457.002     -1.3636558e-05 -8.4096792e-11  6.5284242e-11  6.0812551      7.8997822      12.817766      615.77303    
        53   0             -471.56769     -938.66245      12167.766      12167.766     -27151.519     -1.3829411e-05 -5.1798306e-11 -3.130647e-11   6.0815253      7.9001331      12.816477      615.76584    
        54   0             -471.56915     -939.56827      12013.31       12013.31      -26845.324     -1.401994e-05  -4.1805646e-11  5.322524e-11   6.0817951      7.9004835      12.815189      615.75856    
        55   0             -471.57058     -939.98578      11859.23       11859.23      -26538.417     -1.4208443e-05 -9.9302011e-12  3.9179157e-11  6.0820644      7.9008334      12.8139        615.75118    
        56   0             -471.572       -939.92167      11705.517      11705.516     -26230.798     -1.4394103e-05 -2.5791753e-11 -8.182585e-11   6.0823333      7.9011827      12.812612      615.74371    
        57   0             -471.57341     -939.38262      11552.159      11552.159     -25922.466     -1.45784e-05    1.2422082e-11 -1.2097086e-10  6.0826018      7.9015315      12.811323      615.73614    
        58   0             -471.57479     -938.37529      11399.147      11399.147     -25613.42      -1.4759711e-05 -1.5988213e-11  3.0513924e-12  6.0828699      7.9018798      12.810035      615.72849    
        59   0             -471.57616     -936.9063       11246.47       11246.47      -25303.659     -1.4938924e-05  4.9933324e-11 -2.2714201e-11  6.0831376      7.9022275      12.808746      615.72075    
        60   0             -471.57751     -934.98226      11094.119      11094.118     -24993.184     -1.5116243e-05 -2.7950739e-11 -1.51129e-11    6.0834049      7.9025747      12.807458      615.71292    
        61   0             -471.57884     -932.60975      10942.082      10942.082     -24681.993     -1.5291135e-05 -7.2459792e-11 -3.9398771e-11  6.0836718      7.9029215      12.806169      615.705      
        62   0             -471.58015     -929.79531      10790.35       10790.35      -24370.085     -1.5463636e-05  1.1321425e-11 -6.319775e-12   6.0839383      7.9032677      12.804881      615.697      
        63   0             -471.58145     -926.54547      10638.912      10638.912     -24057.461     -1.5634076e-05 -1.3361985e-12  1.3150722e-10  6.0842045      7.9036135      12.803592      615.68891    
        64   0             -471.58273     -922.86674      10487.759      10487.759     -23744.118     -1.5802631e-05 -1.4707407e-11  3.9183639e-12  6.0844703      7.9039588      12.802304      615.68074    
        65   0             -471.58399     -918.7656       10336.88       10336.88      -23430.057     -1.5967922e-05 -3.8660505e-11  1.440966e-11   6.0847358      7.9043036      12.801015      615.6725     
        66   0             -471.58523     -914.24851      10186.266      10186.266     -23115.277     -1.6131683e-05 -2.2409311e-11  9.4476645e-11  6.0850009      7.904648       12.799727      615.66417    
        67   0             -471.58646     -909.32179      10035.905      10035.905     -22799.776     -1.6293866e-05 -7.205026e-12  -9.435153e-11   6.0852656      7.9049919      12.798438      615.65576    
        68   0             -471.58767     -903.99158      9885.7896      9885.7895     -22483.554     -1.6453452e-05  2.0766652e-13  3.4147598e-11  6.08553        7.9053354      12.79715       615.64728    
        69   0             -471.58886     -898.26437      9735.908       9735.9079     -22166.609     -1.6610121e-05 -3.5610788e-11  8.2796888e-11  6.0857941      7.9056785      12.795861      615.63873    
        70   0             -471.59003     -892.14657      9586.2506      9586.2506     -21848.941     -1.6765486e-05  4.1435141e-11 -1.4157834e-11  6.0860579      7.9060211      12.794573      615.6301     
        71   0             -471.59119     -885.64458      9436.8075      9436.8075     -21530.549     -1.6918052e-05 -3.4582444e-11  1.126864e-11   6.0863213      7.9063633      12.793284      615.62139    
        72   0             -471.59233     -878.76479      9287.5685      9287.5685     -21211.431     -1.7068793e-05 -1.7652648e-11 -5.8998671e-11  6.0865845      7.9067052      12.791996      615.61262    
        73   0             -471.59345     -871.51359      9138.5237      9138.5237     -20891.588     -1.721752e-05   5.1468818e-13 -1.2171924e-11  6.0868473      7.9070466      12.790707      615.60377    
        74   0             -471.59455     -863.89735      8989.663       8989.663      -20571.018     -1.7364233e-05 -3.8845975e-11 -3.0321893e-11  6.0871099      7.9073877      12.789419      615.59486    
        75   0             -471.59564     -855.92243      8840.9764      8840.9764     -20249.72      -1.7508189e-05  1.9549689e-11  1.0113465e-11  6.0873721      7.9077283      12.788131      615.58588    
        76   0             -471.5967      -847.5952       8692.4539      8692.4539     -19927.693     -1.7650888e-05  6.3372626e-11 -4.6396203e-11  6.0876341      7.9080686      12.786842      615.57684    
        77   0             -471.59775     -838.92201      8544.0855      8544.0854     -19604.937     -1.7790762e-05 -8.7592415e-12  1.3274314e-11  6.0878958      7.9084086      12.785554      615.56773    
        78   0             -471.59879     -829.90922      8395.861       8395.861      -19281.45      -1.7928719e-05  3.0215318e-11  3.2689615e-11  6.0881572      7.9087482      12.784265      615.55856    
        79   0             -471.5998      -820.5632       8247.7706      8247.7705     -18957.231     -1.8063796e-05 -1.4493818e-11  8.9401117e-12  6.0884183      7.9090874      12.782977      615.54932    
        80   0             -471.6008      -810.89029      8099.804       8099.804      -18632.279     -1.8197779e-05 -3.3963907e-11 -1.8909976e-11  6.0886792      7.9094263      12.781688      615.54003    
        81   0             -471.60178     -800.89686      7951.9514      7951.9514     -18306.593     -1.8329195e-05  5.7001712e-11 -7.7790359e-11  6.0889399      7.9097649      12.7804        615.53067    
        82   0             -471.60274     -790.58928      7804.2027      7804.2026     -17980.173     -1.8458588e-05 -3.3594678e-12  4.9272195e-11  6.0892003      7.9101032      12.779111      615.52126    
        83   0             -471.60368     -779.97392      7656.5476      7656.5476     -17653.017     -1.8586307e-05 -1.2345331e-11  5.3228516e-11  6.0894605      7.9104412      12.777823      615.5118     
        84   0             -471.60461     -769.05717      7508.9763      7508.9763     -17325.124     -1.8711263e-05  5.7961639e-11 -3.7876459e-11  6.0897204      7.9107789      12.776534      615.50228    
        85   0             -471.60552     -757.84544      7361.4784      7361.4784     -16996.493     -1.8834034e-05  3.673008e-11  -6.0111977e-11  6.0899801      7.9111163      12.775246      615.4927     
        86   0             -471.60641     -746.34513      7214.044       7214.044      -16667.123     -1.8954864e-05 -6.6922584e-12 -5.2923933e-11  6.0902397      7.9114534      12.773957      615.48308    
        87   0             -471.60728     -734.56267      7066.6627      7066.6627     -16337.013     -1.907409e-05   3.2242562e-12 -2.5757923e-11  6.090499       7.9117902      12.772669      615.4734     
        88   0             -471.60814     -722.50453      6919.3245      6919.3245     -16006.163     -1.9191024e-05  3.0436737e-12 -9.2538517e-11  6.090758       7.9121268      12.77138       615.46367    
        89   0             -471.60897     -710.17716      6772.0191      6772.0191     -15674.57      -1.9305012e-05  2.6517412e-11  7.2290655e-11  6.0910169      7.9124631      12.770092      615.4539     
        90   0             -471.60979     -697.58708      6624.7361      6624.7361     -15342.233     -1.9418094e-05 -4.8040996e-11  1.7883281e-12  6.0912757      7.9127992      12.768803      615.44408    
        91   0             -471.61059     -684.74081      6477.4654      6477.4653     -15009.153     -1.9528673e-05  6.1418313e-13 -7.9301881e-12  6.0915342      7.913135       12.767515      615.43421    
        92   0             -471.61138     -671.64491      6330.1964      6330.1964     -14675.328     -1.9636945e-05 -1.0287733e-11  1.1814183e-11  6.0917925      7.9134706      12.766226      615.4243     
        93   0             -471.61215     -658.30598      6182.9189      6182.9188     -14340.756     -1.9743415e-05  1.4253121e-11 -3.0854666e-11  6.0920507      7.913806       12.764938      615.41435    
        94   0             -471.61289     -644.73066      6035.6222      6035.6222     -14005.436     -1.9847528e-05 -8.1383213e-12  1.1763984e-10  6.0923088      7.9141412      12.763649      615.40436    
        95   0             -471.61362     -630.92563      5888.296       5888.296      -13669.369     -1.9949121e-05 -1.4723285e-12  1.1814759e-11  6.0925666      7.9144762      12.762361      615.39433    
        96   0             -471.61434     -616.89762      5740.9296      5740.9296     -13332.552     -2.0049331e-05  3.1614933e-11  8.0374193e-11  6.0928244      7.914811       12.761073      615.38426    
        97   0             -471.61503     -602.6534       5593.5123      5593.5123     -12994.985     -2.0147174e-05 -1.0424066e-11  6.9590127e-11  6.0930819      7.9151456      12.759784      615.37416    
        98   0             -471.61571     -588.19983      5446.0334      5446.0334     -12656.666     -2.0242677e-05 -2.3892643e-11 -1.0839762e-11  6.0933394      7.9154801      12.758496      615.36402    
        99   0             -471.61637     -573.54381      5298.4821      5298.4821     -12317.596     -2.0336646e-05 -4.6042652e-11  5.5121103e-11  6.0935967      7.9158144      12.757207      615.35384    
       100   0             -471.61701     -558.69229      5150.8474      5150.8474     -11977.772     -2.0427813e-05 -7.2583645e-11  3.1454419e-11  6.093854       7.9161485      12.755919      615.34364    
Loop time of 0.055754 on 4 procs for 100 steps with 72 atoms

56.0% CPU use with 4 MPI tasks x 1 OpenMP threads

Minimization stats:
  Stopping criterion = max iterations
  Energy initial, next-to-last, final = 
     -471.464615527548  -471.616366293549  -471.617006941678
  Force two-norm initial, final = 19.947507 5.4174706
  Force max component initial, final = 16.287071 4.646738
  Final line search alpha, max atom move = 2.0928522e-05 9.7249359e-05
  Iterations, force evaluations = 100 100

MPI task timing breakdown:
Section |  min time  |  avg time  |  max time  |%varavg| %total
---------------------------------------------------------------
Pair    | 0.041243   | 0.04438    | 0.047919   |   1.1 | 79.60
Neigh   | 0          | 0          | 0          |   0.0 |  0.00
Comm    | 0.002281   | 0.0058085  | 0.008947   |   3.2 | 10.42
Output  | 0.001104   | 0.0012712  | 0.001358   |   0.3 |  2.28
Modify  | 0          | 0          | 0          |   0.0 |  0.00
Other   |            | 0.004294   |            |       |  7.70

Nlocal:             18 ave          20 max          16 min
Histogram: 2 0 0 0 0 0 0 0 0 2
Nghost:            624 ave         626 max         622 min
Histogram: 2 0 0 0 0 0 0 0 0 2
Neighs:            882 ave         976 max         788 min
Histogram: 2 0 0 0 0 0 0 0 0 2
FullNghs:         1764 ave        1960 max        1568 min
Histogram: 2 0 0 0 0 0 0 0 0 2

Total # of neighbors = 7056
Ave neighs/atom = 98
Neighbor list builds = 0
Dangerous builds = 0

variable tmp equal pxx
variable pxx0 equal ${tmp}
variable pxx0 equal 5150.84736185881
variable tmp equal pyy
variable pyy0 equal ${tmp}
variable pyy0 equal 5150.84735549275
variable tmp equal pzz
variable pzz0 equal ${tmp}
variable pzz0 equal -11977.7716011734
variable tmp equal pyz
variable pyz0 equal ${tmp}
variable pyz0 equal 3.14544185982056e-11
variable tmp equal pxz
variable pxz0 equal ${tmp}
variable pxz0 equal -7.25836454441648e-11
variable tmp equal pxy
variable pxy0 equal ${tmp}
variable pxy0 equal -2.04278128245114e-05

variable tmp equal lx
variable lx0 equal ${tmp}
variable lx0 equal 6.09385395039607
variable tmp equal ly
variable ly0 equal ${tmp}
variable ly0 equal 7.9161484920018
variable tmp equal lz
variable lz0 equal ${tmp}
variable lz0 equal 12.7559186238101

# These formulas define the derivatives w.r.t. strain components
# Constants uses $, variables use v_
variable d1 equal -(v_pxx1-${pxx0})/(v_delta/v_len0)*${cfac}
variable d1 equal -(v_pxx1-5150.84736185881)/(v_delta/v_len0)*${cfac}
variable d1 equal -(v_pxx1-5150.84736185881)/(v_delta/v_len0)*0.0001
variable d2 equal -(v_pyy1-${pyy0})/(v_delta/v_len0)*${cfac}
variable d2 equal -(v_pyy1-5150.84735549275)/(v_delta/v_len0)*${cfac}
variable d2 equal -(v_pyy1-5150.84735549275)/(v_delta/v_len0)*0.0001
variable d3 equal -(v_pzz1-${pzz0})/(v_delta/v_len0)*${cfac}
variable d3 equal -(v_pzz1--11977.7716011734)/(v_delta/v_len0)*${cfac}
variable d3 equal -(v_pzz1--11977.7716011734)/(v_delta/v_len0)*0.0001
variable d4 equal -(v_pyz1-${pyz0})/(v_delta/v_len0)*${cfac}
variable d4 equal -(v_pyz1-3.14544185982056e-11)/(v_delta/v_len0)*${cfac}
variable d4 equal -(v_pyz1-3.14544185982056e-11)/(v_delta/v_len0)*0.0001
variable d5 equal -(v_pxz1-${pxz0})/(v_delta/v_len0)*${cfac}
variable d5 equal -(v_pxz1--7.25836454441648e-11)/(v_delta/v_len0)*${cfac}
variable d5 equal -(v_pxz1--7.25836454441648e-11)/(v_delta/v_len0)*0.0001
variable d6 equal -(v_pxy1-${pxy0})/(v_delta/v_len0)*${cfac}
variable d6 equal -(v_pxy1--2.04278128245114e-05)/(v_delta/v_len0)*${cfac}
variable d6 equal -(v_pxy1--2.04278128245114e-05)/(v_delta/v_len0)*0.0001

displace_atoms all random ${atomjiggle} ${atomjiggle} ${atomjiggle} 87287 units box
displace_atoms all random 1e-05 ${atomjiggle} ${atomjiggle} 87287 units box
displace_atoms all random 1e-05 1e-05 ${atomjiggle} 87287 units box
displace_atoms all random 1e-05 1e-05 1e-05 87287 units box
Displacing atoms ...

# Write restart
unfix 3
write_restart restart.equil
System init for write_restart ...

# uxx Perturbation

variable dir equal 1
include displace.mod
# NOTE: This script should not need to be
# modified. See in.elastic for more info.
#
# Find which reference length to use

if "${dir} == 1" then    "variable len0 equal ${lx0}"
variable len0 equal ${lx0}
variable len0 equal 6.09385395039607
if "${dir} == 2" then    "variable len0 equal ${ly0}"
if "${dir} == 3" then    "variable len0 equal ${lz0}"
if "${dir} == 4" then    "variable len0 equal ${lz0}"
if "${dir} == 5" then    "variable len0 equal ${lz0}"
if "${dir} == 6" then    "variable len0 equal ${ly0}"

# Reset box and simulation parameters

clear
  using 1 OpenMP thread(s) per MPI task
Loaded 1 plugins from C:\Program Files\LAMMPS 64-bit 23Jun2022\plugins
Loaded 0 plugins from C:\Program Files\LAMMPS 64-bit 23Jun2022-MPI\plugins
Loaded 1 plugins from C:\Program Files\LAMMPS 64-bit 22Dec2022-MSMPI\plugins
Loaded 1 plugins from C:\Program Files\LAMMPS 64-bit 28Mar2023-MPI\plugins
box tilt large

The 'box' command has been removed and will be ignored

read_restart restart.equil
Reading restart file ...
  restart file = 22 Dec 2022, LAMMPS = 22 Dec 2022
  restoring atom style atomic from restart
  triclinic box = (-0.012766073 -0.016994707 0.065432046) to (6.0810879 7.8991538 12.821351) with tilt (-4.5703905 0 0)
WARNING: Triclinic box skew is large. LAMMPS will run inefficiently. (src/domain.cpp:220)
  1 by 2 by 2 MPI processor grid
  pair style meam stores no restart info
  72 atoms
  read_restart CPU = 0.000 seconds
include potential.mod
# NOTE: This script can be modified for different pair styles
# See in.elastic for more info.

# Choose potential
#-----------------------
#pair_style	sw
#pair_coeff * * Si.sw Si
#-----------------------
#pair_style morse	2.83994742	# D0[eV] a[1/A] r0[A] rc[A], 1NN for BCC
#pair_coeff 1 1	2.1173	1.0202	2.4595	2.6497	#	Fe-Fe
#-----------------------
#pair_style smatb # R0(A)   p       q     A(eV)   xi(eV)  Rcs(A)   Rc(A), 4NN: Rcs=4NN, Rc=(4NN+5NN)/2
#pair_coeff 1 1	2.4802	7.0149	2.3779	0.3144	3.0551	4.033	4.176	#	Co	Co
#-----------------------
#pair_style eam/alloy
#pair_coeff * * AlCrFeCoNi_Zhou04.eam.alloy Fe
#-----------------------
pair_style meam
pair_coeff * * ./../../library.meam B Ti ./../../BTi.meam B Ti
#-----------------------

# Setup neighbor style
neighbor 1.0 nsq
neigh_modify once no every 1 delay 0 check yes

# Setup minimization style
min_style	     cg
min_modify	     dmax ${dmax} line quadratic
min_modify	     dmax 0.01 line quadratic

# Setup output
thermo		1
thermo_style custom step temp pe press pxx pyy pzz pxy pxz pyz lx ly lz vol
thermo_modify norm no

# Negative deformation

variable delta equal -${up}*${len0}
variable delta equal -1e-06*${len0}
variable delta equal -1e-06*6.09385395039607
variable deltaxy equal -${up}*xy
variable deltaxy equal -1e-06*xy
variable deltaxz equal -${up}*xz
variable deltaxz equal -1e-06*xz
variable deltayz equal -${up}*yz
variable deltayz equal -1e-06*yz
if "${dir} == 1" then    "change_box all x delta 0 ${delta} xy delta ${deltaxy} xz delta ${deltaxz} remap units box"
change_box all x delta 0 ${delta} xy delta ${deltaxy} xz delta ${deltaxz} remap units box
change_box all x delta 0 -6.09385395039607e-06 xy delta ${deltaxy} xz delta ${deltaxz} remap units box
change_box all x delta 0 -6.09385395039607e-06 xy delta 4.57039046274543e-06 xz delta ${deltaxz} remap units box
change_box all x delta 0 -6.09385395039607e-06 xy delta 4.57039046274543e-06 xz delta -0 remap units box
Changing box ...
WARNING: Triclinic box skew is large. LAMMPS will run inefficiently. (src/domain.cpp:220)
  triclinic box = (-0.012766073 -0.016994707 0.065432046) to (6.0810818 7.8991538 12.821351) with tilt (-4.5703905 0 0)
WARNING: Triclinic box skew is large. LAMMPS will run inefficiently. (src/domain.cpp:220)
  triclinic box = (-0.012766073 -0.016994707 0.065432046) to (6.0810818 7.8991538 12.821351) with tilt (-4.5703859 0 0)
WARNING: Triclinic box skew is large. LAMMPS will run inefficiently. (src/domain.cpp:220)
  triclinic box = (-0.012766073 -0.016994707 0.065432046) to (6.0810818 7.8991538 12.821351) with tilt (-4.5703859 0 0)
if "${dir} == 2" then    "change_box all y delta 0 ${delta} yz delta ${deltayz} remap units box"
if "${dir} == 3" then    "change_box all z delta 0 ${delta} remap units box"
if "${dir} == 4" then    "change_box all yz delta ${delta} remap units box"
if "${dir} == 5" then    "change_box all xz delta ${delta} remap units box"
if "${dir} == 6" then    "change_box all xy delta ${delta} remap units box"

# Relax atoms positions

minimize ${etol} ${ftol} ${maxiter} ${maxeval}
minimize 0 ${ftol} ${maxiter} ${maxeval}
minimize 0 1e-10 ${maxiter} ${maxeval}
minimize 0 1e-10 100 ${maxeval}
minimize 0 1e-10 100 1000
Neighbor list info ...
  update: every = 1 steps, delay = 0 steps, check = yes
  max neighbors/atom: 2000, page size: 100000
  master list distance cutoff = 6
  ghost atom cutoff = 6
  2 neighbor lists, perpetual/occasional/extra = 2 0 0
  (1) pair meam, perpetual
      attributes: full, newton on
      pair build: full/nsq
      stencil: none
      bin: none
  (2) pair meam, perpetual, half/full from (1)
      attributes: half, newton on
      pair build: halffull/newton
      stencil: none
      bin: none
Per MPI rank memory allocation (min/avg/max) = 9.883 | 9.886 | 9.889 Mbytes
   Step          Temp          PotEng         Press           Pxx            Pyy            Pzz            Pxy            Pxz            Pyz             Lx             Ly             Lz           Volume    
       100   0             -471.617       -555.81137      5156.8202      5152.0139     -11976.268     -0.011367527   -2.4633074e-05 -9.8797636e-05  6.0938479      7.9161485      12.755919      615.34302    
       101   0             -471.617       -555.8117       5157.7014      5151.1319     -11976.268      0.0041553271  -2.098713e-05  -8.5805215e-06  6.0938479      7.9161485      12.755919      615.34302    
       102   0             -471.617       -555.81175      5157.2947      5151.5385     -11976.268     -0.0029871074  -9.2896095e-07 -6.6538113e-07  6.0938479      7.9161485      12.755919      615.34302    
       103   0             -471.617       -555.81176      5157.5955      5151.2377     -11976.268      0.0023146021   2.6619019e-07 -7.7462337e-07  6.0938479      7.9161485      12.755919      615.34302    
       104   0             -471.617       -555.81176      5157.3941      5151.4391     -11976.268     -0.0012331962  -2.4447357e-07 -1.9448003e-07  6.0938479      7.9161485      12.755919      615.34302    
       105   0             -471.617       -555.81176      5157.4943      5151.3389     -11976.268      0.00053264158  3.208442e-08  -1.1835222e-07  6.0938479      7.9161485      12.755919      615.34302    
       106   0             -471.617       -555.81176      5157.4527      5151.3805     -11976.268     -0.0002014635  -8.1981062e-08 -5.655729e-08   6.0938479      7.9161485      12.755919      615.34302    
       107   0             -471.617       -555.81176      5157.4675      5151.3657     -11976.268      5.9765606e-05 -5.7504146e-09  4.8933258e-08  6.0938479      7.9161485      12.755919      615.34302    
       108   0             -471.617       -555.81176      5157.4608      5151.3724     -11976.268     -5.8362308e-05 -1.3014604e-08 -1.0674075e-09  6.0938479      7.9161485      12.755919      615.34302    
       109   0             -471.617       -555.81176      5157.4638      5151.3694     -11976.268     -4.7771512e-06  4.2880627e-10 -2.6066624e-08  6.0938479      7.9161485      12.755919      615.34302    
       110   0             -471.617       -555.81176      5157.4627      5151.3705     -11976.268     -2.4790613e-05  2.0260884e-10  1.2176018e-08  6.0938479      7.9161485      12.755919      615.34302    
       111   0             -471.617       -555.81176      5157.463       5151.3701     -11976.268     -1.8155518e-05  1.1350612e-09  5.8530661e-09  6.0938479      7.9161485      12.755919      615.34302    
       112   0             -471.617       -555.81176      5157.4629      5151.3703     -11976.268     -2.1114702e-05  1.8389832e-11 -7.2808583e-09  6.0938479      7.9161485      12.755919      615.34302    
       113   0             -471.617       -555.81176      5157.463       5151.3702     -11976.268     -1.9045383e-05  3.1131504e-11 -4.7829825e-10  6.0938479      7.9161485      12.755919      615.34302    
       114   0             -471.617       -555.81176      5157.4629      5151.3702     -11976.268     -2.0578882e-05  5.993238e-11   2.6002519e-09  6.0938479      7.9161485      12.755919      615.34302    
       115   0             -471.617       -555.81176      5157.463       5151.3702     -11976.268     -1.8983959e-05  3.7150036e-12 -1.2090316e-09  6.0938479      7.9161485      12.755919      615.34302    
       116   0             -471.617       -555.81176      5157.4629      5151.3702     -11976.268     -2.0969408e-05  3.060079e-12  -4.2308584e-10  6.0938479      7.9161485      12.755919      615.34302    
       117   0             -471.617       -555.81176      5157.463       5151.3702     -11976.268     -1.8468185e-05 -1.15811e-10    5.9593852e-10  6.0938479      7.9161485      12.755919      615.34302    
       118   0             -471.617       -555.81176      5157.4629      5151.3702     -11976.268     -2.1031268e-05  2.2032569e-11  1.9365444e-11  6.0938479      7.9161485      12.755919      615.34302    
       119   0             -471.617       -555.81176      5157.463       5151.3702     -11976.268     -1.8423793e-05 -6.8066996e-11 -2.2718659e-10  6.0938479      7.9161485      12.755919      615.34302    
       120   0             -471.617       -555.81176      5157.4629      5151.3702     -11976.268     -2.1262096e-05 -5.878965e-11   5.8037616e-11  6.0938479      7.9161485      12.755919      615.34302    
       121   0             -471.617       -555.81176      5157.463       5151.3702     -11976.268     -1.8979363e-05  3.9408397e-11  4.2201989e-11  6.0938479      7.9161485      12.755919      615.34302    
       122   0             -471.617       -555.81176      5157.463       5151.3702     -11976.268     -2.0277262e-05 -9.5031825e-12 -7.1594556e-11  6.0938479      7.9161485      12.755919      615.34302    
       123   0             -471.617       -555.81176      5157.463       5151.3702     -11976.268     -1.9754394e-05  4.6097662e-11  1.8730845e-11  6.0938479      7.9161485      12.755919      615.34302    
       124   0             -471.617       -555.81176      5157.463       5151.3702     -11976.268     -1.9907077e-05  7.3080557e-12 -4.0966666e-12  6.0938479      7.9161485      12.755919      615.34302    
       125   0             -471.617       -555.81176      5157.463       5151.3702     -11976.268     -1.9853249e-05  3.1955806e-12  4.2976607e-11  6.0938479      7.9161485      12.755919      615.34302    
       126   0             -471.617       -555.81176      5157.463       5151.3702     -11976.268     -1.9866928e-05  3.0426896e-11 -1.2098265e-10  6.0938479      7.9161485      12.755919      615.34302    
       127   0             -471.617       -555.81176      5157.463       5151.3702     -11976.268     -1.9864054e-05  3.3807662e-11  1.0589454e-11  6.0938479      7.9161485      12.755919      615.34302    
       128   0             -471.617       -555.81176      5157.463       5151.3702     -11976.268     -1.9864867e-05 -4.2999191e-11  4.7100374e-11  6.0938479      7.9161485      12.755919      615.34302    
       129   0             -471.617       -555.81176      5157.463       5151.3702     -11976.268     -1.9864496e-05  2.2066444e-11 -1.9173484e-12  6.0938479      7.9161485      12.755919      615.34302    
       130   0             -471.617       -555.81176      5157.463       5151.3702     -11976.268     -1.986466e-05  -9.1983038e-12  2.6309904e-11  6.0938479      7.9161485      12.755919      615.34302    
Loop time of 0.02549 on 4 procs for 30 steps with 72 atoms

61.3% CPU use with 4 MPI tasks x 1 OpenMP threads

Minimization stats:
  Stopping criterion = force tolerance
  Energy initial, next-to-last, final = 
     -471.617004869785  -471.617004962136  -471.617004962136
  Force two-norm initial, final = 0.0025082706 4.5946489e-11
  Force max component initial, final = 0.00043022789 9.47218e-12
  Final line search alpha, max atom move = 1 9.47218e-12
  Iterations, force evaluations = 30 60

MPI task timing breakdown:
Section |  min time  |  avg time  |  max time  |%varavg| %total
---------------------------------------------------------------
Pair    | 0.021074   | 0.022241   | 0.023442   |   0.6 | 87.25
Neigh   | 0          | 0          | 0          |   0.0 |  0.00
Comm    | 0.001291   | 0.002507   | 0.00365    |   1.7 |  9.84
Output  | 0.000313   | 0.000337   | 0.000389   |   0.0 |  1.32
Modify  | 0          | 0          | 0          |   0.0 |  0.00
Other   |            | 0.000405   |            |       |  1.59

Nlocal:             18 ave          20 max          16 min
Histogram: 1 0 1 0 0 0 0 1 0 1
Nghost:            624 ave         626 max         622 min
Histogram: 1 0 1 0 0 0 0 1 0 1
Neighs:            882 ave        1024 max         740 min
Histogram: 1 0 0 1 0 0 1 0 0 1
FullNghs:         1764 ave        1960 max        1568 min
Histogram: 1 0 1 0 0 0 0 1 0 1

Total # of neighbors = 7056
Ave neighs/atom = 98
Neighbor list builds = 0
Dangerous builds = 0

# Obtain new stress tensor

variable tmp equal pxx
variable pxx1 equal ${tmp}
variable pxx1 equal 5157.46296326006
variable tmp equal pyy
variable pyy1 equal ${tmp}
variable pyy1 equal 5151.37022067202
variable tmp equal pzz
variable pzz1 equal ${tmp}
variable pzz1 equal -11976.2684741468
variable tmp equal pxy
variable pxy1 equal ${tmp}
variable pxy1 equal -1.98646604231096e-05
variable tmp equal pxz
variable pxz1 equal ${tmp}
variable pxz1 equal -9.19830378119374e-12
variable tmp equal pyz
variable pyz1 equal ${tmp}
variable pyz1 equal 2.63099040144628e-11

# Compute elastic constant from pressure tensor

variable C1neg equal ${d1}
variable C1neg equal 661.560140125039
variable C2neg equal ${d2}
variable C2neg equal 52.2865179270411
variable C3neg equal ${d3}
variable C3neg equal 150.312702659903
variable C4neg equal ${d4}
variable C4neg equal -5.1445145837428e-10
variable C5neg equal ${d5}
variable C5neg equal 6.33853416629711e-09
variable C6neg equal ${d6}
variable C6neg equal 5.63152401401799e-05

# Reset box and simulation parameters

clear
  using 1 OpenMP thread(s) per MPI task
Loaded 1 plugins from C:\Program Files\LAMMPS 64-bit 23Jun2022\plugins
Loaded 0 plugins from C:\Program Files\LAMMPS 64-bit 23Jun2022-MPI\plugins
Loaded 1 plugins from C:\Program Files\LAMMPS 64-bit 22Dec2022-MSMPI\plugins
Loaded 1 plugins from C:\Program Files\LAMMPS 64-bit 28Mar2023-MPI\plugins
box tilt large

The 'box' command has been removed and will be ignored

read_restart restart.equil
Reading restart file ...
  restart file = 22 Dec 2022, LAMMPS = 22 Dec 2022
  restoring atom style atomic from restart
  triclinic box = (-0.012766073 -0.016994707 0.065432046) to (6.0810879 7.8991538 12.821351) with tilt (-4.5703905 0 0)
WARNING: Triclinic box skew is large. LAMMPS will run inefficiently. (src/domain.cpp:220)
  1 by 2 by 2 MPI processor grid
  pair style meam stores no restart info
  72 atoms
  read_restart CPU = 0.000 seconds
include potential.mod
# NOTE: This script can be modified for different pair styles
# See in.elastic for more info.

# Choose potential
#-----------------------
#pair_style	sw
#pair_coeff * * Si.sw Si
#-----------------------
#pair_style morse	2.83994742	# D0[eV] a[1/A] r0[A] rc[A], 1NN for BCC
#pair_coeff 1 1	2.1173	1.0202	2.4595	2.6497	#	Fe-Fe
#-----------------------
#pair_style smatb # R0(A)   p       q     A(eV)   xi(eV)  Rcs(A)   Rc(A), 4NN: Rcs=4NN, Rc=(4NN+5NN)/2
#pair_coeff 1 1	2.4802	7.0149	2.3779	0.3144	3.0551	4.033	4.176	#	Co	Co
#-----------------------
#pair_style eam/alloy
#pair_coeff * * AlCrFeCoNi_Zhou04.eam.alloy Fe
#-----------------------
pair_style meam
pair_coeff * * ./../../library.meam B Ti ./../../BTi.meam B Ti
#-----------------------

# Setup neighbor style
neighbor 1.0 nsq
neigh_modify once no every 1 delay 0 check yes

# Setup minimization style
min_style	     cg
min_modify	     dmax ${dmax} line quadratic
min_modify	     dmax 0.01 line quadratic

# Setup output
thermo		1
thermo_style custom step temp pe press pxx pyy pzz pxy pxz pyz lx ly lz vol
thermo_modify norm no

# Positive deformation

variable delta equal ${up}*${len0}
variable delta equal 1e-06*${len0}
variable delta equal 1e-06*6.09385395039607
variable deltaxy equal ${up}*xy
variable deltaxy equal 1e-06*xy
variable deltaxz equal ${up}*xz
variable deltaxz equal 1e-06*xz
variable deltayz equal ${up}*yz
variable deltayz equal 1e-06*yz
if "${dir} == 1" then    "change_box all x delta 0 ${delta} xy delta ${deltaxy} xz delta ${deltaxz} remap units box"
change_box all x delta 0 ${delta} xy delta ${deltaxy} xz delta ${deltaxz} remap units box
change_box all x delta 0 6.09385395039607e-06 xy delta ${deltaxy} xz delta ${deltaxz} remap units box
change_box all x delta 0 6.09385395039607e-06 xy delta -4.57039046274543e-06 xz delta ${deltaxz} remap units box
change_box all x delta 0 6.09385395039607e-06 xy delta -4.57039046274543e-06 xz delta 0 remap units box
Changing box ...
WARNING: Triclinic box skew is large. LAMMPS will run inefficiently. (src/domain.cpp:220)
  triclinic box = (-0.012766073 -0.016994707 0.065432046) to (6.081094 7.8991538 12.821351) with tilt (-4.5703905 0 0)
WARNING: Triclinic box skew is large. LAMMPS will run inefficiently. (src/domain.cpp:220)
  triclinic box = (-0.012766073 -0.016994707 0.065432046) to (6.081094 7.8991538 12.821351) with tilt (-4.570395 0 0)
WARNING: Triclinic box skew is large. LAMMPS will run inefficiently. (src/domain.cpp:220)
  triclinic box = (-0.012766073 -0.016994707 0.065432046) to (6.081094 7.8991538 12.821351) with tilt (-4.570395 0 0)
if "${dir} == 2" then    "change_box all y delta 0 ${delta} yz delta ${deltayz} remap units box"
if "${dir} == 3" then    "change_box all z delta 0 ${delta} remap units box"
if "${dir} == 4" then    "change_box all yz delta ${delta} remap units box"
if "${dir} == 5" then    "change_box all xz delta ${delta} remap units box"
if "${dir} == 6" then    "change_box all xy delta ${delta} remap units box"

# Relax atoms positions

minimize ${etol} ${ftol} ${maxiter} ${maxeval}
minimize 0 ${ftol} ${maxiter} ${maxeval}
minimize 0 1e-10 ${maxiter} ${maxeval}
minimize 0 1e-10 100 ${maxeval}
minimize 0 1e-10 100 1000
Neighbor list info ...
  update: every = 1 steps, delay = 0 steps, check = yes
  max neighbors/atom: 2000, page size: 100000
  master list distance cutoff = 6
  ghost atom cutoff = 6
  2 neighbor lists, perpetual/occasional/extra = 2 0 0
  (1) pair meam, perpetual
      attributes: full, newton on
      pair build: full/nsq
      stencil: none
      bin: none
  (2) pair meam, perpetual, half/full from (1)
      attributes: half, newton on
      pair build: halffull/newton
      stencil: none
      bin: none
Per MPI rank memory allocation (min/avg/max) = 9.883 | 9.886 | 9.889 Mbytes
   Step          Temp          PotEng         Press           Pxx            Pyy            Pzz            Pxy            Pxz            Pyz             Lx             Ly             Lz           Volume    
       100   0             -471.61701     -561.5724       5143.4967      5151.0606     -11979.274     -0.011367153   -2.4633831e-05 -0.00010411417  6.09386        7.9161485      12.755919      615.34425    
       101   0             -471.61701     -561.57275      5144.5011      5150.0553     -11979.275      0.0041020066  -2.0959261e-05 -9.634648e-06   6.09386        7.9161485      12.755919      615.34425    
       102   0             -471.61701     -561.57279      5144.0452      5150.5111     -11979.275     -0.0028976537  -1.1002797e-06  4.3163124e-07  6.09386        7.9161485      12.755919      615.34425    
       103   0             -471.61701     -561.57281      5144.3712      5150.1851     -11979.275      0.0021258755   3.4400823e-07 -8.3277493e-07  6.09386        7.9161485      12.755919      615.34425    
       104   0             -471.61701     -561.57281      5144.166       5150.3903     -11979.275     -0.0010334729  -2.6608626e-07 -4.6056763e-07  6.09386        7.9161485      12.755919      615.34425    
       105   0             -471.61701     -561.57281      5144.2602      5150.2961     -11979.275      0.00041751503  3.8002381e-08 -2.6134041e-08  6.09386        7.9161485      12.755919      615.34425    
       106   0             -471.61701     -561.57281      5144.2227      5150.3336     -11979.275     -0.00016026136 -8.2805942e-08  2.0424265e-08  6.09386        7.9161485      12.755919      615.34425    
       107   0             -471.61701     -561.57281      5144.2358      5150.3205     -11979.275      4.1238184e-05 -5.6433931e-09 -3.4213195e-08  6.09386        7.9161485      12.755919      615.34425    
       108   0             -471.61701     -561.57281      5144.2299      5150.3264     -11979.275     -4.924739e-05  -1.3015511e-08 -2.9072634e-09  6.09386        7.9161485      12.755919      615.34425    
       109   0             -471.61701     -561.57281      5144.2325      5150.3237     -11979.275     -8.4265135e-06  3.8992103e-10  2.7131733e-08  6.09386        7.9161485      12.755919      615.34425    
       110   0             -471.61701     -561.57281      5144.2316      5150.3247     -11979.275     -2.3513953e-05  2.196771e-10  -1.1700768e-08  6.09386        7.9161485      12.755919      615.34425    
       111   0             -471.61701     -561.57281      5144.2319      5150.3244     -11979.275     -1.8706585e-05  1.1925386e-09 -4.694434e-09   6.09386        7.9161485      12.755919      615.34425    
       112   0             -471.61701     -561.57281      5144.2318      5150.3245     -11979.275     -2.0609216e-05 -5.5411031e-11  6.5677022e-09  6.09386        7.9161485      12.755919      615.34425    
       113   0             -471.61701     -561.57281      5144.2318      5150.3245     -11979.275     -1.9417564e-05  5.9957103e-11  2.0040654e-10  6.09386        7.9161485      12.755919      615.34425    
       114   0             -471.61701     -561.57281      5144.2318      5150.3245     -11979.275     -2.0232508e-05 -5.5803985e-11 -2.5506283e-09  6.09386        7.9161485      12.755919      615.34425    
       115   0             -471.61701     -561.57281      5144.2318      5150.3245     -11979.275     -1.9419607e-05 -1.4735775e-11  1.1545418e-09  6.09386        7.9161485      12.755919      615.34425    
       116   0             -471.61701     -561.57281      5144.2318      5150.3245     -11979.275     -2.0420108e-05 -2.9715453e-11  4.5904029e-10  6.09386        7.9161485      12.755919      615.34425    
       117   0             -471.61701     -561.57281      5144.2318      5150.3245     -11979.275     -1.9165682e-05  3.1341469e-11 -5.6625801e-10  6.09386        7.9161485      12.755919      615.34425    
       118   0             -471.61701     -561.57281      5144.2318      5150.3245     -11979.275     -2.0443876e-05  5.0668483e-11 -1.1519876e-10  6.09386        7.9161485      12.755919      615.34425    
       119   0             -471.61701     -561.57281      5144.2318      5150.3245     -11979.275     -1.9167124e-05  1.4286362e-11  2.1165767e-10  6.09386        7.9161485      12.755919      615.34425    
       120   0             -471.61701     -561.57281      5144.2318      5150.3245     -11979.275     -2.0491886e-05 -9.7244824e-12 -7.8252047e-12  6.09386        7.9161485      12.755919      615.34425    
       121   0             -471.61701     -561.57281      5144.2318      5150.3245     -11979.275     -1.9522247e-05  9.8464337e-13 -9.9665782e-11  6.09386        7.9161485      12.755919      615.34425    
       122   0             -471.61701     -561.57281      5144.2318      5150.3245     -11979.275     -2.0005072e-05  3.0675254e-11  9.3082673e-11  6.09386        7.9161485      12.755919      615.34425    
       123   0             -471.61701     -561.57281      5144.2318      5150.3245     -11979.275     -1.9829744e-05  3.5478778e-12  5.7373543e-11  6.09386        7.9161485      12.755919      615.34425    
       124   0             -471.61701     -561.57281      5144.2318      5150.3245     -11979.275     -1.987783e-05  -1.1154022e-11 -3.3425932e-11  6.09386        7.9161485      12.755919      615.34425    
       125   0             -471.61701     -561.57281      5144.2318      5150.3245     -11979.275     -1.9861262e-05  2.4390249e-11 -1.5277781e-11  6.09386        7.9161485      12.755919      615.34425    
       126   0             -471.61701     -561.57281      5144.2318      5150.3245     -11979.275     -1.9865423e-05  1.1065946e-12  8.4288634e-11  6.09386        7.9161485      12.755919      615.34425    
       127   0             -471.61701     -561.57281      5144.2318      5150.3245     -11979.275     -1.9864577e-05 -3.5018073e-11 -4.1025301e-11  6.09386        7.9161485      12.755919      615.34425    
       128   0             -471.61701     -561.57281      5144.2318      5150.3245     -11979.275     -1.9864732e-05 -1.8473355e-11  6.6174358e-11  6.09386        7.9161485      12.755919      615.34425    
       129   0             -471.61701     -561.57281      5144.2318      5150.3245     -11979.275     -1.9864817e-05 -1.2271908e-11 -2.0318432e-11  6.09386        7.9161485      12.755919      615.34425    
       130   0             -471.61701     -561.57281      5144.2318      5150.3245     -11979.275     -1.9864823e-05 -1.343722e-11   7.0743012e-11  6.09386        7.9161485      12.755919      615.34425    
Loop time of 0.0272175 on 4 procs for 30 steps with 72 atoms

57.4% CPU use with 4 MPI tasks x 1 OpenMP threads

Minimization stats:
  Stopping criterion = force tolerance
  Energy initial, next-to-last, final = 
       -471.6170088258   -471.61700891868  -471.617008918681
  Force two-norm initial, final = 0.0025199124 4.5937884e-11
  Force max component initial, final = 0.00043022274 9.4732555e-12
  Final line search alpha, max atom move = 1 9.4732555e-12
  Iterations, force evaluations = 30 60

MPI task timing breakdown:
Section |  min time  |  avg time  |  max time  |%varavg| %total
---------------------------------------------------------------
Pair    | 0.022061   | 0.023645   | 0.025331   |   0.8 | 86.88
Neigh   | 0          | 0          | 0          |   0.0 |  0.00
Comm    | 0.001196   | 0.0028838  | 0.004469   |   2.2 | 10.60
Output  | 0.000308   | 0.00033325 | 0.000344   |   0.0 |  1.22
Modify  | 0          | 0          | 0          |   0.0 |  0.00
Other   |            | 0.000355   |            |       |  1.30

Nlocal:             18 ave          20 max          16 min
Histogram: 1 0 1 0 0 0 0 1 0 1
Nghost:            624 ave         626 max         622 min
Histogram: 1 0 1 0 0 0 0 1 0 1
Neighs:            882 ave        1024 max         740 min
Histogram: 1 0 0 1 0 0 1 0 0 1
FullNghs:         1764 ave        1960 max        1568 min
Histogram: 1 0 1 0 0 0 0 1 0 1

Total # of neighbors = 7056
Ave neighs/atom = 98
Neighbor list builds = 0
Dangerous builds = 0

# Obtain new stress tensor

variable tmp equal pe
variable e1 equal ${tmp}
variable e1 equal -471.617008918681
variable tmp equal press
variable p1 equal ${tmp}
variable p1 equal -561.572808444364
variable tmp equal pxx
variable pxx1 equal ${tmp}
variable pxx1 equal 5144.2318007543
variable tmp equal pyy
variable pyy1 equal ${tmp}
variable pyy1 equal 5150.32448737514
variable tmp equal pzz
variable pzz1 equal ${tmp}
variable pzz1 equal -11979.2747134625
variable tmp equal pxy
variable pxy1 equal ${tmp}
variable pxy1 equal -1.98648234038938e-05
variable tmp equal pxz
variable pxz1 equal ${tmp}
variable pxz1 equal -1.34372202402154e-11
variable tmp equal pyz
variable pyz1 equal ${tmp}
variable pyz1 equal 7.07430124411338e-11

# Compute elastic constant from pressure tensor

variable C1pos equal ${d1}
variable C1pos equal 661.556110450965
variable C2pos equal ${d2}
variable C2pos equal 52.2868117609505
variable C3pos equal ${d3}
variable C3pos equal 150.311228910141
variable C4pos equal ${d4}
variable C4pos equal -3.92885938429282e-09
variable C5pos equal ${d5}
variable C5pos equal -5.91464252039494e-09
variable C6pos equal ${d6}
variable C6pos equal -5.62989420617599e-05

# Combine positive and negative

variable C1${dir} equal 0.5*(${C1neg}+${C1pos})
variable C11 equal 0.5*(${C1neg}+${C1pos})
variable C11 equal 0.5*(661.560140125039+${C1pos})
variable C11 equal 0.5*(661.560140125039+661.556110450965)
variable C2${dir} equal 0.5*(${C2neg}+${C2pos})
variable C21 equal 0.5*(${C2neg}+${C2pos})
variable C21 equal 0.5*(52.2865179270411+${C2pos})
variable C21 equal 0.5*(52.2865179270411+52.2868117609505)
variable C3${dir} equal 0.5*(${C3neg}+${C3pos})
variable C31 equal 0.5*(${C3neg}+${C3pos})
variable C31 equal 0.5*(150.312702659903+${C3pos})
variable C31 equal 0.5*(150.312702659903+150.311228910141)
variable C4${dir} equal 0.5*(${C4neg}+${C4pos})
variable C41 equal 0.5*(${C4neg}+${C4pos})
variable C41 equal 0.5*(-5.1445145837428e-10+${C4pos})
variable C41 equal 0.5*(-5.1445145837428e-10+-3.92885938429282e-09)
variable C5${dir} equal 0.5*(${C5neg}+${C5pos})
variable C51 equal 0.5*(${C5neg}+${C5pos})
variable C51 equal 0.5*(6.33853416629711e-09+${C5pos})
variable C51 equal 0.5*(6.33853416629711e-09+-5.91464252039494e-09)
variable C6${dir} equal 0.5*(${C6neg}+${C6pos})
variable C61 equal 0.5*(${C6neg}+${C6pos})
variable C61 equal 0.5*(5.63152401401799e-05+${C6pos})
variable C61 equal 0.5*(5.63152401401799e-05+-5.62989420617599e-05)

# Delete dir to make sure it is not reused

variable dir delete

# uyy Perturbation

variable dir equal 2
include displace.mod
# NOTE: This script should not need to be
# modified. See in.elastic for more info.
#
# Find which reference length to use

if "${dir} == 1" then    "variable len0 equal ${lx0}"
if "${dir} == 2" then    "variable len0 equal ${ly0}"
variable len0 equal ${ly0}
variable len0 equal 7.9161484920018
if "${dir} == 3" then    "variable len0 equal ${lz0}"
if "${dir} == 4" then    "variable len0 equal ${lz0}"
if "${dir} == 5" then    "variable len0 equal ${lz0}"
if "${dir} == 6" then    "variable len0 equal ${ly0}"

# Reset box and simulation parameters

clear
  using 1 OpenMP thread(s) per MPI task
Loaded 1 plugins from C:\Program Files\LAMMPS 64-bit 23Jun2022\plugins
Loaded 0 plugins from C:\Program Files\LAMMPS 64-bit 23Jun2022-MPI\plugins
Loaded 1 plugins from C:\Program Files\LAMMPS 64-bit 22Dec2022-MSMPI\plugins
Loaded 1 plugins from C:\Program Files\LAMMPS 64-bit 28Mar2023-MPI\plugins
box tilt large

The 'box' command has been removed and will be ignored

read_restart restart.equil
Reading restart file ...
  restart file = 22 Dec 2022, LAMMPS = 22 Dec 2022
  restoring atom style atomic from restart
  triclinic box = (-0.012766073 -0.016994707 0.065432046) to (6.0810879 7.8991538 12.821351) with tilt (-4.5703905 0 0)
WARNING: Triclinic box skew is large. LAMMPS will run inefficiently. (src/domain.cpp:220)
  1 by 2 by 2 MPI processor grid
  pair style meam stores no restart info
  72 atoms
  read_restart CPU = 0.000 seconds
include potential.mod
# NOTE: This script can be modified for different pair styles
# See in.elastic for more info.

# Choose potential
#-----------------------
#pair_style	sw
#pair_coeff * * Si.sw Si
#-----------------------
#pair_style morse	2.83994742	# D0[eV] a[1/A] r0[A] rc[A], 1NN for BCC
#pair_coeff 1 1	2.1173	1.0202	2.4595	2.6497	#	Fe-Fe
#-----------------------
#pair_style smatb # R0(A)   p       q     A(eV)   xi(eV)  Rcs(A)   Rc(A), 4NN: Rcs=4NN, Rc=(4NN+5NN)/2
#pair_coeff 1 1	2.4802	7.0149	2.3779	0.3144	3.0551	4.033	4.176	#	Co	Co
#-----------------------
#pair_style eam/alloy
#pair_coeff * * AlCrFeCoNi_Zhou04.eam.alloy Fe
#-----------------------
pair_style meam
pair_coeff * * ./../../library.meam B Ti ./../../BTi.meam B Ti
#-----------------------

# Setup neighbor style
neighbor 1.0 nsq
neigh_modify once no every 1 delay 0 check yes

# Setup minimization style
min_style	     cg
min_modify	     dmax ${dmax} line quadratic
min_modify	     dmax 0.01 line quadratic

# Setup output
thermo		1
thermo_style custom step temp pe press pxx pyy pzz pxy pxz pyz lx ly lz vol
thermo_modify norm no

# Negative deformation

variable delta equal -${up}*${len0}
variable delta equal -1e-06*${len0}
variable delta equal -1e-06*7.9161484920018
variable deltaxy equal -${up}*xy
variable deltaxy equal -1e-06*xy
variable deltaxz equal -${up}*xz
variable deltaxz equal -1e-06*xz
variable deltayz equal -${up}*yz
variable deltayz equal -1e-06*yz
if "${dir} == 1" then    "change_box all x delta 0 ${delta} xy delta ${deltaxy} xz delta ${deltaxz} remap units box"
if "${dir} == 2" then    "change_box all y delta 0 ${delta} yz delta ${deltayz} remap units box"
change_box all y delta 0 ${delta} yz delta ${deltayz} remap units box
change_box all y delta 0 -7.9161484920018e-06 yz delta ${deltayz} remap units box
change_box all y delta 0 -7.9161484920018e-06 yz delta -0 remap units box
Changing box ...
WARNING: Triclinic box skew is large. LAMMPS will run inefficiently. (src/domain.cpp:220)
  triclinic box = (-0.012766073 -0.016994707 0.065432046) to (6.0810879 7.8991459 12.821351) with tilt (-4.5703905 0 0)
WARNING: Triclinic box skew is large. LAMMPS will run inefficiently. (src/domain.cpp:220)
  triclinic box = (-0.012766073 -0.016994707 0.065432046) to (6.0810879 7.8991459 12.821351) with tilt (-4.5703905 0 0)
if "${dir} == 3" then    "change_box all z delta 0 ${delta} remap units box"
if "${dir} == 4" then    "change_box all yz delta ${delta} remap units box"
if "${dir} == 5" then    "change_box all xz delta ${delta} remap units box"
if "${dir} == 6" then    "change_box all xy delta ${delta} remap units box"

# Relax atoms positions

minimize ${etol} ${ftol} ${maxiter} ${maxeval}
minimize 0 ${ftol} ${maxiter} ${maxeval}
minimize 0 1e-10 ${maxiter} ${maxeval}
minimize 0 1e-10 100 ${maxeval}
minimize 0 1e-10 100 1000
Neighbor list info ...
  update: every = 1 steps, delay = 0 steps, check = yes
  max neighbors/atom: 2000, page size: 100000
  master list distance cutoff = 6
  ghost atom cutoff = 6
  2 neighbor lists, perpetual/occasional/extra = 2 0 0
  (1) pair meam, perpetual
      attributes: full, newton on
      pair build: full/nsq
      stencil: none
      bin: none
  (2) pair meam, perpetual, half/full from (1)
      attributes: half, newton on
      pair build: halffull/newton
      stencil: none
      bin: none
Per MPI rank memory allocation (min/avg/max) = 9.883 | 9.886 | 9.889 Mbytes
   Step          Temp          PotEng         Press           Pxx            Pyy            Pzz            Pxy            Pxz            Pyz             Lx             Ly             Lz           Volume    
       100   0             -471.617       -555.81136      5150.6351      5158.1991     -11976.268     -0.01136731    -2.4633881e-05 -0.00010411396  6.093854       7.9161406      12.755919      615.34302    
       101   0             -471.617       -555.81171      5151.6395      5157.1938     -11976.268      0.0041020642  -2.0959313e-05 -9.6346775e-06  6.093854       7.9161406      12.755919      615.34302    
       102   0             -471.617       -555.81175      5151.1836      5157.6496     -11976.268     -0.0028977045  -1.1003027e-06  4.315936e-07   6.093854       7.9161406      12.755919      615.34302    
       103   0             -471.617       -555.81176      5151.5096      5157.3236     -11976.268      0.0021259134   3.4403797e-07 -8.3267021e-07  6.093854       7.9161406      12.755919      615.34302    
       104   0             -471.617       -555.81176      5151.3044      5157.5287     -11976.268     -0.0010334919  -2.6616494e-07 -4.6060082e-07  6.093854       7.9161406      12.755919      615.34302    
       105   0             -471.617       -555.81176      5151.3986      5157.4346     -11976.268      0.00041752408  3.8121262e-08 -2.6169962e-08  6.093854       7.9161406      12.755919      615.34302    
       106   0             -471.617       -555.81176      5151.3611      5157.4721     -11976.268     -0.00016026356 -8.2818205e-08  2.0396528e-08  6.093854       7.9161406      12.755919      615.34302    
       107   0             -471.617       -555.81176      5151.3742      5157.459      -11976.268      4.1238898e-05 -5.662596e-09  -3.4162006e-08  6.093854       7.9161406      12.755919      615.34302    
       108   0             -471.617       -555.81176      5151.3683      5157.4649     -11976.268     -4.924745e-05  -1.300969e-08  -2.9240489e-09  6.093854       7.9161406      12.755919      615.34302    
       109   0             -471.617       -555.81176      5151.371       5157.4622     -11976.268     -8.4265528e-06  4.5422638e-10  2.7132015e-08  6.093854       7.9161406      12.755919      615.34302    
       110   0             -471.617       -555.81176      5151.37        5157.4632     -11976.268     -2.3514099e-05  1.4554007e-10 -1.1798167e-08  6.093854       7.9161406      12.755919      615.34302    
       111   0             -471.617       -555.81176      5151.3703      5157.4629     -11976.268     -1.8706396e-05  1.1971322e-09 -4.6792582e-09  6.093854       7.9161406      12.755919      615.34302    
       112   0             -471.617       -555.81176      5151.3702      5157.463      -11976.268     -2.0609561e-05  3.335599e-11   6.5747118e-09  6.093854       7.9161406      12.755919      615.34302    
       113   0             -471.617       -555.81176      5151.3703      5157.4629     -11976.268     -1.9417438e-05  7.6806853e-12  1.303413e-10   6.093854       7.9161406      12.755919      615.34302    
       114   0             -471.617       -555.81176      5151.3702      5157.463      -11976.268     -2.0232867e-05 -7.5203417e-13 -2.5433457e-09  6.093854       7.9161406      12.755919      615.34302    
       115   0             -471.617       -555.81176      5151.3703      5157.4629     -11976.268     -1.9419361e-05 -1.8360474e-11  1.1801245e-09  6.093854       7.9161406      12.755919      615.34302    
       116   0             -471.617       -555.81176      5151.3702      5157.463      -11976.268     -2.0420468e-05  1.4225415e-11  5.5886301e-10  6.093854       7.9161406      12.755919      615.34302    
       117   0             -471.617       -555.81176      5151.3703      5157.4629     -11976.268     -1.9165424e-05  1.0040672e-11 -4.9252592e-10  6.093854       7.9161406      12.755919      615.34302    
       118   0             -471.617       -555.81176      5151.3702      5157.463      -11976.268     -2.0444148e-05  1.638215e-11  -6.8252182e-11  6.093854       7.9161406      12.755919      615.34302    
       119   0             -471.617       -555.81176      5151.3703      5157.4629     -11976.268     -1.9166707e-05 -1.4997774e-11  2.3620422e-10  6.093854       7.9161406      12.755919      615.34302    
       120   0             -471.617       -555.81176      5151.3702      5157.463      -11976.268     -2.0492189e-05 -2.3884424e-11 -6.5469881e-12  6.093854       7.9161406      12.755919      615.34302    
       121   0             -471.617       -555.81176      5151.3703      5157.4629     -11976.268     -1.9522121e-05  3.2874959e-11 -5.2834352e-11  6.093854       7.9161406      12.755919      615.34302    
       122   0             -471.617       -555.81176      5151.3702      5157.463      -11976.268     -2.000516e-05   8.4029091e-11  6.2536271e-11  6.093854       7.9161406      12.755919      615.34302    
       123   0             -471.617       -555.81176      5151.3702      5157.4629     -11976.268     -1.9829723e-05 -9.1350697e-12  1.0573646e-11  6.093854       7.9161406      12.755919      615.34302    
       124   0             -471.617       -555.81176      5151.3702      5157.463      -11976.268     -1.9877989e-05  6.1459032e-11  6.3640609e-12  6.093854       7.9161406      12.755919      615.34302    
       125   0             -471.617       -555.81176      5151.3702      5157.463      -11976.268     -1.986114e-05   2.2861387e-11 -1.3760193e-11  6.093854       7.9161406      12.755919      615.34302    
       126   0             -471.617       -555.81176      5151.3702      5157.463      -11976.268     -1.9865457e-05  2.8486964e-11  3.8821223e-11  6.093854       7.9161406      12.755919      615.34302    
       127   0             -471.617       -555.81176      5151.3702      5157.463      -11976.268     -1.9864699e-05 -6.3369606e-12 -1.2581328e-11  6.093854       7.9161406      12.755919      615.34302    
       128   0             -471.617       -555.81176      5151.3702      5157.463      -11976.268     -1.9864881e-05  5.6978444e-12  1.3042034e-11  6.093854       7.9161406      12.755919      615.34302    
       129   0             -471.617       -555.81176      5151.3702      5157.463      -11976.268     -1.9864781e-05  1.4848723e-11  3.6461236e-11  6.093854       7.9161406      12.755919      615.34302    
       130   0             -471.617       -555.81176      5151.3702      5157.463      -11976.268     -1.986488e-05  -3.4516787e-11 -9.7764442e-12  6.093854       7.9161406      12.755919      615.34302    
Loop time of 0.024855 on 4 procs for 30 steps with 72 atoms

62.9% CPU use with 4 MPI tasks x 1 OpenMP threads

Minimization stats:
  Stopping criterion = force tolerance
  Energy initial, next-to-last, final = 
     -471.617004869255  -471.617004962136  -471.617004962136
  Force two-norm initial, final = 0.0025199268 4.5946828e-11
  Force max component initial, final = 0.00043022543 9.469231e-12
  Final line search alpha, max atom move = 1 9.469231e-12
  Iterations, force evaluations = 30 60

MPI task timing breakdown:
Section |  min time  |  avg time  |  max time  |%varavg| %total
---------------------------------------------------------------
Pair    | 0.020824   | 0.021914   | 0.022977   |   0.5 | 88.17
Neigh   | 0          | 0          | 0          |   0.0 |  0.00
Comm    | 0.00123    | 0.0022792  | 0.003377   |   1.6 |  9.17
Output  | 0.000296   | 0.0003155  | 0.000364   |   0.0 |  1.27
Modify  | 0          | 0          | 0          |   0.0 |  0.00
Other   |            | 0.0003462  |            |       |  1.39

Nlocal:             18 ave          20 max          16 min
Histogram: 1 0 1 0 0 0 0 1 0 1
Nghost:            624 ave         626 max         622 min
Histogram: 1 0 1 0 0 0 0 1 0 1
Neighs:            882 ave        1024 max         740 min
Histogram: 1 0 0 1 0 0 1 0 0 1
FullNghs:         1764 ave        1960 max        1568 min
Histogram: 1 0 1 0 0 0 0 1 0 1

Total # of neighbors = 7056
Ave neighs/atom = 98
Neighbor list builds = 0
Dangerous builds = 0

# Obtain new stress tensor

variable tmp equal pxx
variable pxx1 equal ${tmp}
variable pxx1 equal 5151.37023303695
variable tmp equal pyy
variable pyy1 equal ${tmp}
variable pyy1 equal 5157.46295089549
variable tmp equal pzz
variable pzz1 equal ${tmp}
variable pzz1 equal -11976.2684741467
variable tmp equal pxy
variable pxy1 equal ${tmp}
variable pxy1 equal -1.98648798996514e-05
variable tmp equal pxz
variable pxz1 equal ${tmp}
variable pxz1 equal -3.45167873782875e-11
variable tmp equal pyz
variable pyz1 equal ${tmp}
variable pyz1 equal -9.77644416125404e-12

# Compute elastic constant from pressure tensor

variable C1neg equal ${d1}
variable C1neg equal 52.2871178140122
variable C2neg equal ${d2}
variable C2neg equal 661.559540274084
variable C3neg equal ${d3}
variable C3neg equal 150.312702669908
variable C4neg equal ${d4}
variable C4neg equal -4.12308627594596e-09
variable C5neg equal ${d5}
variable C5neg equal 3.80668580658773e-09
variable C6neg equal ${d6}
variable C6neg equal 5.6293292486e-05

# Reset box and simulation parameters

clear
  using 1 OpenMP thread(s) per MPI task
Loaded 1 plugins from C:\Program Files\LAMMPS 64-bit 23Jun2022\plugins
Loaded 0 plugins from C:\Program Files\LAMMPS 64-bit 23Jun2022-MPI\plugins
Loaded 1 plugins from C:\Program Files\LAMMPS 64-bit 22Dec2022-MSMPI\plugins
Loaded 1 plugins from C:\Program Files\LAMMPS 64-bit 28Mar2023-MPI\plugins
box tilt large

The 'box' command has been removed and will be ignored

read_restart restart.equil
Reading restart file ...
  restart file = 22 Dec 2022, LAMMPS = 22 Dec 2022
  restoring atom style atomic from restart
  triclinic box = (-0.012766073 -0.016994707 0.065432046) to (6.0810879 7.8991538 12.821351) with tilt (-4.5703905 0 0)
WARNING: Triclinic box skew is large. LAMMPS will run inefficiently. (src/domain.cpp:220)
  1 by 2 by 2 MPI processor grid
  pair style meam stores no restart info
  72 atoms
  read_restart CPU = 0.000 seconds
include potential.mod
# NOTE: This script can be modified for different pair styles
# See in.elastic for more info.

# Choose potential
#-----------------------
#pair_style	sw
#pair_coeff * * Si.sw Si
#-----------------------
#pair_style morse	2.83994742	# D0[eV] a[1/A] r0[A] rc[A], 1NN for BCC
#pair_coeff 1 1	2.1173	1.0202	2.4595	2.6497	#	Fe-Fe
#-----------------------
#pair_style smatb # R0(A)   p       q     A(eV)   xi(eV)  Rcs(A)   Rc(A), 4NN: Rcs=4NN, Rc=(4NN+5NN)/2
#pair_coeff 1 1	2.4802	7.0149	2.3779	0.3144	3.0551	4.033	4.176	#	Co	Co
#-----------------------
#pair_style eam/alloy
#pair_coeff * * AlCrFeCoNi_Zhou04.eam.alloy Fe
#-----------------------
pair_style meam
pair_coeff * * ./../../library.meam B Ti ./../../BTi.meam B Ti
#-----------------------

# Setup neighbor style
neighbor 1.0 nsq
neigh_modify once no every 1 delay 0 check yes

# Setup minimization style
min_style	     cg
min_modify	     dmax ${dmax} line quadratic
min_modify	     dmax 0.01 line quadratic

# Setup output
thermo		1
thermo_style custom step temp pe press pxx pyy pzz pxy pxz pyz lx ly lz vol
thermo_modify norm no

# Positive deformation

variable delta equal ${up}*${len0}
variable delta equal 1e-06*${len0}
variable delta equal 1e-06*7.9161484920018
variable deltaxy equal ${up}*xy
variable deltaxy equal 1e-06*xy
variable deltaxz equal ${up}*xz
variable deltaxz equal 1e-06*xz
variable deltayz equal ${up}*yz
variable deltayz equal 1e-06*yz
if "${dir} == 1" then    "change_box all x delta 0 ${delta} xy delta ${deltaxy} xz delta ${deltaxz} remap units box"
if "${dir} == 2" then    "change_box all y delta 0 ${delta} yz delta ${deltayz} remap units box"
change_box all y delta 0 ${delta} yz delta ${deltayz} remap units box
change_box all y delta 0 7.9161484920018e-06 yz delta ${deltayz} remap units box
change_box all y delta 0 7.9161484920018e-06 yz delta 0 remap units box
Changing box ...
WARNING: Triclinic box skew is large. LAMMPS will run inefficiently. (src/domain.cpp:220)
  triclinic box = (-0.012766073 -0.016994707 0.065432046) to (6.0810879 7.8991617 12.821351) with tilt (-4.5703905 0 0)
WARNING: Triclinic box skew is large. LAMMPS will run inefficiently. (src/domain.cpp:220)
  triclinic box = (-0.012766073 -0.016994707 0.065432046) to (6.0810879 7.8991617 12.821351) with tilt (-4.5703905 0 0)
if "${dir} == 3" then    "change_box all z delta 0 ${delta} remap units box"
if "${dir} == 4" then    "change_box all yz delta ${delta} remap units box"
[...]
change_box all xy delta ${delta} remap units box
change_box all xy delta 7.9161484920018e-06 remap units box
Changing box ...
WARNING: Triclinic box skew is large. LAMMPS will run inefficiently. (src/domain.cpp:220)
  triclinic box = (-0.012766073 -0.016994707 0.065432046) to (6.0810879 7.8991538 12.821351) with tilt (-4.5703825 0 0)

# Relax atoms positions

minimize ${etol} ${ftol} ${maxiter} ${maxeval}
minimize 0 ${ftol} ${maxiter} ${maxeval}
minimize 0 1e-10 ${maxiter} ${maxeval}
minimize 0 1e-10 100 ${maxeval}
minimize 0 1e-10 100 1000
Neighbor list info ...
  update: every = 1 steps, delay = 0 steps, check = yes
  max neighbors/atom: 2000, page size: 100000
  master list distance cutoff = 6
  ghost atom cutoff = 6
  2 neighbor lists, perpetual/occasional/extra = 2 0 0
  (1) pair meam, perpetual
      attributes: full, newton on
      pair build: full/nsq
      stencil: none
      bin: none
  (2) pair meam, perpetual, half/full from (1)
      attributes: half, newton on
      pair build: halffull/newton
      stencil: none
      bin: none
Per MPI rank memory allocation (min/avg/max) = 9.883 | 9.886 | 9.889 Mbytes
   Step          Temp          PotEng         Press           Pxx            Pyy            Pzz            Pxy            Pxz            Pyz             Lx             Ly             Lz           Volume    
       100   0             -471.61701     -558.69189      5150.1584      5151.5373     -11977.771     -3.10393       -2.7291389e-05 -0.0001014568   6.093854       7.9161485      12.755919      615.34364    
       101   0             -471.61701     -558.69224      5151.1013      5150.5935     -11977.772     -3.0252117     -2.1418592e-05 -9.1048907e-06  6.093854       7.9161485      12.755919      615.34364    
       102   0             -471.61701     -558.69228      5150.6698      5151.0249     -11977.772     -3.0611953     -4.804526e-07  -1.1623391e-07  6.093854       7.9161485      12.755919      615.34364    
       103   0             -471.61701     -558.69229      5150.9834      5150.7114     -11977.772     -3.0350302      2.7411968e-07 -8.1080469e-07  6.093854       7.9161485      12.755919      615.34364    
       104   0             -471.61701     -558.69229      5150.7803      5150.9145     -11977.772     -3.051974      -3.8426596e-07 -3.257906e-07   6.093854       7.9161485      12.755919      615.34364    
       105   0             -471.61701     -558.69229      5150.877       5150.8177     -11977.772     -3.0439054      8.2997605e-08 -7.1868672e-08  6.093854       7.9161485      12.755919      615.34364    
       106   0             -471.61701     -558.69229      5150.8377      5150.857      -11977.772     -3.0471773     -4.3952053e-08 -1.8297104e-08  6.093854       7.9161485      12.755919      615.34364    
       107   0             -471.61701     -558.69229      5150.8516      5150.8432     -11977.772     -3.04603       -4.7360917e-08  7.3786583e-09  6.093854       7.9161485      12.755919      615.34364    
       108   0             -471.61701     -558.69229      5150.8453      5150.8494     -11977.772     -3.0465427     -1.390076e-08  -2.033618e-09   6.093854       7.9161485      12.755919      615.34364    
       109   0             -471.61701     -558.69229      5150.8481      5150.8466     -11977.772     -3.0463149      2.7076963e-08  5.1292292e-10  6.093854       7.9161485      12.755919      615.34364    
       110   0             -471.61701     -558.69229      5150.8471      5150.8476     -11977.772     -3.046394      -1.1745082e-08  2.3734897e-10  6.093854       7.9161485      12.755919      615.34364    
       111   0             -471.61701     -558.69229      5150.8474      5150.8473     -11977.772     -3.0463758     -4.0500658e-09  5.7949933e-10  6.093854       7.9161485      12.755919      615.34364    
       112   0             -471.61701     -558.69229      5150.8473      5150.8474     -11977.772     -3.046374       6.8337028e-09 -4.1010889e-10  6.093854       7.9161485      12.755919      615.34364    
       113   0             -471.61701     -558.69229      5150.8474      5150.8473     -11977.772     -3.0463809      3.1280073e-10 -6.8920588e-11  6.093854       7.9161485      12.755919      615.34364    
       114   0             -471.61701     -558.69229      5150.8473      5150.8474     -11977.772     -3.046373      -2.5091787e-09  2.7906537e-11  6.093854       7.9161485      12.755919      615.34364    
       115   0             -471.61701     -558.69229      5150.8474      5150.8473     -11977.772     -3.0463827      1.2263542e-09  2.9275103e-11  6.093854       7.9161485      12.755919      615.34364    
       116   0             -471.61701     -558.69229      5150.8473      5150.8474     -11977.772     -3.0463701      4.0700365e-10  3.8751175e-11  6.093854       7.9161485      12.755919      615.34364    
       117   0             -471.61701     -558.69229      5150.8474      5150.8473     -11977.772     -3.0463861     -6.0908609e-10 -5.6458965e-12  6.093854       7.9161485      12.755919      615.34364    
       118   0             -471.61701     -558.69229      5150.8473      5150.8474     -11977.772     -3.0463698     -5.6971612e-11  2.7642309e-12  6.093854       7.9161485      12.755919      615.34364    
       119   0             -471.61701     -558.69229      5150.8474      5150.8473     -11977.772     -3.0463861      2.2177307e-10  2.3724057e-11  6.093854       7.9161485      12.755919      615.34364    
       120   0             -471.61701     -558.69229      5150.8473      5150.8474     -11977.772     -3.046369      -6.0968907e-11  8.0849238e-13  6.093854       7.9161485      12.755919      615.34364    
       121   0             -471.61701     -558.69229      5150.8474      5150.8473     -11977.772     -3.0463818     -7.8839299e-11 -2.4047002e-11  6.093854       7.9161485      12.755919      615.34364    
       122   0             -471.61701     -558.69229      5150.8474      5150.8474     -11977.772     -3.0463752      4.896799e-11   5.3873144e-11  6.093854       7.9161485      12.755919      615.34364    
       123   0             -471.61701     -558.69229      5150.8474      5150.8474     -11977.772     -3.0463777     -2.0754316e-11  3.1833823e-11  6.093854       7.9161485      12.755919      615.34364    
       124   0             -471.61701     -558.69229      5150.8474      5150.8474     -11977.772     -3.046377      -3.0650443e-11  1.3534343e-11  6.093854       7.9161485      12.755919      615.34364    
       125   0             -471.61701     -558.69229      5150.8474      5150.8474     -11977.772     -3.0463772     -1.4573188e-11  2.9065075e-12  6.093854       7.9161485      12.755919      615.34364    
       126   0             -471.61701     -558.69229      5150.8474      5150.8474     -11977.772     -3.0463772      3.3055595e-11 -4.9796807e-11  6.093854       7.9161485      12.755919      615.34364    
       127   0             -471.61701     -558.69229      5150.8474      5150.8474     -11977.772     -3.0463772     -2.6587656e-11  4.2938172e-11  6.093854       7.9161485      12.755919      615.34364    
       128   0             -471.61701     -558.69229      5150.8474      5150.8474     -11977.772     -3.0463772      4.544495e-11   1.4591255e-11  6.093854       7.9161485      12.755919      615.34364    
       129   0             -471.61701     -558.69229      5150.8474      5150.8474     -11977.772     -3.0463772      2.5937249e-11 -2.9984227e-11  6.093854       7.9161485      12.755919      615.34364    
       130   0             -471.61701     -558.69229      5150.8474      5150.8474     -11977.772     -3.0463772     -3.7680713e-11  1.6264699e-11  6.093854       7.9161485      12.755919      615.34364    
Loop time of 0.0255055 on 4 procs for 30 steps with 72 atoms

61.3% CPU use with 4 MPI tasks x 1 OpenMP threads

Minimization stats:
  Stopping criterion = force tolerance
  Energy initial, next-to-last, final = 
     -471.617006848473  -471.617006941094  -471.617006941094
  Force two-norm initial, final = 0.0025141936 4.5938111e-11
  Force max component initial, final = 0.00043474885 9.4791397e-12
  Final line search alpha, max atom move = 1 9.4791397e-12
  Iterations, force evaluations = 30 60

MPI task timing breakdown:
Section |  min time  |  avg time  |  max time  |%varavg| %total
---------------------------------------------------------------
Pair    | 0.021146   | 0.022191   | 0.023065   |   0.5 | 87.00
Neigh   | 0          | 0          | 0          |   0.0 |  0.00
Comm    | 0.001786   | 0.0026525  | 0.003715   |   1.4 | 10.40
Output  | 0.000288   | 0.00030075 | 0.000324   |   0.0 |  1.18
Modify  | 0          | 0          | 0          |   0.0 |  0.00
Other   |            | 0.0003612  |            |       |  1.42

Nlocal:             18 ave          20 max          16 min
Histogram: 1 0 1 0 0 0 0 1 0 1
Nghost:            624 ave         626 max         622 min
Histogram: 1 0 1 0 0 0 0 1 0 1
Neighs:            882 ave        1024 max         740 min
Histogram: 1 0 0 1 0 0 1 0 0 1
FullNghs:         1764 ave        1960 max        1568 min
Histogram: 1 0 1 0 0 0 0 1 0 1

Total # of neighbors = 7056
Ave neighs/atom = 98
Neighbor list builds = 0
Dangerous builds = 0

# Obtain new stress tensor

variable tmp equal pe
variable e1 equal ${tmp}
variable e1 equal -471.617006941094
variable tmp equal press
variable p1 equal ${tmp}
variable p1 equal -558.692293690608
variable tmp equal pxx
variable pxx1 equal ${tmp}
variable pxx1 equal 5150.84735957121
variable tmp equal pyy
variable pyy1 equal ${tmp}
variable pyy1 equal 5150.8473610199
variable tmp equal pzz
variable pzz1 equal ${tmp}
variable pzz1 equal -11977.7716016629
variable tmp equal pxy
variable pxy1 equal ${tmp}
variable pxy1 equal -3.04637716655629
variable tmp equal pxz
variable pxz1 equal ${tmp}
variable pxz1 equal -3.76807132618509e-11
variable tmp equal pyz
variable pyz1 equal ${tmp}
variable pyz1 equal 1.62646986462002e-11

# Compute elastic constant from pressure tensor

variable C1pos equal ${d1}
variable C1pos equal 0.000228759927267674
variable C2pos equal ${d2}
variable C2pos equal -0.000552715027879458
variable C3pos equal ${d3}
variable C3pos equal 4.89500962430611e-05
variable C4pos equal ${d4}
variable C4pos equal 1.51897199520054e-09
variable C5pos equal ${d5}
variable C5pos equal -3.49029321823139e-09
variable C6pos equal ${d6}
variable C6pos equal 304.635673874347

# Combine positive and negative

variable C1${dir} equal 0.5*(${C1neg}+${C1pos})
variable C16 equal 0.5*(${C1neg}+${C1pos})
variable C16 equal 0.5*(-0.000228737917495891+${C1pos})
variable C16 equal 0.5*(-0.000228737917495891+0.000228759927267674)
variable C2${dir} equal 0.5*(${C2neg}+${C2pos})
variable C26 equal 0.5*(${C2neg}+${C2pos})
variable C26 equal 0.5*(0.000552699020772707+${C2pos})
variable C26 equal 0.5*(0.000552699020772707+-0.000552715027879458)
variable C3${dir} equal 0.5*(${C3neg}+${C3pos})
variable C36 equal 0.5*(${C3neg}+${C3pos})
variable C36 equal 0.5*(-4.89601006847806e-05+${C3pos})
variable C36 equal 0.5*(-4.89601006847806e-05+4.89500962430611e-05)
variable C4${dir} equal 0.5*(${C4neg}+${C4pos})
variable C46 equal 0.5*(${C4neg}+${C4pos})
variable C46 equal 0.5*(-1.75542214075138e-09+${C4pos})
variable C46 equal 0.5*(-1.75542214075138e-09+1.51897199520054e-09)
variable C5${dir} equal 0.5*(${C5neg}+${C5pos})
variable C56 equal 0.5*(${C5neg}+${C5pos})
variable C56 equal 0.5*(6.2698809846495e-09+${C5pos})
variable C56 equal 0.5*(6.2698809846495e-09+-3.49029321823139e-09)
variable C6${dir} equal 0.5*(${C6neg}+${C6pos})
variable C66 equal 0.5*(${C6neg}+${C6pos})
variable C66 equal 0.5*(304.635786491561+${C6pos})
variable C66 equal 0.5*(304.635786491561+304.635673874347)

# Delete dir to make sure it is not reused

variable dir delete

# Output final values

variable C11all equal ${C11}
variable C11all equal 661.558125288002
variable C22all equal ${C22}
variable C22all equal 661.558125309012
variable C33all equal ${C33}
variable C33all equal 462.392708305014

variable C12all equal 0.5*(${C12}+${C21})
variable C12all equal 0.5*(52.2866648565014+${C21})
variable C12all equal 0.5*(52.2866648565014+52.2866648439958)
variable C13all equal 0.5*(${C13}+${C31})
variable C13all equal 0.5*(152.024827652485+${C31})
variable C13all equal 0.5*(152.024827652485+150.311965785022)
variable C23all equal 0.5*(${C23}+${C32})
variable C23all equal 0.5*(152.024827678497+${C32})
variable C23all equal 0.5*(152.024827678497+150.311965785022)

variable C44all equal ${C44}
variable C44all equal 219.417335856359
variable C55all equal ${C55}
variable C55all equal 219.417335859657
variable C66all equal ${C66}
variable C66all equal 304.635730182954

variable C14all equal 0.5*(${C14}+${C41})
variable C14all equal 0.5*(5.00222085950716e-09+${C41})
variable C14all equal 0.5*(5.00222085950716e-09+-2.22165542133355e-09)
variable C15all equal 0.5*(${C15}+${C51})
variable C15all equal 0.5*(1.05046638055315e-08+${C51})
variable C15all equal 0.5*(1.05046638055315e-08+2.11945822951085e-10)
variable C16all equal 0.5*(${C16}+${C61})
variable C16all equal 0.5*(1.10048858915066e-08+${C61})
variable C16all equal 0.5*(1.10048858915066e-08+8.14903921000031e-09)

variable C24all equal 0.5*(${C24}+${C42})
variable C24all equal 0.5*(-8.00355337554756e-09+${C42})
variable C24all equal 0.5*(-8.00355337554756e-09+-1.63459929862964e-09)
variable C25all equal 0.5*(${C25}+${C52})
variable C25all equal 0.5*(2.50111043001108e-09+${C52})
variable C25all equal 0.5*(2.50111043001108e-09+1.13165891174856e-09)
variable C26all equal 0.5*(${C26}+${C62})
variable C26all equal 0.5*(-8.00355337549335e-09+${C62})
variable C26all equal 0.5*(-8.00355337549335e-09+-1.50488190898524e-08)

variable C34all equal 0.5*(${C34}+${C43})
variable C34all equal 0.5*(1.00044417195022e-08+${C43})
variable C34all equal 0.5*(1.00044417195022e-08+9.5799368793502e-10)
variable C35all equal 0.5*(${C35}+${C53})
variable C35all equal 0.5*(5.00222085950716e-09+${C53})
variable C35all equal 0.5*(5.00222085950716e-09+1.80792849234639e-09)
variable C36all equal 0.5*(${C36}+${C63})
variable C36all equal 0.5*(-5.00222085975111e-09+${C63})
variable C36all equal 0.5*(-5.00222085975111e-09+-4.2195388100492e-09)

variable C45all equal 0.5*(${C45}+${C54})
variable C45all equal 0.5*(-9.76017420288089e-09+${C54})
variable C45all equal 0.5*(-9.76017420288089e-09+6.001587982821e-10)
variable C46all equal 0.5*(${C46}+${C64})
variable C46all equal 0.5*(-1.1822507277542e-10+${C64})
variable C46all equal 0.5*(-1.1822507277542e-10+2.8148181600515e-09)
variable C56all equal 0.5*(${C56}+${C65})
variable C56all equal 0.5*(1.38979388320905e-09+${C65})
variable C56all equal 0.5*(1.38979388320905e-09+-2.56368868494999e-09)

# Average moduli for cubic crystals

variable C11cubic equal (${C11all}+${C22all}+${C33all})/3.0
variable C11cubic equal (661.558125288002+${C22all}+${C33all})/3.0
variable C11cubic equal (661.558125288002+661.558125309012+${C33all})/3.0
variable C11cubic equal (661.558125288002+661.558125309012+462.392708305014)/3.0
variable C12cubic equal (${C12all}+${C13all}+${C23all})/3.0
variable C12cubic equal (52.2866648502486+${C13all}+${C23all})/3.0
variable C12cubic equal (52.2866648502486+151.168396718754+${C23all})/3.0
variable C12cubic equal (52.2866648502486+151.168396718754+151.16839673176)/3.0
variable C44cubic equal (${C44all}+${C55all}+${C66all})/3.0
variable C44cubic equal (219.417335856359+${C55all}+${C66all})/3.0
variable C44cubic equal (219.417335856359+219.417335859657+${C66all})/3.0
variable C44cubic equal (219.417335856359+219.417335859657+304.635730182954)/3.0

variable bulkmodulus equal (${C11cubic}+2*${C12cubic})/3.0
variable bulkmodulus equal (595.169652967343+2*${C12cubic})/3.0
variable bulkmodulus equal (595.169652967343+2*118.207819433588)/3.0
variable shearmodulus1 equal ${C44cubic}
variable shearmodulus1 equal 247.823467299657
variable shearmodulus2 equal (${C11cubic}-${C12cubic})/2.0
variable shearmodulus2 equal (595.169652967343-${C12cubic})/2.0
variable shearmodulus2 equal (595.169652967343-118.207819433588)/2.0
variable poissonratio equal 1.0/(1.0+${C11cubic}/${C12cubic})
variable poissonratio equal 1.0/(1.0+595.169652967343/${C12cubic})
variable poissonratio equal 1.0/(1.0+595.169652967343/118.207819433588)

# For Stillinger-Weber silicon, the analytical results
# are known to be (E. R. Cowley, 1988):
#               C11 = 151.4 GPa
#               C12 = 76.4 GPa
#               C44 = 56.4 GPa

print "========================================="
=========================================
print "Components of the Elastic Constant Tensor"
Components of the Elastic Constant Tensor
print "========================================="
=========================================

print "Elastic Constant C11all = ${C11all} ${cunits}"
Elastic Constant C11all = 661.558125288002 GPa
print "Elastic Constant C22all = ${C22all} ${cunits}"
Elastic Constant C22all = 661.558125309012 GPa
print "Elastic Constant C33all = ${C33all} ${cunits}"
Elastic Constant C33all = 462.392708305014 GPa

print "Elastic Constant C12all = ${C12all} ${cunits}"
Elastic Constant C12all = 52.2866648502486 GPa
print "Elastic Constant C13all = ${C13all} ${cunits}"
Elastic Constant C13all = 151.168396718754 GPa
print "Elastic Constant C23all = ${C23all} ${cunits}"
Elastic Constant C23all = 151.16839673176 GPa

print "Elastic Constant C44all = ${C44all} ${cunits}"
Elastic Constant C44all = 219.417335856359 GPa
print "Elastic Constant C55all = ${C55all} ${cunits}"
Elastic Constant C55all = 219.417335859657 GPa
print "Elastic Constant C66all = ${C66all} ${cunits}"
Elastic Constant C66all = 304.635730182954 GPa

print "Elastic Constant C14all = ${C14all} ${cunits}"
Elastic Constant C14all = 1.39028271908681e-09 GPa
print "Elastic Constant C15all = ${C15all} ${cunits}"
Elastic Constant C15all = 5.35830481424129e-09 GPa
print "Elastic Constant C16all = ${C16all} ${cunits}"
Elastic Constant C16all = 9.57696255075346e-09 GPa

print "Elastic Constant C24all = ${C24all} ${cunits}"
Elastic Constant C24all = -4.8190763370886e-09 GPa
print "Elastic Constant C25all = ${C25all} ${cunits}"
Elastic Constant C25all = 1.81638467087982e-09 GPa
print "Elastic Constant C26all = ${C26all} ${cunits}"
Elastic Constant C26all = -1.15261862326729e-08 GPa

print "Elastic Constant C34all = ${C34all} ${cunits}"
Elastic Constant C34all = 5.48121770371861e-09 GPa
print "Elastic Constant C35all = ${C35all} ${cunits}"
Elastic Constant C35all = 3.40507467592677e-09 GPa
print "Elastic Constant C36all = ${C36all} ${cunits}"
Elastic Constant C36all = -4.61087983490016e-09 GPa

print "Elastic Constant C45all = ${C45all} ${cunits}"
Elastic Constant C45all = -4.5800077022994e-09 GPa
print "Elastic Constant C46all = ${C46all} ${cunits}"
Elastic Constant C46all = 1.34829654363804e-09 GPa
print "Elastic Constant C56all = ${C56all} ${cunits}"
Elastic Constant C56all = -5.8694740087047e-10 GPa

print "========================================="
=========================================
print "Average properties for a cubic crystal"
Average properties for a cubic crystal
print "========================================="
=========================================

print "Bulk Modulus = ${bulkmodulus} ${cunits}"
Bulk Modulus = 277.195097278173 GPa
print "Shear Modulus 1 = ${shearmodulus1} ${cunits}"
Shear Modulus 1 = 247.823467299657 GPa
print "Shear Modulus 2 = ${shearmodulus2} ${cunits}"
Shear Modulus 2 = 238.480916766878 GPa
print "Poisson Ratio = ${poissonratio}"
Poisson Ratio = 0.16570164324891
Total wall time: 0:00:00
