LAMMPS data file via write_data, version 22 Dec 2022, timestep = 5

8 atoms
2 atom types

0.005766998642832387 4.247767001357167 xlo xhi
0.005766998642832387 4.247767001357167 ylo yhi
0.005766998642832387 4.247767001357167 zlo zhi

Masses

1 47.867
2 14.007

Atoms # atomic

5 2 0.005766998642832387 0.005766998642832387 0.005766998642832387 0 0 0
3 1 0.005766998642832388 0.005766998642832388 2.1267669999999996 0 0 0
4 1 0.005766998642832387 2.1267669999999996 0.005766998642832388 0 0 0
6 2 0.005766998642832387 2.1267669999999996 2.1267669999999996 0 0 0
1 1 2.1267669999999996 0.005766998642832387 0.005766998642832388 0 0 0
7 2 2.1267669999999996 0.005766998642832387 2.1267669999999996 0 0 0
8 2 2.1267669999999996 2.1267669999999996 0.005766998642832387 0 0 0
2 1 2.1267669999999996 2.1267669999999996 2.1267669999999996 0 0 0

Velocities

5 0 0 0
3 0 0 0
4 0 0 0
6 0 0 0
1 0 0 0
7 0 0 0
8 0 0 0
2 0 0 0
