LAMMPS (22 Dec 2022)
  using 1 OpenMP thread(s) per MPI task
Loaded 1 plugins from C:\Program Files\LAMMPS 64-bit 23Jun2022\plugins
Loaded 0 plugins from C:\Program Files\LAMMPS 64-bit 23Jun2022-MPI\plugins
Loaded 1 plugins from C:\Program Files\LAMMPS 64-bit 22Dec2022-MSMPI\plugins
Loaded 1 plugins from C:\Program Files\LAMMPS 64-bit 28Mar2023-MPI\plugins
# Compute elastic constant tensor for a crystal
#
# Written by Aidan Thompson (Sandia, athomps@sandia.gov)
#
#  This script uses the following three include files.
#
#   init.mod      (must be modified for different crystal structures)
# 	       	  Define units, deformation parameters and initial
#		  configuration of the atoms and simulation cell.
#
#
#   potential.mod    (must be modified for different pair styles)
# 		     Define pair style and other attributes
#		     not stored in restart file
#
#
#   displace.mod    (displace.mod should not need to be modified)
# 		    Perform positive and negative box displacements
# 		    in direction ${dir} and size ${up}.
# 		    It uses the resultant changes
#		    in stress to compute one
# 		    row of the elastic stiffness tensor
#
#		    Inputs variables:
#		    	   dir = the Voigt deformation component
#		    		    (1,2,3,4,5,6)
#		    Global constants:
#       	    	   up = the deformation magnitude (strain units)
#       		   cfac = conversion from LAMMPS pressure units to
#               	   output units for elastic constants
#
#
#  To run this on a different system, it should only be necessary to
#  modify the files init.mod and potential.mod. In order to calculate
#  the elastic constants correctly, care must be taken to specify
#  the correct units in init.mod (units, cfac and cunits). It is also
#  important to verify that the minimization of energy w.r.t atom
#  positions in the deformed cell is fully converged.
#  One indication of this is that the elastic constants are insensitive
#  to the choice of the variable ${up} in init.mod. Another is to check
#  the final max and two-norm forces reported in the log file. If you know
#  that minimization is not required, you can set maxiter = 0.0 in
#  init.mod.
#

include init.mod
# NOTE: This script can be modified for different atomic structures,
# units, etc. See in.elastic for more info.
#

# Define the finite deformation size. Try several values of this
# variable to verify that results do not depend on it.
variable up equal 1.0e-6

# Define the amount of random jiggle for atoms
# This prevents atoms from staying on saddle points
variable atomjiggle equal 1.0e-5

# Uncomment one of these blocks, depending on what units
# you are using in LAMMPS and for output

# metal units, elastic constants in eV/A^3
#units		metal
#variable cfac equal 6.2414e-7
#variable cunits string eV/A^3

# metal units, elastic constants in GPa
units		metal
variable cfac equal 1.0e-4
variable cunits string GPa

# real units, elastic constants in GPa
#units		real
#variable cfac equal 1.01325e-4
#variable cunits string GPa

# Define minimization parameters
variable etol equal 0.0
variable ftol equal 1.0e-10
variable maxiter equal 100
variable maxeval equal 1000
variable dmax equal 1.0e-2

# generate the box and atom positions using a diamond lattice

dimension    3
boundary     p p p
read_data    data.in
Reading data file ...
  orthogonal box = (0.0057669986 0.0057669986 0.0057669986) to (4.247767 4.247767 4.247767)
  1 by 2 by 2 MPI processor grid
  reading atoms ...
  8 atoms
  reading velocities ...
  8 velocities
  read_data CPU = 0.001 seconds
#replicate    2 3 4
replicate    2 3 4
Replication is creating a 2x3x4 = 24 times larger system...
  orthogonal box = (0.0057669986 0.0057669986 0.0057669986) to (8.489767 12.731767 16.973767)
  1 by 2 by 2 MPI processor grid
  192 atoms
  replicate CPU = 0.000 seconds
change_box   all triclinic
Changing box ...
  triclinic box = (0.0057669986 0.0057669986 0.0057669986) to (8.489767 12.731767 16.973767) with tilt (0 0 0)

# Need to set mass to something, just to satisfy LAMMPS
mass 1 1.0e-20

include potential.mod
# NOTE: This script can be modified for different pair styles
# See in.elastic for more info.

# Choose potential
#-----------------------
#pair_style	sw
#pair_coeff * * Si.sw Si
#-----------------------
#pair_style morse	2.83994742	# D0[eV] a[1/A] r0[A] rc[A], 1NN for BCC
#pair_coeff 1 1	2.1173	1.0202	2.4595	2.6497	#	Fe-Fe
#-----------------------
#pair_style smatb # R0(A)   p       q     A(eV)   xi(eV)  Rcs(A)   Rc(A), 4NN: Rcs=4NN, Rc=(4NN+5NN)/2
#pair_coeff 1 1	2.4802	7.0149	2.3779	0.3144	3.0551	4.033	4.176	#	Co	Co
#-----------------------
#pair_style eam/alloy
#pair_coeff * * AlCrFeCoNi_Zhou04.eam.alloy Fe
#-----------------------
pair_style meam
pair_coeff * * ./../../library.meam Ti V Cr Fe N ./../../TiVCrFeN.meam Ti N
#-----------------------

# Setup neighbor style
neighbor 1.0 nsq
neigh_modify once no every 1 delay 0 check yes

# Setup minimization style
min_style	     cg
min_modify	     dmax ${dmax} line quadratic
min_modify	     dmax 0.01 line quadratic

# Setup output
thermo		1
thermo_style custom step temp pe press pxx pyy pzz pxy pxz pyz lx ly lz vol
thermo_modify norm no

# Compute initial state
fix 3 all box/relax  aniso 0.0
minimize ${etol} ${ftol} ${maxiter} ${maxeval}
minimize 0 ${ftol} ${maxiter} ${maxeval}
minimize 0 1e-10 ${maxiter} ${maxeval}
minimize 0 1e-10 100 ${maxeval}
minimize 0 1e-10 100 1000
Neighbor list info ...
  update: every = 1 steps, delay = 0 steps, check = yes
  max neighbors/atom: 2000, page size: 100000
  master list distance cutoff = 5
  ghost atom cutoff = 5
  2 neighbor lists, perpetual/occasional/extra = 2 0 0
  (1) pair meam, perpetual
      attributes: full, newton on
      pair build: full/nsq
      stencil: none
      bin: none
  (2) pair meam, perpetual, half/full from (1)
      attributes: half, newton on
      pair build: halffull/newton
      stencil: none
      bin: none
Per MPI rank memory allocation (min/avg/max) = 9.888 | 9.888 | 9.888 Mbytes
   Step          Temp          PotEng         Press           Pxx            Pyy            Pzz            Pxy            Pxz            Pyz             Lx             Ly             Lz           Volume    
         0   0             -1269.12       -1.1924075e-06 -1.1921602e-06 -1.1922305e-06 -1.192832e-06   5.3695091e-23 -8.1949348e-23 -1.2786924e-22  8.484          12.726         16.968         1831.9906    
         1   0             -1269.12       -1.9430319e-10  9.6327839e-11 -1.0441093e-10 -5.7482647e-10  1.4789779e-26  1.6212703e-25  2.3801627e-25  8.484          12.726         16.968         1831.9906    
Loop time of 0.000686 on 4 procs for 1 steps with 192 atoms

0.0% CPU use with 4 MPI tasks x 1 OpenMP threads

Minimization stats:
  Stopping criterion = force tolerance
  Energy initial, next-to-last, final = 
      -1269.1200000008   -1269.1200000008   -1269.1200000008
  Force two-norm initial, final = 2.3615559e-09 7.0573952e-13
  Force max component initial, final = 1.3639302e-09 6.5727882e-13
  Final line search alpha, max atom move = 1 6.5727882e-13
  Iterations, force evaluations = 1 2

MPI task timing breakdown:
Section |  min time  |  avg time  |  max time  |%varavg| %total
---------------------------------------------------------------
Pair    | 0.000489   | 0.000504   | 0.00052    |   0.0 | 73.47
Neigh   | 0          | 0          | 0          |   0.0 |  0.00
Comm    | 6.6e-05    | 8.2e-05    | 9.8e-05    |   0.0 | 11.95
Output  | 0          | 0          | 0          |   0.0 |  0.00
Modify  | 0          | 0          | 0          |   0.0 |  0.00
Other   |            | 0.0001     |            |       | 14.58

Nlocal:             48 ave          48 max          48 min
Histogram: 4 0 0 0 0 0 0 0 0 0
Nghost:            600 ave         600 max         600 min
Histogram: 4 0 0 0 0 0 0 0 0 0
Neighs:           1344 ave        1344 max        1344 min
Histogram: 4 0 0 0 0 0 0 0 0 0
FullNghs:         2688 ave        2688 max        2688 min
Histogram: 4 0 0 0 0 0 0 0 0 0

Total # of neighbors = 10752
Ave neighs/atom = 56
Neighbor list builds = 0
Dangerous builds = 0

variable tmp equal pxx
variable pxx0 equal ${tmp}
variable pxx0 equal 9.63278389075984e-11
variable tmp equal pyy
variable pyy0 equal ${tmp}
variable pyy0 equal -1.04410933888089e-10
variable tmp equal pzz
variable pzz0 equal ${tmp}
variable pzz0 equal -5.74826467879927e-10
variable tmp equal pyz
variable pyz0 equal ${tmp}
variable pyz0 equal 2.38016273290606e-25
variable tmp equal pxz
variable pxz0 equal ${tmp}
variable pxz0 equal 1.62127026734181e-25
variable tmp equal pxy
variable pxy0 equal ${tmp}
variable pxy0 equal 1.47897793004851e-26

variable tmp equal lx
variable lx0 equal ${tmp}
variable lx0 equal 8.4840000054275
variable tmp equal ly
variable ly0 equal ${tmp}
variable ly0 equal 12.7260000081412
variable tmp equal lz
variable lz0 equal ${tmp}
variable lz0 equal 16.968000010855

# These formulas define the derivatives w.r.t. strain components
# Constants uses $, variables use v_
variable d1 equal -(v_pxx1-${pxx0})/(v_delta/v_len0)*${cfac}
variable d1 equal -(v_pxx1-9.63278389075984e-11)/(v_delta/v_len0)*${cfac}
variable d1 equal -(v_pxx1-9.63278389075984e-11)/(v_delta/v_len0)*0.0001
variable d2 equal -(v_pyy1-${pyy0})/(v_delta/v_len0)*${cfac}
variable d2 equal -(v_pyy1--1.04410933888089e-10)/(v_delta/v_len0)*${cfac}
variable d2 equal -(v_pyy1--1.04410933888089e-10)/(v_delta/v_len0)*0.0001
variable d3 equal -(v_pzz1-${pzz0})/(v_delta/v_len0)*${cfac}
variable d3 equal -(v_pzz1--5.74826467879927e-10)/(v_delta/v_len0)*${cfac}
variable d3 equal -(v_pzz1--5.74826467879927e-10)/(v_delta/v_len0)*0.0001
variable d4 equal -(v_pyz1-${pyz0})/(v_delta/v_len0)*${cfac}
variable d4 equal -(v_pyz1-2.38016273290606e-25)/(v_delta/v_len0)*${cfac}
variable d4 equal -(v_pyz1-2.38016273290606e-25)/(v_delta/v_len0)*0.0001
variable d5 equal -(v_pxz1-${pxz0})/(v_delta/v_len0)*${cfac}
variable d5 equal -(v_pxz1-1.62127026734181e-25)/(v_delta/v_len0)*${cfac}
variable d5 equal -(v_pxz1-1.62127026734181e-25)/(v_delta/v_len0)*0.0001
variable d6 equal -(v_pxy1-${pxy0})/(v_delta/v_len0)*${cfac}
variable d6 equal -(v_pxy1-1.47897793004851e-26)/(v_delta/v_len0)*${cfac}
variable d6 equal -(v_pxy1-1.47897793004851e-26)/(v_delta/v_len0)*0.0001

displace_atoms all random ${atomjiggle} ${atomjiggle} ${atomjiggle} 87287 units box
displace_atoms all random 1e-05 ${atomjiggle} ${atomjiggle} 87287 units box
displace_atoms all random 1e-05 1e-05 ${atomjiggle} 87287 units box
displace_atoms all random 1e-05 1e-05 1e-05 87287 units box
Displacing atoms ...

# Write restart
unfix 3
write_restart restart.equil
System init for write_restart ...

# uxx Perturbation

variable dir equal 1
include displace.mod
# NOTE: This script should not need to be
# modified. See in.elastic for more info.
#
# Find which reference length to use

if "${dir} == 1" then    "variable len0 equal ${lx0}"
variable len0 equal ${lx0}
variable len0 equal 8.4840000054275
if "${dir} == 2" then    "variable len0 equal ${ly0}"
if "${dir} == 3" then    "variable len0 equal ${lz0}"
if "${dir} == 4" then    "variable len0 equal ${lz0}"
if "${dir} == 5" then    "variable len0 equal ${lz0}"
if "${dir} == 6" then    "variable len0 equal ${ly0}"

# Reset box and simulation parameters

clear
  using 1 OpenMP thread(s) per MPI task
Loaded 1 plugins from C:\Program Files\LAMMPS 64-bit 23Jun2022\plugins
Loaded 0 plugins from C:\Program Files\LAMMPS 64-bit 23Jun2022-MPI\plugins
Loaded 1 plugins from C:\Program Files\LAMMPS 64-bit 22Dec2022-MSMPI\plugins
Loaded 1 plugins from C:\Program Files\LAMMPS 64-bit 28Mar2023-MPI\plugins
box tilt large

The 'box' command has been removed and will be ignored

read_restart restart.equil
Reading restart file ...
  restart file = 22 Dec 2022, LAMMPS = 22 Dec 2022
  restoring atom style atomic from restart
  triclinic box = (0.0057669986 0.0057669986 0.0057669986) to (8.489767 12.731767 16.973767) with tilt (0 0 0)
  1 by 2 by 2 MPI processor grid
  pair style meam stores no restart info
  192 atoms
  read_restart CPU = 0.000 seconds
include potential.mod
# NOTE: This script can be modified for different pair styles
# See in.elastic for more info.

# Choose potential
#-----------------------
#pair_style	sw
#pair_coeff * * Si.sw Si
#-----------------------
#pair_style morse	2.83994742	# D0[eV] a[1/A] r0[A] rc[A], 1NN for BCC
#pair_coeff 1 1	2.1173	1.0202	2.4595	2.6497	#	Fe-Fe
#-----------------------
#pair_style smatb # R0(A)   p       q     A(eV)   xi(eV)  Rcs(A)   Rc(A), 4NN: Rcs=4NN, Rc=(4NN+5NN)/2
#pair_coeff 1 1	2.4802	7.0149	2.3779	0.3144	3.0551	4.033	4.176	#	Co	Co
#-----------------------
#pair_style eam/alloy
#pair_coeff * * AlCrFeCoNi_Zhou04.eam.alloy Fe
#-----------------------
pair_style meam
pair_coeff * * ./../../library.meam Ti V Cr Fe N ./../../TiVCrFeN.meam Ti N
#-----------------------

# Setup neighbor style
neighbor 1.0 nsq
neigh_modify once no every 1 delay 0 check yes

# Setup minimization style
min_style	     cg
min_modify	     dmax ${dmax} line quadratic
min_modify	     dmax 0.01 line quadratic

# Setup output
thermo		1
thermo_style custom step temp pe press pxx pyy pzz pxy pxz pyz lx ly lz vol
thermo_modify norm no

# Negative deformation

variable delta equal -${up}*${len0}
variable delta equal -1e-06*${len0}
variable delta equal -1e-06*8.4840000054275
variable deltaxy equal -${up}*xy
variable deltaxy equal -1e-06*xy
variable deltaxz equal -${up}*xz
variable deltaxz equal -1e-06*xz
variable deltayz equal -${up}*yz
variable deltayz equal -1e-06*yz
if "${dir} == 1" then    "change_box all x delta 0 ${delta} xy delta ${deltaxy} xz delta ${deltaxz} remap units box"
change_box all x delta 0 ${delta} xy delta ${deltaxy} xz delta ${deltaxz} remap units box
change_box all x delta 0 -8.4840000054275e-06 xy delta ${deltaxy} xz delta ${deltaxz} remap units box
change_box all x delta 0 -8.4840000054275e-06 xy delta -0 xz delta ${deltaxz} remap units box
change_box all x delta 0 -8.4840000054275e-06 xy delta -0 xz delta -0 remap units box
Changing box ...
  triclinic box = (0.0057669986 0.0057669986 0.0057669986) to (8.4897585 12.731767 16.973767) with tilt (0 0 0)
  triclinic box = (0.0057669986 0.0057669986 0.0057669986) to (8.4897585 12.731767 16.973767) with tilt (0 0 0)
  triclinic box = (0.0057669986 0.0057669986 0.0057669986) to (8.4897585 12.731767 16.973767) with tilt (0 0 0)
if "${dir} == 2" then    "change_box all y delta 0 ${delta} yz delta ${deltayz} remap units box"
if "${dir} == 3" then    "change_box all z delta 0 ${delta} remap units box"
if "${dir} == 4" then    "change_box all yz delta ${delta} remap units box"
if "${dir} == 5" then    "change_box all xz delta ${delta} remap units box"
if "${dir} == 6" then    "change_box all xy delta ${delta} remap units box"

# Relax atoms positions

minimize ${etol} ${ftol} ${maxiter} ${maxeval}
minimize 0 ${ftol} ${maxiter} ${maxeval}
minimize 0 1e-10 ${maxiter} ${maxeval}
minimize 0 1e-10 100 ${maxeval}
minimize 0 1e-10 100 1000
Neighbor list info ...
  update: every = 1 steps, delay = 0 steps, check = yes
  max neighbors/atom: 2000, page size: 100000
  master list distance cutoff = 5
  ghost atom cutoff = 5
  2 neighbor lists, perpetual/occasional/extra = 2 0 0
  (1) pair meam, perpetual
      attributes: full, newton on
      pair build: full/nsq
      stencil: none
      bin: none
  (2) pair meam, perpetual, half/full from (1)
      attributes: half, newton on
      pair build: halffull/newton
      stencil: none
      bin: none
Per MPI rank memory allocation (min/avg/max) = 9.858 | 9.863 | 9.868 Mbytes
   Step          Temp          PotEng         Press           Pxx            Pyy            Pzz            Pxy            Pxz            Pyz             Lx             Ly             Lz           Volume    
         1   0             -1269.12        2.8761167      6.6106816      1.0088468      1.0088219     -3.975368e-06   4.5736966e-06 -1.0303554e-05  8.4839915      12.726         16.968         1831.9887    
         2   0             -1269.12        2.8758103      6.6103501      1.0085358      1.0085452     -5.4523994e-07 -3.8571405e-07  6.9832629e-07  8.4839915      12.726         16.968         1831.9887    
         3   0             -1269.12        2.8757994      6.6103465      1.0085243      1.0085274      3.2948617e-07  1.3614784e-08 -4.0203674e-08  8.4839915      12.726         16.968         1831.9887    
         4   0             -1269.12        2.8757979      6.6103492      1.0085238      1.0085207     -3.2863721e-07 -5.5992078e-08  7.1189266e-09  8.4839915      12.726         16.968         1831.9887    
         5   0             -1269.12        2.8757978      6.6103496      1.0085248      1.0085189     -8.1706541e-08 -6.0918673e-08 -5.9262348e-08  8.4839915      12.726         16.968         1831.9887    
         6   0             -1269.12        2.8757978      6.6103497      1.0085249      1.0085189     -1.053227e-07  -1.3369623e-08 -2.2762764e-08  8.4839915      12.726         16.968         1831.9887    
         7   0             -1269.12        2.875798       6.6103499      1.0085251      1.008519      -6.7629023e-08 -1.4549544e-08 -5.5653512e-08  8.4839915      12.726         16.968         1831.9887    
         8   0             -1269.12        2.8757982      6.6103501      1.0085253      1.0085192     -1.0185231e-07 -2.5051158e-08 -3.4669207e-08  8.4839915      12.726         16.968         1831.9887    
         9   0             -1269.12        2.8757998      6.6103515      1.0085273      1.0085205     -5.7654995e-08  2.1355252e-10 -1.0194965e-07  8.4839915      12.726         16.968         1831.9887    
        10   0             -1269.12        2.8758004      6.6103515      1.0085298      1.0085199     -1.7988021e-07 -5.9463633e-08 -6.2608902e-08  8.4839915      12.726         16.968         1831.9887    
        11   0             -1269.12        2.8757973      6.6103478      1.008529       1.0085152     -9.9728964e-08 -3.3480096e-08 -2.5440409e-07  8.4839915      12.726         16.968         1831.9887    
        12   0             -1269.12        2.8757952      6.6103455      1.008528       1.0085121     -1.4967988e-07 -5.5888189e-08 -2.2427071e-07  8.4839915      12.726         16.968         1831.9887    
        13   0             -1269.12        2.8757938      6.610344       1.0085273      1.0085101     -1.2397661e-07 -2.3632301e-08 -3.1402799e-07  8.4839915      12.726         16.968         1831.9887    
        14   0             -1269.12        2.8757913      6.6103414      1.0085262      1.0085063     -1.794399e-07  -4.8828091e-08 -2.9637269e-07  8.4839915      12.726         16.968         1831.9887    
        15   0             -1269.12        2.8757686      6.6103184      1.0085158      1.0084715     -8.4246344e-08  2.0690769e-08 -9.0474666e-07  8.4839915      12.726         16.968         1831.9887    
        16   0             -1269.12        2.8734683      6.6080873      1.0073712      1.0049463     -3.4011237e-06 -2.0000499e-06 -3.8907315e-05  8.4839915      12.726         16.968         1831.9887    
        17   0             -1269.12       -0.30591083     3.5568564     -0.60688427    -3.8677046     -0.0069025071  -0.0034344595  -0.047142115    8.4839915      12.726         16.968         1831.9887    
        18   0             -1269.1202     -75.257356     -68.352315     -38.687999     -118.73175     -0.1806238     -0.086903051   -1.154981       8.4839915      12.726         16.968         1831.9887    
        19   0             -1269.1207     -249.7311      -235.74114     -127.40284     -386.04933     -0.62047108    -0.28864917    -3.7342021      8.4839915      12.726         16.968         1831.9887    
        20   0             -1269.1215     -523.62503     -498.52079     -266.85652     -805.49777     -1.3756143     -0.61647237    -7.785159       8.4839915      12.726         16.968         1831.9887    
        21   0             -1269.1224     -896.78224     -856.55378     -457.21764     -1376.5753     -2.5013748     -1.0760222     -13.308375      8.4839915      12.726         16.968         1831.9887    
        22   0             -1269.1235     -1369.034      -1309.6791     -698.75012     -2098.6727     -4.0531818     -1.6673391     -20.306964      8.4839915      12.726         16.968         1831.9887    
        23   0             -1269.1248     -1940.4593     -1857.8782     -991.99737     -2971.5023     -6.0503342     -2.3647077     -28.800531      8.4839915      12.726         16.968         1831.9887    
        24   0             -1269.1264     -2611.9972     -2501.3023     -1338.411      -3996.2784     -8.1939482     -2.9693222     -38.9074        8.4839915      12.726         16.968         1831.9887    
        25   0             -1269.1315     -3370.1689     -3219.6045     -1730.1027     -5160.7996     -5.2511605     -1.0619781     -51.884891      8.4839915      12.726         16.968         1831.9887    
        26   0             -1269.133      -3552.3005     -3399.2521     -1803.3633     -5454.2862     -11.86758      -4.0477585     -52.829104      8.4839915      12.726         16.968         1831.9887    
        27   0             -1269.1343     -3857.2857     -3714.0559     -1917.6811     -5940.12       -7.1036898     -3.8605845     -61.201204      8.4839915      12.726         16.968         1831.9887    
        28   0             -1269.1368     -4389.1835     -4269.5146     -2108.4105     -6789.6254     -11.372284     -3.6409565     -65.235962      8.4839915      12.726         16.968         1831.9887    
        29   0             -1269.1414     -5062.5444     -4975.2986     -2349.1522     -7863.1824     -12.526926     -4.1821563     -79.279927      8.4839915      12.726         16.968         1831.9887    
        30   0             -1269.1434     -5129.2287     -5043.4979     -2375.4832     -7968.7052     -10.396754     -5.1419195     -84.841133      8.4839915      12.726         16.968         1831.9887    
        31   0             -1269.1448     -5270.9708     -5203.2023     -2419.9747     -8189.7354     -17.186032     -4.6874429     -82.158576      8.4839915      12.726         16.968         1831.9887    
        32   0             -1269.1458     -5478.8462     -5440.3975     -2498.3057     -8497.8354     -6.5960664      0.096127183   -95.959456      8.4839915      12.726         16.968         1831.9887    
        33   0             -1269.1493     -6136.7792     -6195.0672     -2748.383      -9466.8875     -19.672255     -4.682317      -97.305898      8.4839915      12.726         16.968         1831.9887    
        34   0             -1269.1539     -6915.8512     -7077.718      -3069.3573     -10600.478     -15.228336     -1.4504761     -112.11437      8.4839915      12.726         16.968         1831.9887    
        35   0             -1269.1585     -7790.1621     -8074.667      -3457.8981     -11837.921     -21.437175     -3.2492202     -125.11048      8.4839915      12.726         16.968         1831.9887    
        36   0             -1269.1601     -7961.4883     -8275.9176     -3540.8063     -12067.741     -25.368365     -4.0506747     -124.07853      8.4839915      12.726         16.968         1831.9887    
        37   0             -1269.1611     -8276.7424     -8651.0626     -3708.7112     -12470.453     -20.389359     -1.0396506     -134.27808      8.4839915      12.726         16.968         1831.9887    
        38   0             -1269.1633     -9104.0401     -9652.1086     -4168.7395     -13491.272     -36.670045     -3.9450341     -130.7795       8.4839915      12.726         16.968         1831.9887    
        39   0             -1269.1669     -10397.856     -11216.617     -4933.9185     -15043.032     -25.294345      5.0144098     -159.46826      8.4839915      12.726         16.968         1831.9887    
        40   0             -1269.1714     -11796.648     -12907.16      -5812.499      -16670.286     -49.941669     -0.9665585     -160.23731      8.4839915      12.726         16.968         1831.9887    
        41   0             -1269.1746     -13330.938     -14772.151     -6852.8296     -18367.835     -36.496142      11.14475      -187.97206      8.4839915      12.726         16.968         1831.9887    
        42   0             -1269.1762     -14065.617     -15669.164     -7410.0142     -19117.672     -54.852822      6.6716255     -187.92286      8.4839915      12.726         16.968         1831.9887    
        43   0             -1269.1774     -14839.088     -16613.86      -8098.4428     -19804.962     -41.933339      17.665367     -196.42872      8.4839915      12.726         16.968         1831.9887    
        44   0             -1269.1789     -15790.407     -17767.702     -9054.9842     -20548.534     -60.388248      16.97478      -199.58418      8.4839915      12.726         16.968         1831.9887    
        45   0             -1269.1802     -16616.483     -18745.932     -10033.284     -21070.234     -51.639152      26.91562      -199.52048      8.4839915      12.726         16.968         1831.9887    
        46   0             -1269.1818     -17689.01      -19966.154     -11491.962     -21608.914     -64.198997      33.816136     -204.82674      8.4839915      12.726         16.968         1831.9887    
        47   0             -1269.1839     -18952.063     -21324.461     -13432.272     -22099.457     -58.760287      46.185164     -199.69959      8.4839915      12.726         16.968         1831.9887    
        48   0             -1269.185      -19427.877     -21769.604     -14348.265     -22165.762     -64.255114      56.536133     -199.41901      8.4839915      12.726         16.968         1831.9887    
        49   0             -1269.1861     -19896.717     -22105.116     -15523.613     -22061.423     -58.01715       61.089448     -191.0896       8.4839915      12.726         16.968         1831.9887    
        50   0             -1269.1873     -20319.285     -22279.7       -16898.251     -21779.902     -65.097555      78.967037     -179.87466      8.4839915      12.726         16.968         1831.9887    
        51   0             -1269.1882     -20568.278     -22257.178     -17994.991     -21452.666     -52.475544      82.45197      -174.38015      8.4839915      12.726         16.968         1831.9887    
        52   0             -1269.1892     -20733.432     -22065.783     -19124.247     -21010.266     -64.252285      98.257754     -156.0877       8.4839915      12.726         16.968         1831.9887    
        53   0             -1269.1896     -20740.613     -21867.284     -19619.635     -20734.921     -49.260959      99.295318     -158.08618      8.4839915      12.726         16.968         1831.9887    
        54   0             -1269.1899     -20651.119     -21593.537     -19900.03      -20459.789     -63.494087      105.18502     -143.32481      8.4839915      12.726         16.968         1831.9887    
        55   0             -1269.1902     -20441.438     -21122.25      -20159.057     -20043.006     -43.350681      106.32038     -147.53242      8.4839915      12.726         16.968         1831.9887    
        56   0             -1269.1906     -20135.996     -20507.077     -20372.172     -19528.739     -61.870195      110.56592     -126.20362      8.4839915      12.726         16.968         1831.9887    
        57   0             -1269.1908     -19890.336     -20054.365     -20447.161     -19169.482     -43.173924      112.34944     -131.40846      8.4839915      12.726         16.968         1831.9887    
        58   0             -1269.1909     -19665.063     -19682.435     -20421.341     -18891.413     -58.272098      111.53007     -117.38164      8.4839915      12.726         16.968         1831.9887    
        59   0             -1269.191      -19468.344     -19384.379     -20341.641     -18679.014     -42.854657      113.0882      -123.97745      8.4839915      12.726         16.968         1831.9887    
        60   0             -1269.1911     -19285.335     -19134.954     -20207.295     -18513.755     -56.692327      109.7973      -113.08809      8.4839915      12.726         16.968         1831.9887    
        61   0             -1269.1912     -18976.848     -18737.23      -19932.214     -18261.099     -40.748401      111.1307      -120.48149      8.4839915      12.726         16.968         1831.9887    
        62   0             -1269.1913     -18679.694     -18370.304     -19631.56      -18037.217     -52.678852      105.42591     -110.47609      8.4839915      12.726         16.968         1831.9887    
        63   0             -1269.1913     -18529.067     -18194.497     -19455.855     -17936.848     -42.133356      107.34508     -116.67189      8.4839915      12.726         16.968         1831.9887    
        64   0             -1269.1914     -18422.158     -18080.87      -19303.756     -17881.849     -49.591516      103.20937     -111.45603      8.4839915      12.726         16.968         1831.9887    
        65   0             -1269.1914     -18330.652     -17994.991     -19145.417     -17851.548     -42.355049      104.79549     -116.59329      8.4839915      12.726         16.968         1831.9887    
        66   0             -1269.1914     -18259.171     -17937.684     -18996.125     -17843.702     -48.397097      100.6181      -113.04148      8.4839915      12.726         16.968         1831.9887    
        67   0             -1269.1914     -18155.382     -17870.586     -18734.912     -17860.647     -42.254347      101.25117     -118.62007      8.4839915      12.726         16.968         1831.9887    
        68   0             -1269.1915     -18090.24      -17837.182     -18546.081     -17887.457     -47.303352      96.727735     -116.5444       8.4839915      12.726         16.968         1831.9887    
        69   0             -1269.1915     -18071.435     -17837.444     -18461.85      -17915.011     -44.418694      97.589696     -119.16581      8.4839915      12.726         16.968         1831.9887    
        70   0             -1269.1915     -18069.329     -17857.241     -18393.406     -17957.34      -46.963843      95.399284     -118.60093      8.4839915      12.726         16.968         1831.9887    
        71   0             -1269.1915     -18080.538     -17892.291     -18337.865     -18011.457     -45.235325      95.949821     -120.5321       8.4839915      12.726         16.968         1831.9887    
        72   0             -1269.1915     -18109.403     -17952.127     -18285.155     -18090.928     -47.322487      94.132016     -120.99595      8.4839915      12.726         16.968         1831.9887    
        73   0             -1269.1915     -18155.583     -18036.882     -18233.448     -18196.418     -46.243139      94.32768      -122.92705      8.4839915      12.726         16.968         1831.9887    
        74   0             -1269.1915     -18196.785     -18105.844     -18206.338     -18278.174     -47.584776      93.251317     -123.95285      8.4839915      12.726         16.968         1831.9887    
        75   0             -1269.1915     -18219.841     -18140.136     -18203.75      -18315.637     -47.242144      93.399118     -124.21471      8.4839915      12.726         16.968         1831.9887    
        76   0             -1269.1915     -18253.259     -18185.054     -18213.735     -18360.988     -47.784373      93.212806     -125.04796      8.4839915      12.726         16.968         1831.9887    
        77   0             -1269.1915     -18299.093     -18243.412     -18236.821     -18417.046     -47.907513      93.252753     -125.03912      8.4839915      12.726         16.968         1831.9887    
        78   0             -1269.1915     -18346.71      -18301.616     -18268.064     -18470.451     -48.114156      93.51581      -126.28567      8.4839915      12.726         16.968         1831.9887    
        79   0             -1269.1915     -18408.898     -18375.218     -18315.771     -18535.707     -48.645554      93.477356     -125.97219      8.4839915      12.726         16.968         1831.9887    
        80   0             -1269.1915     -18440.774     -18411.617     -18344.371     -18566.332     -48.432429      93.930756     -126.98425      8.4839915      12.726         16.968         1831.9887    
        81   0             -1269.1915     -18461.574     -18433.546     -18368.522     -18582.654     -48.905071      93.773746     -126.41487      8.4839915      12.726         16.968         1831.9887    
        82   0             -1269.1915     -18490.45      -18461.396     -18410.017     -18599.936     -48.2606        94.505131     -127.39242      8.4839915      12.726         16.968         1831.9887    
        83   0             -1269.1915     -18520.855     -18488.751     -18460.17      -18613.646     -49.208572      94.284145     -126.37287      8.4839915      12.726         16.968         1831.9887    
        84   0             -1269.1915     -18555.707     -18517.609     -18525.656     -18623.855     -47.882317      95.462542     -127.65833      8.4839915      12.726         16.968         1831.9887    
        85   0             -1269.1915     -18580.596     -18536.42      -18578.897     -18626.472     -49.189286      95.131053     -126.41628      8.4839915      12.726         16.968         1831.9887    
        86   0             -1269.1915     -18592.199     -18543.004     -18611.302     -18622.291     -47.718208      96.016839     -127.51108      8.4839915      12.726         16.968         1831.9887    
        87   0             -1269.1915     -18597.984     -18542.062     -18642.538     -18609.351     -49.194738      95.524801     -126.29318      8.4839915      12.726         16.968         1831.9887    
        88   0             -1269.1915     -18599.159     -18532.332     -18683.514     -18581.63      -46.655482      96.69403      -127.76155      8.4839915      12.726         16.968         1831.9887    
        89   0             -1269.1916     -18593.41      -18509.247     -18740.41      -18530.573     -48.942978      96.027434     -126.03602      8.4839915      12.726         16.968         1831.9887    
        90   0             -1269.1916     -18584.017     -18487.109     -18777.996     -18486.945     -45.521733      97.223047     -127.71795      8.4839915      12.726         16.968         1831.9887    
        91   0             -1269.1916     -18567.91      -18458.215     -18809.904     -18435.61      -47.83325       96.516214     -126.41556      8.4839915      12.726         16.968         1831.9887    
        92   0             -1269.1916     -18552.357     -18435.544     -18822.468     -18399.06      -44.950764      97.136027     -127.66263      8.4839915      12.726         16.968         1831.9887    
        93   0             -1269.1916     -18523.865     -18399.938     -18825.369     -18346.289     -47.651338      96.253257     -126.81501      8.4839915      12.726         16.968         1831.9887    
        94   0             -1269.1916     -18453.66      -18319.608     -18814.169     -18227.204     -42.448369      96.239443     -129.01234      8.4839915      12.726         16.968         1831.9887    
        95   0             -1269.1916     -18382.986     -18245.875     -18793.095     -18109.987     -46.507572      94.641869     -128.77758      8.4839915      12.726         16.968         1831.9887    
        96   0             -1269.1916     -18310.939     -18179.122     -18761.641     -17992.054     -41.385152      93.923957     -130.73985      8.4839915      12.726         16.968         1831.9887    
        97   0             -1269.1916     -18247.061     -18131.172     -18721.25      -17888.761     -44.204212      92.428094     -131.80168      8.4839915      12.726         16.968         1831.9887    
        98   0             -1269.1916     -18199.685     -18107.459     -18680.043     -17811.553     -40.348889      91.062045     -132.98194      8.4839915      12.726         16.968         1831.9887    
        99   0             -1269.1916     -18138.875     -18113.194     -18598.059     -17705.372     -42.266747      88.768292     -136.45376      8.4839915      12.726         16.968         1831.9887    
       100   0             -1269.1917     -18087.015     -18270.278     -18450.835     -17539.932     -37.194779      82.128469     -138.96523      8.4839915      12.726         16.968         1831.9887    
       101   0             -1269.1917     -18106.399     -18498.768     -18366.098     -17454.329     -37.02771       79.245961     -143.74658      8.4839915      12.726         16.968         1831.9887    
Loop time of 0.0345615 on 4 procs for 100 steps with 192 atoms

124.3% CPU use with 4 MPI tasks x 1 OpenMP threads

Minimization stats:
  Stopping criterion = max iterations
  Energy initial, next-to-last, final = 
     -1269.11999989022  -1269.19166819288  -1269.19170531437
  Force two-norm initial, final = 0.001873036 0.013506613
  Force max component initial, final = 0.00021070694 0.0018806431
  Final line search alpha, max atom move = 0.29551901 0.00055576577
  Iterations, force evaluations = 100 182

MPI task timing breakdown:
Section |  min time  |  avg time  |  max time  |%varavg| %total
---------------------------------------------------------------
Pair    | 0.028932   | 0.029117   | 0.029406   |   0.1 | 84.25
Neigh   | 0          | 0          | 0          |   0.0 |  0.00
Comm    | 0.003137   | 0.0033995  | 0.003615   |   0.3 |  9.84
Output  | 0.000974   | 0.0010295  | 0.001185   |   0.3 |  2.98
Modify  | 0          | 0          | 0          |   0.0 |  0.00
Other   |            | 0.001016   |            |       |  2.94

Nlocal:             48 ave          51 max          46 min
Histogram: 1 0 1 0 1 0 0 0 0 1
Nghost:            600 ave         602 max         597 min
Histogram: 1 0 0 0 0 0 1 0 1 1
Neighs:           1344 ave        1408 max        1276 min
Histogram: 1 0 0 1 0 0 1 0 0 1
FullNghs:         2688 ave        2856 max        2576 min
Histogram: 1 0 1 0 1 0 0 0 0 1

Total # of neighbors = 10752
Ave neighs/atom = 56
Neighbor list builds = 0
Dangerous builds = 0

# Obtain new stress tensor

variable tmp equal pxx
variable pxx1 equal ${tmp}
variable pxx1 equal -18498.7683497253
variable tmp equal pyy
variable pyy1 equal ${tmp}
variable pyy1 equal -18366.0983024259
variable tmp equal pzz
variable pzz1 equal ${tmp}
variable pzz1 equal -17454.3292653325
variable tmp equal pxy
variable pxy1 equal ${tmp}
variable pxy1 equal -37.0277097064459
variable tmp equal pxz
variable pxz1 equal ${tmp}
variable pxz1 equal 79.2459612863567
variable tmp equal pyz
variable pyz1 equal ${tmp}
variable pyz1 equal -143.746578519054

# Compute elastic constant from pressure tensor

variable C1neg equal ${d1}
variable C1neg equal -1849876.83497254
variable C2neg equal ${d2}
variable C2neg equal -1836609.83024258
variable C3neg equal ${d3}
variable C3neg equal -1745432.92653319
variable C4neg equal ${d4}
variable C4neg equal -14374.6578519054
variable C5neg equal ${d5}
variable C5neg equal 7924.59612863567
variable C6neg equal ${d6}
variable C6neg equal -3702.77097064459

# Reset box and simulation parameters

clear
  using 1 OpenMP thread(s) per MPI task
Loaded 1 plugins from C:\Program Files\LAMMPS 64-bit 23Jun2022\plugins
Loaded 0 plugins from C:\Program Files\LAMMPS 64-bit 23Jun2022-MPI\plugins
Loaded 1 plugins from C:\Program Files\LAMMPS 64-bit 22Dec2022-MSMPI\plugins
Loaded 1 plugins from C:\Program Files\LAMMPS 64-bit 28Mar2023-MPI\plugins
box tilt large

The 'box' command has been removed and will be ignored

read_restart restart.equil
Reading restart file ...
  restart file = 22 Dec 2022, LAMMPS = 22 Dec 2022
  restoring atom style atomic from restart
  triclinic box = (0.0057669986 0.0057669986 0.0057669986) to (8.489767 12.731767 16.973767) with tilt (0 0 0)
  1 by 2 by 2 MPI processor grid
  pair style meam stores no restart info
  192 atoms
  read_restart CPU = 0.000 seconds
include potential.mod
# NOTE: This script can be modified for different pair styles
# See in.elastic for more info.

# Choose potential
#-----------------------
#pair_style	sw
#pair_coeff * * Si.sw Si
#-----------------------
#pair_style morse	2.83994742	# D0[eV] a[1/A] r0[A] rc[A], 1NN for BCC
#pair_coeff 1 1	2.1173	1.0202	2.4595	2.6497	#	Fe-Fe
#-----------------------
#pair_style smatb # R0(A)   p       q     A(eV)   xi(eV)  Rcs(A)   Rc(A), 4NN: Rcs=4NN, Rc=(4NN+5NN)/2
#pair_coeff 1 1	2.4802	7.0149	2.3779	0.3144	3.0551	4.033	4.176	#	Co	Co
#-----------------------
#pair_style eam/alloy
#pair_coeff * * AlCrFeCoNi_Zhou04.eam.alloy Fe
#-----------------------
pair_style meam
pair_coeff * * ./../../library.meam Ti V Cr Fe N ./../../TiVCrFeN.meam Ti N
#-----------------------

# Setup neighbor style
neighbor 1.0 nsq
neigh_modify once no every 1 delay 0 check yes

# Setup minimization style
min_style	     cg
min_modify	     dmax ${dmax} line quadratic
min_modify	     dmax 0.01 line quadratic

# Setup output
thermo		1
thermo_style custom step temp pe press pxx pyy pzz pxy pxz pyz lx ly lz vol
thermo_modify norm no

# Positive deformation

variable delta equal ${up}*${len0}
variable delta equal 1e-06*${len0}
variable delta equal 1e-06*8.4840000054275
variable deltaxy equal ${up}*xy
variable deltaxy equal 1e-06*xy
variable deltaxz equal ${up}*xz
variable deltaxz equal 1e-06*xz
variable deltayz equal ${up}*yz
variable deltayz equal 1e-06*yz
if "${dir} == 1" then    "change_box all x delta 0 ${delta} xy delta ${deltaxy} xz delta ${deltaxz} remap units box"
change_box all x delta 0 ${delta} xy delta ${deltaxy} xz delta ${deltaxz} remap units box
change_box all x delta 0 8.4840000054275e-06 xy delta ${deltaxy} xz delta ${deltaxz} remap units box
change_box all x delta 0 8.4840000054275e-06 xy delta 0 xz delta ${deltaxz} remap units box
change_box all x delta 0 8.4840000054275e-06 xy delta 0 xz delta 0 remap units box
Changing box ...
  triclinic box = (0.0057669986 0.0057669986 0.0057669986) to (8.4897755 12.731767 16.973767) with tilt (0 0 0)
  triclinic box = (0.0057669986 0.0057669986 0.0057669986) to (8.4897755 12.731767 16.973767) with tilt (0 0 0)
  triclinic box = (0.0057669986 0.0057669986 0.0057669986) to (8.4897755 12.731767 16.973767) with tilt (0 0 0)
if "${dir} == 2" then    "change_box all y delta 0 ${delta} yz delta ${deltayz} remap units box"
if "${dir} == 3" then    "change_box all z delta 0 ${delta} remap units box"
if "${dir} == 4" then    "change_box all yz delta ${delta} remap units box"
if "${dir} == 5" then    "change_box all xz delta ${delta} remap units box"
if "${dir} == 6" then    "change_box all xy delta ${delta} remap units box"

# Relax atoms positions

minimize ${etol} ${ftol} ${maxiter} ${maxeval}
minimize 0 ${ftol} ${maxiter} ${maxeval}
minimize 0 1e-10 ${maxiter} ${maxeval}
minimize 0 1e-10 100 ${maxeval}
minimize 0 1e-10 100 1000
Neighbor list info ...
  update: every = 1 steps, delay = 0 steps, check = yes
  max neighbors/atom: 2000, page size: 100000
  master list distance cutoff = 5
  ghost atom cutoff = 5
  2 neighbor lists, perpetual/occasional/extra = 2 0 0
  (1) pair meam, perpetual
      attributes: full, newton on
      pair build: full/nsq
      stencil: none
      bin: none
  (2) pair meam, perpetual, half/full from (1)
      attributes: half, newton on
      pair build: halffull/newton
      stencil: none
      bin: none
Per MPI rank memory allocation (min/avg/max) = 9.858 | 9.863 | 9.868 Mbytes
   Step          Temp          PotEng         Press           Pxx            Pyy            Pzz            Pxy            Pxz            Pyz             Lx             Ly             Lz           Volume    
         1   0             -1269.12       -2.8754847     -6.609963      -1.008233      -1.0082579     -3.9753739e-06  4.5735488e-06 -1.0303525e-05  8.4840085      12.726         16.968         1831.9924    
         2   0             -1269.12       -2.8757911     -6.6102945     -1.008544      -1.0085346     -5.4514856e-07 -3.8565903e-07  6.9830361e-07  8.4840085      12.726         16.968         1831.9924    
         3   0             -1269.12       -2.875802      -6.6102981     -1.0085555     -1.0085524      3.2942283e-07  1.3583495e-08 -4.0202786e-08  8.4840085      12.726         16.968         1831.9924    
         4   0             -1269.12       -2.8758035     -6.6102954     -1.008556      -1.0085591     -3.2858478e-07 -5.5965945e-08  7.1211742e-09  8.4840085      12.726         16.968         1831.9924    
         5   0             -1269.12       -2.8758036     -6.610295      -1.008555      -1.0085609     -8.1725369e-08 -6.093707e-08  -5.9273054e-08  8.4840085      12.726         16.968         1831.9924    
         6   0             -1269.12       -2.8758036     -6.6102949     -1.0085549     -1.0085609     -1.0530726e-07 -1.3355704e-08 -2.2752028e-08  8.4840085      12.726         16.968         1831.9924    
         7   0             -1269.12       -2.8758034     -6.6102947     -1.0085547     -1.0085608     -6.7629647e-08 -1.4553952e-08 -5.5662912e-08  8.4840085      12.726         16.968         1831.9924    
         8   0             -1269.12       -2.8758032     -6.6102945     -1.0085545     -1.0085605     -1.0184403e-07 -2.5042729e-08 -3.4652272e-08  8.4840085      12.726         16.968         1831.9924    
         9   0             -1269.12       -2.8758016     -6.6102931     -1.0085525     -1.0085592     -5.7659129e-08  2.0346696e-10 -1.0200799e-07  8.4840085      12.726         16.968         1831.9924    
        10   0             -1269.12       -2.875801      -6.6102931     -1.00855       -1.0085598     -1.7974752e-07 -5.9374715e-08 -6.2406272e-08  8.4840085      12.726         16.968         1831.9924    
        11   0             -1269.12       -2.875804      -6.6102967     -1.0085508     -1.0085646     -9.9692355e-08 -3.3496323e-08 -2.5424585e-07  8.4840085      12.726         16.968         1831.9924    
        12   0             -1269.12       -2.8758062     -6.6102991     -1.0085518     -1.0085676     -1.4947079e-07 -5.5738682e-08 -2.2385865e-07  8.4840085      12.726         16.968         1831.9924    
        13   0             -1269.12       -2.8758075     -6.6103005     -1.0085524     -1.0085697     -1.2390087e-07 -2.3644854e-08 -3.1368325e-07  8.4840085      12.726         16.968         1831.9924    
        14   0             -1269.12       -2.8758101     -6.6103032     -1.0085536     -1.0085735     -1.7908952e-07 -4.8635294e-08 -2.9569812e-07  8.4840085      12.726         16.968         1831.9924    
        15   0             -1269.12       -2.8758327     -6.6103261     -1.008564      -1.0086081     -8.5044322e-08  1.9949672e-08 -9.0400413e-07  8.4840085      12.726         16.968         1831.9924    
        16   0             -1269.12       -2.878122      -6.6125446     -1.009703      -1.0121185     -3.4045385e-06 -1.9991056e-06 -3.8705843e-05  8.4840085      12.726         16.968         1831.9924    
        17   0             -1269.12       -6.0293524     -9.6341985     -2.6096165     -5.8442422     -0.0068477865  -0.0033997741  -0.046665406    8.4840085      12.726         16.968         1831.9924    
        18   0             -1269.1202     -80.862129     -81.368599     -40.629364     -120.58843     -0.18044039    -0.086629418   -1.1513259      8.4840085      12.726         16.968         1831.9924    
        19   0             -1269.1207     -255.20599     -248.49097     -129.27566     -387.85134     -0.62033445    -0.28799352    -3.7253176      8.4840085      12.726         16.968         1831.9924    
        20   0             -1269.1215     -528.95885     -510.91283     -268.6536      -807.31011     -1.375752      -0.61531714    -7.7690077      8.4840085      12.726         16.968         1831.9924    
        21   0             -1269.1224     -901.96376     -868.49711     -458.93171     -1378.4625     -2.5020702     -1.0742747     -13.282945      8.4840085      12.726         16.968         1831.9924    
        22   0             -1269.1235     -1374.0517     -1321.0831     -700.37368     -2100.6982     -4.0547563     -1.6649281     -20.270334      8.4840085      12.726         16.968         1831.9924    
        23   0             -1269.1248     -1945.2998     -1868.6512     -993.52173     -2973.7265     -6.0530192     -2.3615683     -28.751225      8.4840085      12.726         16.968         1831.9924    
        24   0             -1269.1264     -2616.6384     -2511.3447     -1339.8215     -3998.7491     -8.1971292     -2.9653379     -38.84673       8.4840085      12.726         16.968         1831.9924    
        25   0             -1269.1315     -3375.0039     -3229.2299     -1731.6259     -5164.156      -5.2521321     -1.0577169     -51.853007      8.4840085      12.726         16.968         1831.9924    
        26   0             -1269.133      -3553.1268     -3404.8112     -1802.9277     -5451.6416     -11.870663     -4.0413437     -52.6541        8.4840085      12.726         16.968         1831.9924    
        27   0             -1269.1343     -3850.1119     -3711.3325     -1913.5427     -5925.4604     -7.0311991     -3.8140575     -60.991046      8.4840085      12.726         16.968         1831.9924    
        28   0             -1269.1368     -4373.3596     -4257.7907     -2099.9234     -6762.3648     -11.476765     -3.6487854     -64.671866      8.4840085      12.726         16.968         1831.9924    
        29   0             -1269.1413     -5040.1372     -4956.6556     -2337.1415     -7826.6144     -12.476757     -4.1543166     -78.738187      8.4840085      12.726         16.968         1831.9924    
        30   0             -1269.1433     -5107.0112     -5024.9216     -2363.5965     -7932.5156     -10.293452     -5.0971641     -84.368301      8.4840085      12.726         16.968         1831.9924    
        31   0             -1269.1447     -5248.1596     -5183.6584     -2407.9725     -8152.8479     -17.116461     -4.6597624     -81.569484      8.4840085      12.726         16.968         1831.9924    
        32   0             -1269.1457     -5455.7052     -5419.9526     -2486.2258     -8460.9371     -6.5687959      0.097384261   -95.461272      8.4840085      12.726         16.968         1831.9924    
        33   0             -1269.1492     -6114.8139     -6174.4456     -2737.0005     -9432.9954     -19.540701     -4.6309287     -96.74965       8.4840085      12.726         16.968         1831.9924    
        34   0             -1269.1538     -6897.0221     -7058.9247     -3059.3872     -10572.754     -15.179725     -1.4212483     -111.62393      8.4840085      12.726         16.968         1831.9924    
        35   0             -1269.1584     -7771.6274     -8054.3216     -3447.9628     -11812.598     -21.334602     -3.2147804     -124.59555      8.4840085      12.726         16.968         1831.9924    
        36   0             -1269.16       -7940.0346     -8251.8594     -3529.4666     -12038.778     -25.302861     -4.0415784     -123.51275      8.4840085      12.726         16.968         1831.9924    
        37   0             -1269.161      -8246.9498     -8616.6603     -3692.9769     -12431.212     -20.203766     -0.96687601    -133.65201      8.4840085      12.726         16.968         1831.9924    
        38   0             -1269.1631     -9054.9543     -9593.36       -4142.4101     -13429.093     -36.796314     -4.1314328     -129.6254       8.4840085      12.726         16.968         1831.9924    
        39   0             -1269.1667     -10351.504     -11159.749     -4908.907      -14985.855     -24.464934      5.2758525     -159.10569      8.4840085      12.726         16.968         1831.9924    
        40   0             -1269.1713     -11757.132     -12856.905     -5790.193      -16624.298     -49.552809     -0.79246983    -159.60449      8.4840085      12.726         16.968         1831.9924    
        41   0             -1269.1746     -13276.302     -14701.925     -6820.6028     -18306.378     -33.893976      12.339022     -188.55204      8.4840085      12.726         16.968         1831.9924    
        42   0             -1269.1761     -14196.459     -15823.759     -7510.0051     -19255.614     -56.1618        6.716551      -188.4101       8.4840085      12.726         16.968         1831.9924    
        43   0             -1269.1775     -15137.829     -16969.215     -8320.127      -20124.145     -44.906809      17.76081      -198.29513      8.4840085      12.726         16.968         1831.9924    
        44   0             -1269.1791     -16231.748     -18290.095     -9379.7432     -21025.407     -59.8738        19.33336      -205.50842      8.4840085      12.726         16.968         1831.9924    
        45   0             -1269.1802     -16943.218     -19129.82      -10207.949     -21491.887     -58.193845      25.333784     -201.85063      8.4840085      12.726         16.968         1831.9924    
        46   0             -1269.1814     -17741.693     -20029.657     -11334.657     -21860.764     -59.528742      34.530211     -212.59472      8.4840085      12.726         16.968         1831.9924    
        47   0             -1269.1835     -18912.85      -21271.752     -13231.472     -22235.327     -63.549055      42.856018     -198.32255      8.4840085      12.726         16.968         1831.9924    
        48   0             -1269.1847     -19445.872     -21764.93      -14299.228     -22273.457     -60.076389      57.893871     -204.03013      8.4840085      12.726         16.968         1831.9924    
        49   0             -1269.1861     -20101.393     -22256.465     -15908.706     -22139.01      -62.413679      63.002911     -187.85043      8.4840085      12.726         16.968         1831.9924    
        50   0             -1269.1874     -20574.276     -22499.057     -17336.411     -21887.361     -60.951706      82.07541      -180.76732      8.4840085      12.726         16.968         1831.9924    
        51   0             -1269.1881     -20771.337     -22480.831     -18216.038     -21617.142     -57.074902      84.200917     -174.99935      8.4840085      12.726         16.968         1831.9924    
        52   0             -1269.1889     -20850.001     -22260.513     -19081.29      -21208.201     -61.016889      98.03034      -159.65967      8.4840085      12.726         16.968         1831.9924    
        53   0             -1269.1894     -20815.04      -22004.611     -19556.314     -20884.195     -51.933685      97.431211     -161.0369       8.4840085      12.726         16.968         1831.9924    
        54   0             -1269.1898     -20659.568     -21554.276     -19997.202     -20427.227     -61.937891      107.7526      -140.63782      8.4840085      12.726         16.968         1831.9924    
        55   0             -1269.1902     -20447.484     -21053.999     -20323.506     -19964.945     -45.773997      106.51282     -146.38089      8.4840085      12.726         16.968         1831.9924    
        56   0             -1269.1905     -20206.616     -20557.972     -20525.348     -19536.528     -57.685419      112.87127     -126.69505      8.4840085      12.726         16.968         1831.9924    
        57   0             -1269.1907     -20018.835     -20223.166     -20563.552     -19269.787     -45.674821      112.13824     -132.57589      8.4840085      12.726         16.968         1831.9924    
        58   0             -1269.1908     -19775.533     -19838.689     -20503.706     -18984.204     -57.019892      113.09306     -117.84643      8.4840085      12.726         16.968         1831.9924    
        59   0             -1269.1909     -19474.522     -19392.38      -20365.588     -18665.599     -42.991759      112.52278     -125.13236      8.4840085      12.726         16.968         1831.9924    
        60   0             -1269.191      -19236.008     -19063.473     -20201.506     -18443.045     -55.721294      110.86734     -111.19133      8.4840085      12.726         16.968         1831.9924    
        61   0             -1269.1912     -18923.037     -18652.298     -19941.868     -18174.944     -42.226611      110.46006     -119.31042      8.4840085      12.726         16.968         1831.9924    
        62   0             -1269.1912     -18733.105     -18416.809     -19752.575     -18029.932     -50.638741      107.52828     -110.59281      8.4840085      12.726         16.968         1831.9924    
        63   0             -1269.1913     -18606.165     -18273.049     -19594.789     -17950.657     -42.842221      108.05931     -116.58506      8.4840085      12.726         16.968         1831.9924    
        64   0             -1269.1913     -18460.47      -18121.518     -19380.698     -17879.194     -49.401217      104.18128     -110.77891      8.4840085      12.726         16.968         1831.9924    
        65   0             -1269.1913     -18319.694     -17987.124     -19143.995     -17827.964     -42.907956      104.48793     -116.40738      8.4840085      12.726         16.968         1831.9924    
        66   0             -1269.1914     -18217.373     -17898.441     -18947.665     -17806.012     -47.35966       100.6146      -113.25588      8.4840085      12.726         16.968         1831.9924    
        67   0             -1269.1914     -18130.97      -17834.745     -18749.892     -17808.274     -44.021496      100.70983     -116.7483       8.4840085      12.726         16.968         1831.9924    
        68   0             -1269.1914     -18085.375     -17810.088     -18619.9       -17826.136     -46.129364      97.874749     -116.10857      8.4840085      12.726         16.968         1831.9924    
        69   0             -1269.1914     -18069.476     -17813.813     -18537.232     -17857.382     -44.990705      98.341482     -117.52678      8.4840085      12.726         16.968         1831.9924    
        70   0             -1269.1914     -18063.977     -17845.419     -18417.438     -17929.075     -46.092007      95.650704     -118.83791      8.4840085      12.726         16.968         1831.9924    
        71   0             -1269.1914     -18071.716     -17886.61      -18326.877     -18001.662     -45.978683      95.82203      -119.73656      8.4840085      12.726         16.968         1831.9924    
        72   0             -1269.1915     -18092.193     -17937.643     -18262.014     -18076.923     -46.208652      94.055836     -121.81933      8.4840085      12.726         16.968         1831.9924    
        73   0             -1269.1915     -18120.325     -17993.15      -18217.326     -18150.499     -46.893247      94.176335     -121.71124      8.4840085      12.726         16.968         1831.9924    
        74   0             -1269.1915     -18148.817     -18040.32      -18198.562     -18207.569     -46.593641      93.389174     -123.71881      8.4840085      12.726         16.968         1831.9924    
        75   0             -1269.1915     -18181.253     -18087.873     -18195.878     -18260.009     -47.653715      93.515729     -122.76699      8.4840085      12.726         16.968         1831.9924    
        76   0             -1269.1915     -18238.478     -18166.548     -18206.258     -18342.628     -46.947453      93.169095     -125.60939      8.4840085      12.726         16.968         1831.9924    
        77   0             -1269.1915     -18291.07      -18236.023     -18224.16      -18413.027     -48.468362      93.150155     -124.41849      8.4840085      12.726         16.968         1831.9924    
        78   0             -1269.1915     -18329.542     -18284.455     -18244.525     -18459.645     -47.510463      93.303025     -126.63147      8.4840085      12.726         16.968         1831.9924    
        79   0             -1269.1915     -18372.963     -18336.53      -18274.889     -18507.469     -48.855027      93.222366     -125.51244      8.4840085      12.726         16.968         1831.9924    
        80   0             -1269.1915     -18400.032     -18367.332     -18299.009     -18533.756     -48.007722      93.617074     -126.90845      8.4840085      12.726         16.968         1831.9924    
        81   0             -1269.1915     -18437.111     -18406.843     -18340.036     -18564.454     -49.12243       93.523665     -126.05853      8.4840085      12.726         16.968         1831.9924    
        82   0             -1269.1915     -18481.209     -18451.773     -18395.227     -18596.628     -48.090685      94.390671     -127.26788      8.4840085      12.726         16.968         1831.9924    
        83   0             -1269.1915     -18513.516     -18483.228     -18440.601     -18616.718     -49.228878      94.17684      -126.57501      8.4840085      12.726         16.968         1831.9924    
        84   0             -1269.1915     -18540.803     -18507.66      -18485.698     -18629.052     -48.253681      95.027175     -127.16905      8.4840085      12.726         16.968         1831.9924    
        85   0             -1269.1915     -18559.401     -18522.5       -18522.824     -18632.88      -49.181767      94.732547     -126.81108      8.4840085      12.726         16.968         1831.9924    
        86   0             -1269.1915     -18574.561     -18531.815     -18562.514     -18629.353     -48.072156      95.637885     -127.00796      8.4840085      12.726         16.968         1831.9924    
        87   0             -1269.1915     -18588.342     -18536.135     -18613.332     -18615.559     -49.108009      95.234017     -126.89122      8.4840085      12.726         16.968         1831.9924    
        88   0             -1269.1915     -18598.678     -18534.962     -18667.767     -18593.304     -47.477263      96.490548     -126.72566      8.4840085      12.726         16.968         1831.9924    
        89   0             -1269.1915     -18601.933     -18527.541     -18710.875     -18567.383     -48.36551       96.045868     -126.93199      8.4840085      12.726         16.968         1831.9924    
        90   0             -1269.1915     -18598.867     -18516.251     -18738.423     -18541.926     -47.021098      96.897146     -126.51843      8.4840085      12.726         16.968         1831.9924    
        91   0             -1269.1915     -18586.635     -18492.255     -18769.674     -18497.976     -47.5404        96.502271     -127.05155      8.4840085      12.726         16.968         1831.9924    
        92   0             -1269.1915     -18569.415     -18465.563     -18788.225     -18454.457     -46.368687      96.953238     -126.42836      8.4840085      12.726         16.968         1831.9924    
        93   0             -1269.1915     -18532.595     -18414.774     -18807.456     -18375.556     -46.47654       96.523526     -127.67271      8.4840085      12.726         16.968         1831.9924    
        94   0             -1269.1915     -18488.677     -18358.636     -18818.055     -18289.338     -45.229094      96.408245     -126.76421      8.4840085      12.726         16.968         1831.9924    
        95   0             -1269.1915     -18455.235     -18319.646     -18816.425     -18229.634     -45.108534      96.153667     -128.48932      8.4840085      12.726         16.968         1831.9924    
        96   0             -1269.1915     -18410.051     -18271.942     -18801.13      -18157.079     -44.471544      95.324519     -127.58824      8.4840085      12.726         16.968         1831.9924    
        97   0             -1269.1915     -18353.055     -18218.502     -18768.669     -18071.994     -43.602529      94.928641     -130.55858      8.4840085      12.726         16.968         1831.9924    
        98   0             -1269.1916     -18284.115     -18163.471     -18716.878     -17971.997     -43.45146       92.679575     -129.73483      8.4840085      12.726         16.968         1831.9924    
        99   0             -1269.1916     -18181.539     -18106.637     -18618.264     -17819.717     -40.928894      91.321395     -135.04859      8.4840085      12.726         16.968         1831.9924    
       100   0             -1269.1916     -18079.503     -18104.278     -18491.703     -17642.528     -41.286908      85.822        -135.75525      8.4840085      12.726         16.968         1831.9924    
       101   0             -1269.1916     -18037.883     -18159.871     -18410.378     -17543.399     -38.036236      84.863597     -139.98209      8.4840085      12.726         16.968         1831.9924    
Loop time of 0.035793 on 4 procs for 100 steps with 192 atoms

65.5% CPU use with 4 MPI tasks x 1 OpenMP threads

Minimization stats:
  Stopping criterion = max iterations
  Energy initial, next-to-last, final = 
     -1269.11999989022    -1269.191591609  -1269.19161112789
  Force two-norm initial, final = 0.0018730201 0.013409633
  Force max component initial, final = 0.00021070725 0.0019973134
  Final line search alpha, max atom move = 0.58095727 0.0011603538
  Iterations, force evaluations = 100 182

MPI task timing breakdown:
Section |  min time  |  avg time  |  max time  |%varavg| %total
---------------------------------------------------------------
Pair    | 0.02986    | 0.030148   | 0.030496   |   0.1 | 84.23
Neigh   | 0          | 0          | 0          |   0.0 |  0.00
Comm    | 0.003231   | 0.003533   | 0.00384    |   0.4 |  9.87
Output  | 0.000983   | 0.0010392  | 0.001163   |   0.2 |  2.90
Modify  | 0          | 0          | 0          |   0.0 |  0.00
Other   |            | 0.001073   |            |       |  3.00

Nlocal:             48 ave          51 max          46 min
Histogram: 1 0 1 0 1 0 0 0 0 1
Nghost:            600 ave         602 max         597 min
Histogram: 1 0 0 0 0 0 1 0 1 1
Neighs:           1344 ave        1408 max        1276 min
Histogram: 1 0 0 1 0 0 1 0 0 1
FullNghs:         2688 ave        2856 max        2576 min
Histogram: 1 0 1 0 1 0 0 0 0 1

Total # of neighbors = 10752
Ave neighs/atom = 56
Neighbor list builds = 0
Dangerous builds = 0

# Obtain new stress tensor

variable tmp equal pe
variable e1 equal ${tmp}
variable e1 equal -1269.19161112789
variable tmp equal press
variable p1 equal ${tmp}
variable p1 equal -18037.8827173229
variable tmp equal pxx
variable pxx1 equal ${tmp}
variable pxx1 equal -18159.8714138217
variable tmp equal pyy
variable pyy1 equal ${tmp}
variable pyy1 equal -18410.3781015883
variable tmp equal pzz
variable pzz1 equal ${tmp}
variable pzz1 equal -17543.3986365586
variable tmp equal pxy
variable pxy1 equal ${tmp}
variable pxy1 equal -38.0362364426488
variable tmp equal pxz
variable pxz1 equal ${tmp}
variable pxz1 equal 84.8635974557064
variable tmp equal pyz
variable pyz1 equal ${tmp}
variable pyz1 equal -139.982090266952

# Compute elastic constant from pressure tensor

variable C1pos equal ${d1}
variable C1pos equal 1815987.14138218
variable C2pos equal ${d2}
variable C2pos equal 1841037.81015882
variable C3pos equal ${d3}
variable C3pos equal 1754339.8636558
variable C4pos equal ${d4}
variable C4pos equal 13998.2090266952
variable C5pos equal ${d5}
variable C5pos equal -8486.35974557064
variable C6pos equal ${d6}
variable C6pos equal 3803.62364426488

# Combine positive and negative

variable C1${dir} equal 0.5*(${C1neg}+${C1pos})
variable C11 equal 0.5*(${C1neg}+${C1pos})
variable C11 equal 0.5*(-1849876.83497254+${C1pos})
variable C11 equal 0.5*(-1849876.83497254+1815987.14138218)
variable C2${dir} equal 0.5*(${C2neg}+${C2pos})
variable C21 equal 0.5*(${C2neg}+${C2pos})
variable C21 equal 0.5*(-1836609.83024258+${C2pos})
variable C21 equal 0.5*(-1836609.83024258+1841037.81015882)
variable C3${dir} equal 0.5*(${C3neg}+${C3pos})
variable C31 equal 0.5*(${C3neg}+${C3pos})
variable C31 equal 0.5*(-1745432.92653319+${C3pos})
variable C31 equal 0.5*(-1745432.92653319+1754339.8636558)
variable C4${dir} equal 0.5*(${C4neg}+${C4pos})
variable C41 equal 0.5*(${C4neg}+${C4pos})
variable C41 equal 0.5*(-14374.6578519054+${C4pos})
variable C41 equal 0.5*(-14374.6578519054+13998.2090266952)
variable C5${dir} equal 0.5*(${C5neg}+${C5pos})
variable C51 equal 0.5*(${C5neg}+${C5pos})
variable C51 equal 0.5*(7924.59612863567+${C5pos})
variable C51 equal 0.5*(7924.59612863567+-8486.35974557064)
variable C6${dir} equal 0.5*(${C6neg}+${C6pos})
variable C61 equal 0.5*(${C6neg}+${C6pos})
variable C61 equal 0.5*(-3702.77097064459+${C6pos})
variable C61 equal 0.5*(-3702.77097064459+3803.62364426488)

# Delete dir to make sure it is not reused

variable dir delete

# uyy Perturbation

variable dir equal 2
include displace.mod
# NOTE: This script should not need to be
# modified. See in.elastic for more info.
#
# Find which reference length to use

if "${dir} == 1" then    "variable len0 equal ${lx0}"
if "${dir} == 2" then    "variable len0 equal ${ly0}"
variable len0 equal ${ly0}
variable len0 equal 12.7260000081412
if "${dir} == 3" then    "variable len0 equal ${lz0}"
if "${dir} == 4" then    "variable len0 equal ${lz0}"
if "${dir} == 5" then    "variable len0 equal ${lz0}"
if "${dir} == 6" then    "variable len0 equal ${ly0}"

# Reset box and simulation parameters

clear
  using 1 OpenMP thread(s) per MPI task
Loaded 1 plugins from C:\Program Files\LAMMPS 64-bit 23Jun2022\plugins
Loaded 0 plugins from C:\Program Files\LAMMPS 64-bit 23Jun2022-MPI\plugins
Loaded 1 plugins from C:\Program Files\LAMMPS 64-bit 22Dec2022-MSMPI\plugins
Loaded 1 plugins from C:\Program Files\LAMMPS 64-bit 28Mar2023-MPI\plugins
box tilt large

The 'box' command has been removed and will be ignored

read_restart restart.equil
Reading restart file ...
  restart file = 22 Dec 2022, LAMMPS = 22 Dec 2022
  restoring atom style atomic from restart
  triclinic box = (0.0057669986 0.0057669986 0.0057669986) to (8.489767 12.731767 16.973767) with tilt (0 0 0)
  1 by 2 by 2 MPI processor grid
  pair style meam stores no restart info
  192 atoms
  read_restart CPU = 0.000 seconds
include potential.mod
# NOTE: This script can be modified for different pair styles
# See in.elastic for more info.

# Choose potential
#-----------------------
#pair_style	sw
#pair_coeff * * Si.sw Si
#-----------------------
#pair_style morse	2.83994742	# D0[eV] a[1/A] r0[A] rc[A], 1NN for BCC
#pair_coeff 1 1	2.1173	1.0202	2.4595	2.6497	#	Fe-Fe
#-----------------------
#pair_style smatb # R0(A)   p       q     A(eV)   xi(eV)  Rcs(A)   Rc(A), 4NN: Rcs=4NN, Rc=(4NN+5NN)/2
#pair_coeff 1 1	2.4802	7.0149	2.3779	0.3144	3.0551	4.033	4.176	#	Co	Co
#-----------------------
#pair_style eam/alloy
#pair_coeff * * AlCrFeCoNi_Zhou04.eam.alloy Fe
#-----------------------
pair_style meam
pair_coeff * * ./../../library.meam Ti V Cr Fe N ./../../TiVCrFeN.meam Ti N
#-----------------------

# Setup neighbor style
neighbor 1.0 nsq
neigh_modify once no every 1 delay 0 check yes

# Setup minimization style
min_style	     cg
min_modify	     dmax ${dmax} line quadratic
min_modify	     dmax 0.01 line quadratic

# Setup output
thermo		1
thermo_style custom step temp pe press pxx pyy pzz pxy pxz pyz lx ly lz vol
thermo_modify norm no

# Negative deformation

variable delta equal -${up}*${len0}
variable delta equal -1e-06*${len0}
variable delta equal -1e-06*12.7260000081412
variable deltaxy equal -${up}*xy
variable deltaxy equal -1e-06*xy
variable deltaxz equal -${up}*xz
variable deltaxz equal -1e-06*xz
variable deltayz equal -${up}*yz
variable deltayz equal -1e-06*yz
if "${dir} == 1" then    "change_box all x delta 0 ${delta} xy delta ${deltaxy} xz delta ${deltaxz} remap units box"
if "${dir} == 2" then    "change_box all y delta 0 ${delta} yz delta ${deltayz} remap units box"
change_box all y delta 0 ${delta} yz delta ${deltayz} remap units box
change_box all y delta 0 -1.27260000081412e-05 yz delta ${deltayz} remap units box
change_box all y delta 0 -1.27260000081412e-05 yz delta -0 remap units box
Changing box ...
  triclinic box = (0.0057669986 0.0057669986 0.0057669986) to (8.489767 12.731754 16.973767) with tilt (0 0 0)
  triclinic box = (0.0057669986 0.0057669986 0.0057669986) to (8.489767 12.731754 16.973767) with tilt (0 0 0)
if "${dir} == 3" then    "change_box all z delta 0 ${delta} remap units box"
if "${dir} == 4" then    "change_box all yz delta ${delta} remap units box"
if "${dir} == 5" then    "change_box all xz delta ${delta} remap units box"
if "${dir} == 6" then    "change_box all xy delta ${delta} remap units box"

# Relax atoms positions

minimize ${etol} ${ftol} ${maxiter} ${maxeval}
minimize 0 ${ftol} ${maxiter} ${maxeval}
minimize 0 1e-10 ${maxiter} ${maxeval}
minimize 0 1e-10 100 ${maxeval}
minimize 0 1e-10 100 1000
Neighbor list info ...
  update: every = 1 steps, delay = 0 steps, check = yes
  max neighbors/atom: 2000, page size: 100000
  master list distance cutoff = 5
  ghost atom cutoff = 5
  2 neighbor lists, perpetual/occasional/extra = 2 0 0
  (1) pair meam, perpetual
      attributes: full, newton on
      pair build: full/nsq
      stencil: none
      bin: none
  (2) pair meam, perpetual, half/full from (1)
      attributes: half, newton on
      pair build: halffull/newton
      stencil: none
      bin: none
Per MPI rank memory allocation (min/avg/max) = 9.858 | 9.863 | 9.868 Mbytes
   Step          Temp          PotEng         Press           Pxx            Pyy            Pzz            Pxy            Pxz            Pyz             Lx             Ly             Lz           Volume    
         1   0             -1269.12        2.8761167      1.0088537      6.6106747      1.0088219     -3.9754187e-06  4.5736187e-06 -1.0303632e-05  8.484          12.725987      16.968         1831.9887    
         2   0             -1269.12        2.8758103      1.0085222      6.6103637      1.0085452     -5.4516748e-07 -3.8572573e-07  6.983263e-07   8.484          12.725987      16.968         1831.9887    
         3   0             -1269.12        2.8757994      1.0085186      6.6103522      1.0085274      3.294262e-07   1.3614015e-08 -4.0182144e-08  8.484          12.725987      16.968         1831.9887    
         4   0             -1269.12        2.8757979      1.0085213      6.6103517      1.0085207     -3.2859477e-07 -5.5982525e-08  7.1052365e-09  8.484          12.725987      16.968         1831.9887    
         5   0             -1269.12        2.8757978      1.0085217      6.6103527      1.0085189     -8.1725738e-08 -6.0935173e-08 -5.9262414e-08  8.484          12.725987      16.968         1831.9887    
         6   0             -1269.12        2.8757978      1.0085218      6.6103528      1.0085189     -1.0531478e-07 -1.3363754e-08 -2.2762167e-08  8.484          12.725987      16.968         1831.9887    
         7   0             -1269.12        2.875798       1.008522       6.610353       1.008519      -6.7632401e-08 -1.4555416e-08 -5.5656832e-08  8.484          12.725987      16.968         1831.9887    
         8   0             -1269.12        2.8757982      1.0085222      6.6103532      1.0085192     -1.0184931e-07 -2.504768e-08  -3.4666487e-08  8.484          12.725987      16.968         1831.9887    
         9   0             -1269.12        2.8757998      1.0085236      6.6103552      1.0085205     -5.7662455e-08  2.042329e-10  -1.0197333e-07  8.484          12.725987      16.968         1831.9887    
        10   0             -1269.12        2.8758004      1.0085236      6.6103577      1.00852       -1.7985456e-07 -5.9426667e-08 -6.254131e-08   8.484          12.725987      16.968         1831.9887    
        11   0             -1269.12        2.8757973      1.00852        6.6103569      1.0085152     -9.974466e-08  -3.3507446e-08 -2.5441167e-07  8.484          12.725987      16.968         1831.9887    
        12   0             -1269.12        2.8757952      1.0085176      6.6103559      1.0085121     -1.4962908e-07 -5.583869e-08  -2.2418904e-07  8.484          12.725987      16.968         1831.9887    
        13   0             -1269.12        2.8757938      1.0085162      6.6103552      1.0085101     -1.2399557e-07 -2.3656358e-08 -3.1400605e-07  8.484          12.725987      16.968         1831.9887    
        14   0             -1269.12        2.8757913      1.0085135      6.6103541      1.0085063     -1.7933661e-07 -4.8761681e-08 -2.9622555e-07  8.484          12.725987      16.968         1831.9887    
        15   0             -1269.12        2.8757686      1.0084905      6.6103437      1.0084715     -8.4852714e-08  2.0316835e-08 -9.0514579e-07  8.484          12.725987      16.968         1831.9887    
        16   0             -1269.12        2.87347        1.0062621      6.6091995      1.0049485     -3.4070715e-06 -2.0028447e-06 -3.8885235e-05  8.484          12.725987      16.968         1831.9887    
        17   0             -1269.12       -0.30166127    -2.0395739      4.9964642     -3.8618742     -0.006891517   -0.0034281896  -0.04707592     8.484          12.725987      16.968         1831.9887    
        18   0             -1269.1202     -75.233809     -73.89913      -33.089859     -118.71244     -0.18052148    -0.086833424   -1.1545562      8.484          12.725987      16.968         1831.9887    
        19   0             -1269.1207     -249.68431     -241.19327     -121.82787     -386.03179     -0.62020946    -0.28846028    -3.7332832      8.484          12.725987      16.968         1831.9887    
        20   0             -1269.1215     -523.55107     -503.83333     -261.32267     -805.4972      -1.3751397     -0.6161154     -7.7836325      8.484          12.725987      16.968         1831.9887    
        21   0             -1269.1224     -896.67719     -861.68202     -451.74279     -1376.6068     -2.5006519     -1.0754551     -13.306148      8.484          12.725987      16.968         1831.9887    
        22   0             -1269.1235     -1368.8939     -1314.5786     -693.35204     -2098.7511     -4.0521979     -1.6665267     -20.30398       8.484          12.725987      16.968         1831.9887    
        23   0             -1269.1248     -1940.28       -1862.5045     -986.69364     -2971.642      -6.0491067     -2.3636274     -28.796867      8.484          12.725987      16.968         1831.9887    
        24   0             -1269.1264     -2611.7739     -2505.6098     -1333.2188     -3996.493      -8.192564      -2.9680028     -38.903925      8.484          12.725987      16.968         1831.9887    
        25   0             -1269.1315     -3370.0309     -3223.6738     -1725.1133     -5161.3057     -5.2506626     -1.060921      -51.893732      8.484          12.725987      16.968         1831.9887    
        26   0             -1269.133      -3551.8552     -3402.9211     -1798.2811     -5454.3635     -11.863013     -4.0449669     -52.809906      8.484          12.725987      16.968         1831.9887    
[...]
        63   0             -1269.1912     -18567.26      -18169.011     -19691.889     -17840.88      -41.434411      109.94487     -115.20124      8.484          12.726         16.968         1831.9906    
        64   0             -1269.1913     -18385.49      -17984.519     -19420.622     -17751.33      -49.858675      103.91792     -109.0215       8.484          12.726         16.968         1831.9906    
        65   0             -1269.1913     -18227.037     -17836.872     -19151.649     -17692.591     -42.027388      105.36607     -114.93446      8.484          12.726         16.968         1831.9906    
        66   0             -1269.1913     -18131.666     -17758.746     -18961.484     -17674.77      -47.342412      100.53008     -111.62695      8.484          12.726         16.968         1831.9906    
        67   0             -1269.1914     -18042.995     -17701.567     -18741.789     -17685.63      -43.047615      101.36449     -115.91093      8.484          12.726         16.968         1831.9906    
        68   0             -1269.1914     -17996.45      -17683.321     -18593.639     -17712.389     -46.264502      97.49357      -114.65815      8.484          12.726         16.968         1831.9906    
        69   0             -1269.1914     -17976.613     -17694.743     -18474.639     -17760.458     -44.260746      98.21009      -117.27268      8.484          12.726         16.968         1831.9906    
        70   0             -1269.1914     -17971.686     -17736.751     -18330.95      -17847.358     -46.266926      94.869913     -117.99745      8.484          12.726         16.968         1831.9906    
        71   0             -1269.1915     -17982.81      -17786.137     -18234.216     -17928.077     -45.57017       95.055744     -119.82448      8.484          12.726         16.968         1831.9906    
        72   0             -1269.1915     -18008.016     -17843.135     -18174.483     -18006.431     -46.294755      93.45876      -121.16974      8.484          12.726         16.968         1831.9906    
        73   0             -1269.1915     -18047.233     -17915.056     -18130.82      -18095.824     -46.65855       93.345079     -121.90464      8.484          12.726         16.968         1831.9906    
        74   0             -1269.1915     -18089.438     -17982.698     -18111.506     -18174.109     -46.691677      92.743375     -123.69182      8.484          12.726         16.968         1831.9906    
        75   0             -1269.1915     -18137.902     -18052.878     -18111.084     -18249.744     -47.708724      92.454885     -123.40557      8.484          12.726         16.968         1831.9906    
        76   0             -1269.1915     -18207.382     -18148.135     -18125.786     -18348.225     -47.227488      92.590063     -125.88071      8.484          12.726         16.968         1831.9906    
        77   0             -1269.1915     -18260.094     -18216.837     -18147.025     -18416.422     -48.564785      92.155046     -125.20614      8.484          12.726         16.968         1831.9906    
        78   0             -1269.1915     -18304.196     -18271.132     -18174.206     -18467.251     -47.68869       92.799975     -127.00905      8.484          12.726         16.968         1831.9906    
        79   0             -1269.1915     -18357.381     -18333.281     -18216.332     -18522.531     -49.1542        92.379283     -126.11669      8.484          12.726         16.968         1831.9906    
        80   0             -1269.1915     -18399.294     -18379.951     -18256.478     -18561.453     -48.107448      93.278863     -127.60846      8.484          12.726         16.968         1831.9906    
        81   0             -1269.1915     -18443.099     -18425.984     -18306.576     -18596.736     -49.575049      92.899        -126.62298      8.484          12.726         16.968         1831.9906    
        82   0             -1269.1915     -18491.864     -18474.645     -18370.102     -18630.845     -48.226679      94.125416     -127.95978      8.484          12.726         16.968         1831.9906    
        83   0             -1269.1915     -18519.71      -18500.684     -18412.059     -18646.386     -49.659145      93.721767     -127.00029      8.484          12.726         16.968         1831.9906    
        84   0             -1269.1915     -18547.913     -18523.815     -18464.555     -18655.368     -48.17954       94.828872     -127.89487      8.484          12.726         16.968         1831.9906    
        85   0             -1269.1915     -18569.762     -18539.218     -18513.636     -18656.43      -49.764675      94.460227     -126.90228      8.484          12.726         16.968         1831.9906    
        86   0             -1269.1915     -18586.349     -18547.381     -18562.497     -18649.168     -47.867671      95.60564      -127.66029      8.484          12.726         16.968         1831.9906    
        87   0             -1269.1915     -18599.351     -18549.061     -18616.704     -18632.287     -49.603866      95.277964     -126.66059      8.484          12.726         16.968         1831.9906    
        88   0             -1269.1915     -18604.816     -18544.377     -18658.156     -18611.913     -47.557622      96.274391     -127.20436      8.484          12.726         16.968         1831.9906    
        89   0             -1269.1915     -18603.481     -18531.82      -18695.248     -18583.376     -48.875629      96.064393     -126.5799       8.484          12.726         16.968         1831.9906    
        90   0             -1269.1915     -18595.886     -18514.312     -18721.209     -18552.136     -46.993355      96.675277     -126.82892      8.484          12.726         16.968         1831.9906    
        91   0             -1269.1915     -18576.587     -18479.873     -18752.749     -18497.139     -48.044677      96.574531     -126.49451      8.484          12.726         16.968         1831.9906    
        92   0             -1269.1915     -18556.636     -18449.417     -18768.337     -18452.153     -46.418685      96.767903     -126.43592      8.484          12.726         16.968         1831.9906    
        93   0             -1269.1915     -18524.716     -18405.494     -18778.192     -18390.462     -47.151271      96.729493     -126.64477      8.484          12.726         16.968         1831.9906    
        94   0             -1269.1915     -18489.936     -18361.02      -18778.529     -18330.259     -45.815882      96.422001     -126.36325      8.484          12.726         16.968         1831.9906    
        95   0             -1269.1915     -18458.297     -18324.075     -18768.74      -18282.076     -46.176376      96.478812     -127.14802      8.484          12.726         16.968         1831.9906    
        96   0             -1269.1915     -18404.212     -18265.203     -18740.337     -18207.096     -45.232378      95.414284     -126.7552       8.484          12.726         16.968         1831.9906    
        97   0             -1269.1916     -18341.49      -18201.689     -18696.851     -18125.931     -44.794596      95.311892     -128.66848      8.484          12.726         16.968         1831.9906    
        98   0             -1269.1916     -18288.073     -18151.952     -18651.306     -18060.963     -44.686197      93.600727     -127.97583      8.484          12.726         16.968         1831.9906    
        99   0             -1269.1916     -18213.46      -18090.572     -18573.139     -17976.669     -43.235246      93.186765     -131.11082      8.484          12.726         16.968         1831.9906    
       100   0             -1269.1916     -18149.007     -18046.851     -18492.854     -17907.317     -44.311792      90.374377     -130.48742      8.484          12.726         16.968         1831.9906    
       101   0             -1269.1916     -18087.01      -18019.32      -18396.985     -17844.725     -41.39917       89.880215     -134.92337      8.484          12.726         16.968         1831.9906    
Loop time of 0.035206 on 4 procs for 100 steps with 192 atoms

55.5% CPU use with 4 MPI tasks x 1 OpenMP threads

Minimization stats:
  Stopping criterion = max iterations
  Energy initial, next-to-last, final = 
     -1269.11999989396  -1269.19157313628  -1269.19158305073
  Force two-norm initial, final = 0.0018730281 0.011560581
  Force max component initial, final = 0.00021070709 0.0020658465
  Final line search alpha, max atom move = 1 0.0020658465
  Iterations, force evaluations = 100 182

MPI task timing breakdown:
Section |  min time  |  avg time  |  max time  |%varavg| %total
---------------------------------------------------------------
Pair    | 0.029665   | 0.029846   | 0.030069   |   0.1 | 84.77
Neigh   | 0          | 0          | 0          |   0.0 |  0.00
Comm    | 0.003132   | 0.0033465  | 0.003555   |   0.3 |  9.51
Output  | 0.00097    | 0.001009   | 0.001109   |   0.2 |  2.87
Modify  | 0          | 0          | 0          |   0.0 |  0.00
Other   |            | 0.001005   |            |       |  2.85

Nlocal:             48 ave          51 max          46 min
Histogram: 1 0 1 0 1 0 0 0 0 1
Nghost:            600 ave         602 max         597 min
Histogram: 1 0 0 0 0 0 1 0 1 1
Neighs:           1344 ave        1408 max        1276 min
Histogram: 1 0 0 1 0 0 1 0 0 1
FullNghs:         2688 ave        2856 max        2576 min
Histogram: 1 0 1 0 1 0 0 0 0 1

Total # of neighbors = 10752
Ave neighs/atom = 56
Neighbor list builds = 0
Dangerous builds = 0

# Obtain new stress tensor

variable tmp equal pe
variable e1 equal ${tmp}
variable e1 equal -1269.19158305073
variable tmp equal press
variable p1 equal ${tmp}
variable p1 equal -18087.0097797916
variable tmp equal pxx
variable pxx1 equal ${tmp}
variable pxx1 equal -18019.3195623782
variable tmp equal pyy
variable pyy1 equal ${tmp}
variable pyy1 equal -18396.9848350732
variable tmp equal pzz
variable pzz1 equal ${tmp}
variable pzz1 equal -17844.7249419234
variable tmp equal pxy
variable pxy1 equal ${tmp}
variable pxy1 equal -41.3991697907696
variable tmp equal pxz
variable pxz1 equal ${tmp}
variable pxz1 equal 89.880215140019
variable tmp equal pyz
variable pyz1 equal ${tmp}
variable pyz1 equal -134.923369122837

# Compute elastic constant from pressure tensor

variable C1pos equal ${d1}
variable C1pos equal 1801931.95623783
variable C2pos equal ${d2}
variable C2pos equal 1839698.48350731
variable C3pos equal ${d3}
variable C3pos equal 1784472.49419228
variable C4pos equal ${d4}
variable C4pos equal 13492.3369122837
variable C5pos equal ${d5}
variable C5pos equal -8988.0215140019
variable C6pos equal ${d6}
variable C6pos equal 4139.91697907696

# Combine positive and negative

variable C1${dir} equal 0.5*(${C1neg}+${C1pos})
variable C16 equal 0.5*(${C1neg}+${C1pos})
variable C16 equal 0.5*(-1801938.96552226+${C1pos})
variable C16 equal 0.5*(-1801938.96552226+1801931.95623783)
variable C2${dir} equal 0.5*(${C2neg}+${C2pos})
variable C26 equal 0.5*(${C2neg}+${C2pos})
variable C26 equal 0.5*(-1839701.94040702+${C2pos})
variable C26 equal 0.5*(-1839701.94040702+1839698.48350731)
variable C3${dir} equal 0.5*(${C3neg}+${C3pos})
variable C36 equal 0.5*(${C3neg}+${C3pos})
variable C36 equal 0.5*(-1784498.47940121+${C3pos})
variable C36 equal 0.5*(-1784498.47940121+1784472.49419228)
variable C4${dir} equal 0.5*(${C4neg}+${C4pos})
variable C46 equal 0.5*(${C4neg}+${C4pos})
variable C46 equal 0.5*(-13491.9145235968+${C4pos})
variable C46 equal 0.5*(-13491.9145235968+13492.3369122837)
variable C5${dir} equal 0.5*(${C5neg}+${C5pos})
variable C56 equal 0.5*(${C5neg}+${C5pos})
variable C56 equal 0.5*(8988.0795540448+${C5pos})
variable C56 equal 0.5*(8988.0795540448+-8988.0215140019)
variable C6${dir} equal 0.5*(${C6neg}+${C6pos})
variable C66 equal 0.5*(${C6neg}+${C6pos})
variable C66 equal 0.5*(-4125.23478104962+${C6pos})
variable C66 equal 0.5*(-4125.23478104962+4139.91697907696)

# Delete dir to make sure it is not reused

variable dir delete

# Output final values

variable C11all equal ${C11}
variable C11all equal -16944.84679518
variable C22all equal ${C22}
variable C22all equal 4886.382399105
variable C33all equal ${C33}
variable C33all equal -77798.01223316

variable C12all equal 0.5*(${C12}+${C21})
variable C12all equal 0.5*(-11719.48181495+${C21})
variable C12all equal 0.5*(-11719.48181495+2213.98995811993)
variable C13all equal 0.5*(${C13}+${C31})
variable C13all equal 0.5*(-70151.80652461+${C31})
variable C13all equal 0.5*(-70151.80652461+4453.46856130497)
variable C23all equal 0.5*(${C23}+${C32})
variable C23all equal 0.5*(1747.65767875989+${C32})
variable C23all equal 0.5*(1747.65767875989+2423.86472874496)

variable C44all equal ${C44}
variable C44all equal 13.4445533751996
variable C55all equal ${C55}
variable C55all equal 8.09591392710445
variable C66all equal ${C66}
variable C66all equal 7.34109901366992

variable C14all equal 0.5*(${C14}+${C41})
variable C14all equal 0.5*(10.8232545750216+${C41})
variable C14all equal 0.5*(10.8232545750216+-188.2244126051)
variable C15all equal 0.5*(${C15}+${C51})
variable C15all equal 0.5*(5.96737801504787+${C51})
variable C15all equal 0.5*(5.96737801504787+-280.881808467485)
variable C16all equal 0.5*(${C16}+${C61})
variable C16all equal 0.5*(-3.50464221497532+${C61})
variable C16all equal 0.5*(-3.50464221497532+50.4263368101451)

variable C24all equal 0.5*(${C24}+${C42})
variable C24all equal 0.5*(11.0420283250278+${C42})
variable C24all equal 0.5*(11.0420283250278+-139.03470566965)
variable C25all equal 0.5*(${C25}+${C52})
variable C25all equal 0.5*(4.71582395490259+${C52})
variable C25all equal 0.5*(4.71582395490259+-226.217485219729)
variable C26all equal 0.5*(${C26}+${C62})
variable C26all equal 0.5*(-1.72844985499978+${C62})
variable C26all equal 0.5*(-1.72844985499978+18.840904611965)

variable C34all equal 0.5*(${C34}+${C43})
variable C34all equal 0.5*(-224.179063205025+${C43})
variable C34all equal 0.5*(-224.179063205025+3050.22710082062)
variable C35all equal 0.5*(${C35}+${C53})
variable C35all equal 0.5*(-4.06322045996785+${C53})
variable C35all equal 0.5*(-4.06322045996785+-1328.28830470249)
variable C36all equal 0.5*(${C36}+${C63})
variable C36all equal 0.5*(-12.992604464991+${C63})
variable C36all equal 0.5*(-12.992604464991+599.212022398715)

variable C45all equal 0.5*(${C45}+${C54})
variable C45all equal 0.5*(0.165033601700088+${C54})
variable C45all equal 0.5*(0.165033601700088+1.89212724729987)
variable C46all equal 0.5*(${C46}+${C64})
variable C46all equal 0.5*(0.211194343449279+${C64})
variable C46all equal 0.5*(0.211194343449279+-8.12166945010995)
variable C56all equal 0.5*(${C56}+${C65})
variable C56all equal 0.5*(0.0290200214494689+${C65})
variable C56all equal 0.5*(0.0290200214494689+-0.851050433340333)

# Average moduli for cubic crystals

variable C11cubic equal (${C11all}+${C22all}+${C33all})/3.0
variable C11cubic equal (-16944.84679518+${C22all}+${C33all})/3.0
variable C11cubic equal (-16944.84679518+4886.382399105+${C33all})/3.0
variable C11cubic equal (-16944.84679518+4886.382399105+-77798.01223316)/3.0
variable C12cubic equal (${C12all}+${C13all}+${C23all})/3.0
variable C12cubic equal (-4752.74592841504+${C13all}+${C23all})/3.0
variable C12cubic equal (-4752.74592841504+-32849.1689816525+${C23all})/3.0
variable C12cubic equal (-4752.74592841504+-32849.1689816525+2085.76120375242)/3.0
variable C44cubic equal (${C44all}+${C55all}+${C66all})/3.0
variable C44cubic equal (13.4445533751996+${C55all}+${C66all})/3.0
variable C44cubic equal (13.4445533751996+8.09591392710445+${C66all})/3.0
variable C44cubic equal (13.4445533751996+8.09591392710445+7.34109901366992)/3.0

variable bulkmodulus equal (${C11cubic}+2*${C12cubic})/3.0
variable bulkmodulus equal (-29952.1588764117+2*${C12cubic})/3.0
variable bulkmodulus equal (-29952.1588764117+2*-11838.717902105)/3.0
variable shearmodulus1 equal ${C44cubic}
variable shearmodulus1 equal 9.62718877199132
variable shearmodulus2 equal (${C11cubic}-${C12cubic})/2.0
variable shearmodulus2 equal (-29952.1588764117-${C12cubic})/2.0
variable shearmodulus2 equal (-29952.1588764117--11838.717902105)/2.0
variable poissonratio equal 1.0/(1.0+${C11cubic}/${C12cubic})
variable poissonratio equal 1.0/(1.0+-29952.1588764117/${C12cubic})
variable poissonratio equal 1.0/(1.0+-29952.1588764117/-11838.717902105)

# For Stillinger-Weber silicon, the analytical results
# are known to be (E. R. Cowley, 1988):
#               C11 = 151.4 GPa
#               C12 = 76.4 GPa
#               C44 = 56.4 GPa

print "========================================="
=========================================
print "Components of the Elastic Constant Tensor"
Components of the Elastic Constant Tensor
print "========================================="
=========================================

print "Elastic Constant C11all = ${C11all} ${cunits}"
Elastic Constant C11all = -16944.84679518 GPa
print "Elastic Constant C22all = ${C22all} ${cunits}"
Elastic Constant C22all = 4886.382399105 GPa
print "Elastic Constant C33all = ${C33all} ${cunits}"
Elastic Constant C33all = -77798.01223316 GPa

print "Elastic Constant C12all = ${C12all} ${cunits}"
Elastic Constant C12all = -4752.74592841504 GPa
print "Elastic Constant C13all = ${C13all} ${cunits}"
Elastic Constant C13all = -32849.1689816525 GPa
print "Elastic Constant C23all = ${C23all} ${cunits}"
Elastic Constant C23all = 2085.76120375242 GPa

print "Elastic Constant C44all = ${C44all} ${cunits}"
Elastic Constant C44all = 13.4445533751996 GPa
print "Elastic Constant C55all = ${C55all} ${cunits}"
Elastic Constant C55all = 8.09591392710445 GPa
print "Elastic Constant C66all = ${C66all} ${cunits}"
Elastic Constant C66all = 7.34109901366992 GPa

print "Elastic Constant C14all = ${C14all} ${cunits}"
Elastic Constant C14all = -88.7005790150392 GPa
print "Elastic Constant C15all = ${C15all} ${cunits}"
Elastic Constant C15all = -137.457215226219 GPa
print "Elastic Constant C16all = ${C16all} ${cunits}"
Elastic Constant C16all = 23.4608472975849 GPa

print "Elastic Constant C24all = ${C24all} ${cunits}"
Elastic Constant C24all = -63.9963386723111 GPa
print "Elastic Constant C25all = ${C25all} ${cunits}"
Elastic Constant C25all = -110.750830632413 GPa
print "Elastic Constant C26all = ${C26all} ${cunits}"
Elastic Constant C26all = 8.55622737848261 GPa

print "Elastic Constant C34all = ${C34all} ${cunits}"
Elastic Constant C34all = 1413.0240188078 GPa
print "Elastic Constant C35all = ${C35all} ${cunits}"
Elastic Constant C35all = -666.175762581229 GPa
print "Elastic Constant C36all = ${C36all} ${cunits}"
Elastic Constant C36all = 293.109708966862 GPa

print "Elastic Constant C45all = ${C45all} ${cunits}"
Elastic Constant C45all = 1.02858042449998 GPa
print "Elastic Constant C46all = ${C46all} ${cunits}"
Elastic Constant C46all = -3.95523755333034 GPa
print "Elastic Constant C56all = ${C56all} ${cunits}"
Elastic Constant C56all = -0.411015205945432 GPa

print "========================================="
=========================================
print "Average properties for a cubic crystal"
Average properties for a cubic crystal
print "========================================="
=========================================

print "Bulk Modulus = ${bulkmodulus} ${cunits}"
Bulk Modulus = -17876.5315602072 GPa
print "Shear Modulus 1 = ${shearmodulus1} ${cunits}"
Shear Modulus 1 = 9.62718877199132 GPa
print "Shear Modulus 2 = ${shearmodulus2} ${cunits}"
Shear Modulus 2 = -9056.72048715335 GPa
print "Poisson Ratio = ${poissonratio}"
Poisson Ratio = 0.283284745731654
Total wall time: 0:00:00
