LAMMPS (22 Dec 2022)
  using 1 OpenMP thread(s) per MPI task
Loaded 1 plugins from C:\Program Files\LAMMPS 64-bit 23Jun2022\plugins
Loaded 0 plugins from C:\Program Files\LAMMPS 64-bit 23Jun2022-MPI\plugins
Loaded 1 plugins from C:\Program Files\LAMMPS 64-bit 22Dec2022-MSMPI\plugins
Loaded 1 plugins from C:\Program Files\LAMMPS 64-bit 28Mar2023-MPI\plugins
# Compute elastic constant tensor for a crystal
#
# Written by Aidan Thompson (Sandia, athomps@sandia.gov)
#
#  This script uses the following three include files.
#
#   init.mod      (must be modified for different crystal structures)
# 	       	  Define units, deformation parameters and initial
#		  configuration of the atoms and simulation cell.
#
#
#   potential.mod    (must be modified for different pair styles)
# 		     Define pair style and other attributes
#		     not stored in restart file
#
#
#   displace.mod    (displace.mod should not need to be modified)
# 		    Perform positive and negative box displacements
# 		    in direction ${dir} and size ${up}.
# 		    It uses the resultant changes
#		    in stress to compute one
# 		    row of the elastic stiffness tensor
#
#		    Inputs variables:
#		    	   dir = the Voigt deformation component
#		    		    (1,2,3,4,5,6)
#		    Global constants:
#       	    	   up = the deformation magnitude (strain units)
#       		   cfac = conversion from LAMMPS pressure units to
#               	   output units for elastic constants
#
#
#  To run this on a different system, it should only be necessary to
#  modify the files init.mod and potential.mod. In order to calculate
#  the elastic constants correctly, care must be taken to specify
#  the correct units in init.mod (units, cfac and cunits). It is also
#  important to verify that the minimization of energy w.r.t atom
#  positions in the deformed cell is fully converged.
#  One indication of this is that the elastic constants are insensitive
#  to the choice of the variable ${up} in init.mod. Another is to check
#  the final max and two-norm forces reported in the log file. If you know
#  that minimization is not required, you can set maxiter = 0.0 in
#  init.mod.
#

include init.mod
# NOTE: This script can be modified for different atomic structures,
# units, etc. See in.elastic for more info.
#

# Define the finite deformation size. Try several values of this
# variable to verify that results do not depend on it.
variable up equal 1.0e-6

# Define the amount of random jiggle for atoms
# This prevents atoms from staying on saddle points
variable atomjiggle equal 1.0e-5

# Uncomment one of these blocks, depending on what units
# you are using in LAMMPS and for output

# metal units, elastic constants in eV/A^3
#units		metal
#variable cfac equal 6.2414e-7
#variable cunits string eV/A^3

# metal units, elastic constants in GPa
units		metal
variable cfac equal 1.0e-4
variable cunits string GPa

# real units, elastic constants in GPa
#units		real
#variable cfac equal 1.01325e-4
#variable cunits string GPa

# Define minimization parameters
variable etol equal 0.0
variable ftol equal 1.0e-10
variable maxiter equal 100
variable maxeval equal 1000
variable dmax equal 1.0e-2

# generate the box and atom positions using a diamond lattice

dimension    3
boundary     p p p
read_data    data.in
Reading data file ...
  orthogonal box = (0.0057669986 0.0057669986 0.0057669986) to (4.247767 4.247767 4.247767)
  1 by 2 by 2 MPI processor grid
  reading atoms ...
  8 atoms
  reading velocities ...
  8 velocities
  read_data CPU = 0.001 seconds
#replicate    2 3 4
replicate    2 3 4
Replication is creating a 2x3x4 = 24 times larger system...
  orthogonal box = (0.0057669986 0.0057669986 0.0057669986) to (8.489767 12.731767 16.973767)
  1 by 2 by 2 MPI processor grid
  192 atoms
  replicate CPU = 0.000 seconds
change_box   all triclinic
Changing box ...
  triclinic box = (0.0057669986 0.0057669986 0.0057669986) to (8.489767 12.731767 16.973767) with tilt (0 0 0)

# Need to set mass to something, just to satisfy LAMMPS
mass 1 1.0e-20

include potential.mod
# NOTE: This script can be modified for different pair styles
# See in.elastic for more info.

# Choose potential
#-----------------------
#pair_style	sw
#pair_coeff * * Si.sw Si
#-----------------------
#pair_style morse	2.83994742	# D0[eV] a[1/A] r0[A] rc[A], 1NN for BCC
#pair_coeff 1 1	2.1173	1.0202	2.4595	2.6497	#	Fe-Fe
#-----------------------
#pair_style smatb # R0(A)   p       q     A(eV)   xi(eV)  Rcs(A)   Rc(A), 4NN: Rcs=4NN, Rc=(4NN+5NN)/2
#pair_coeff 1 1	2.4802	7.0149	2.3779	0.3144	3.0551	4.033	4.176	#	Co	Co
#-----------------------
#pair_style eam/alloy
#pair_coeff * * AlCrFeCoNi_Zhou04.eam.alloy Fe
#-----------------------
pair_style meam
pair_coeff * * ./../../library.meam Ti V Cr Fe N ./../../TiVCrFeN.meam Ti N
#-----------------------

# Setup neighbor style
neighbor 1.0 nsq
neigh_modify once no every 1 delay 0 check yes

# Setup minimization style
min_style	     cg
min_modify	     dmax ${dmax} line quadratic
min_modify	     dmax 0.01 line quadratic

# Setup output
thermo		1
thermo_style custom step temp pe press pxx pyy pzz pxy pxz pyz lx ly lz vol
thermo_modify norm no

# Compute initial state
fix 3 all box/relax  aniso 0.0
minimize ${etol} ${ftol} ${maxiter} ${maxeval}
minimize 0 ${ftol} ${maxiter} ${maxeval}
minimize 0 1e-10 ${maxiter} ${maxeval}
minimize 0 1e-10 100 ${maxeval}
minimize 0 1e-10 100 1000
Neighbor list info ...
  update: every = 1 steps, delay = 0 steps, check = yes
  max neighbors/atom: 2000, page size: 100000
  master list distance cutoff = 5
  ghost atom cutoff = 5
  2 neighbor lists, perpetual/occasional/extra = 2 0 0
  (1) pair meam, perpetual
      attributes: full, newton on
      pair build: full/nsq
      stencil: none
      bin: none
  (2) pair meam, perpetual, half/full from (1)
      attributes: half, newton on
      pair build: halffull/newton
      stencil: none
      bin: none
Per MPI rank memory allocation (min/avg/max) = 9.888 | 9.888 | 9.888 Mbytes
   Step          Temp          PotEng         Press           Pxx            Pyy            Pzz            Pxy            Pxz            Pyz             Lx             Ly             Lz           Volume    
         0   0             -1269.12       -1.1923909e-06 -1.192114e-06  -1.1922347e-06 -1.1928239e-06  3.6422354e-23 -1.2998862e-22 -7.1352449e-23  8.484          12.726         16.968         1831.9906    
         1   0             -1269.12       -1.7624923e-10  1.2078306e-10 -8.247846e-11  -5.6705228e-10 -1.2595028e-25  1.3798045e-27 -1.6350683e-25  8.484          12.726         16.968         1831.9906    
Loop time of 0.00094925 on 4 procs for 1 steps with 192 atoms

0.0% CPU use with 4 MPI tasks x 1 OpenMP threads

Minimization stats:
  Stopping criterion = force tolerance
  Energy initial, next-to-last, final = 
      -1269.1200000008   -1269.1200000008   -1269.1200000008
  Force two-norm initial, final = 2.3615229e-09 6.9837031e-13
  Force max component initial, final = 1.363921e-09 6.4838951e-13
  Final line search alpha, max atom move = 1 6.4838951e-13
  Iterations, force evaluations = 1 2

MPI task timing breakdown:
Section |  min time  |  avg time  |  max time  |%varavg| %total
---------------------------------------------------------------
Pair    | 0.000671   | 0.0007065  | 0.000741   |   0.0 | 74.43
Neigh   | 0          | 0          | 0          |   0.0 |  0.00
Comm    | 8.3e-05    | 0.00012175 | 0.000158   |   0.0 | 12.83
Output  | 0          | 0          | 0          |   0.0 |  0.00
Modify  | 0          | 0          | 0          |   0.0 |  0.00
Other   |            | 0.000121   |            |       | 12.75

Nlocal:             48 ave          48 max          48 min
Histogram: 4 0 0 0 0 0 0 0 0 0
Nghost:            600 ave         600 max         600 min
Histogram: 4 0 0 0 0 0 0 0 0 0
Neighs:           1344 ave        1344 max        1344 min
Histogram: 4 0 0 0 0 0 0 0 0 0
FullNghs:         2688 ave        2688 max        2688 min
Histogram: 4 0 0 0 0 0 0 0 0 0

Total # of neighbors = 10752
Ave neighs/atom = 56
Neighbor list builds = 0
Dangerous builds = 0

variable tmp equal pxx
variable pxx0 equal ${tmp}
variable pxx0 equal 1.2078306257468e-10
variable tmp equal pyy
variable pyy0 equal ${tmp}
variable pyy0 equal -8.24784596098219e-11
variable tmp equal pzz
variable pzz0 equal ${tmp}
variable pzz0 equal -5.67052280987866e-10
variable tmp equal pyz
variable pyz0 equal ${tmp}
variable pyz0 equal -1.63506831217025e-25
variable tmp equal pxz
variable pxz0 equal ${tmp}
variable pxz0 equal 1.37980448284409e-27
variable tmp equal pxy
variable pxy0 equal ${tmp}
variable pxy0 equal -1.25950277949613e-25

variable tmp equal lx
variable lx0 equal ${tmp}
variable lx0 equal 8.4840000054275
variable tmp equal ly
variable ly0 equal ${tmp}
variable ly0 equal 12.7260000081412
variable tmp equal lz
variable lz0 equal ${tmp}
variable lz0 equal 16.968000010855

# These formulas define the derivatives w.r.t. strain components
# Constants uses $, variables use v_
variable d1 equal -(v_pxx1-${pxx0})/(v_delta/v_len0)*${cfac}
variable d1 equal -(v_pxx1-1.2078306257468e-10)/(v_delta/v_len0)*${cfac}
variable d1 equal -(v_pxx1-1.2078306257468e-10)/(v_delta/v_len0)*0.0001
variable d2 equal -(v_pyy1-${pyy0})/(v_delta/v_len0)*${cfac}
variable d2 equal -(v_pyy1--8.24784596098219e-11)/(v_delta/v_len0)*${cfac}
variable d2 equal -(v_pyy1--8.24784596098219e-11)/(v_delta/v_len0)*0.0001
variable d3 equal -(v_pzz1-${pzz0})/(v_delta/v_len0)*${cfac}
variable d3 equal -(v_pzz1--5.67052280987866e-10)/(v_delta/v_len0)*${cfac}
variable d3 equal -(v_pzz1--5.67052280987866e-10)/(v_delta/v_len0)*0.0001
variable d4 equal -(v_pyz1-${pyz0})/(v_delta/v_len0)*${cfac}
variable d4 equal -(v_pyz1--1.63506831217025e-25)/(v_delta/v_len0)*${cfac}
variable d4 equal -(v_pyz1--1.63506831217025e-25)/(v_delta/v_len0)*0.0001
variable d5 equal -(v_pxz1-${pxz0})/(v_delta/v_len0)*${cfac}
variable d5 equal -(v_pxz1-1.37980448284409e-27)/(v_delta/v_len0)*${cfac}
variable d5 equal -(v_pxz1-1.37980448284409e-27)/(v_delta/v_len0)*0.0001
variable d6 equal -(v_pxy1-${pxy0})/(v_delta/v_len0)*${cfac}
variable d6 equal -(v_pxy1--1.25950277949613e-25)/(v_delta/v_len0)*${cfac}
variable d6 equal -(v_pxy1--1.25950277949613e-25)/(v_delta/v_len0)*0.0001

displace_atoms all random ${atomjiggle} ${atomjiggle} ${atomjiggle} 87287 units box
displace_atoms all random 1e-05 ${atomjiggle} ${atomjiggle} 87287 units box
displace_atoms all random 1e-05 1e-05 ${atomjiggle} 87287 units box
displace_atoms all random 1e-05 1e-05 1e-05 87287 units box
Displacing atoms ...

# Write restart
unfix 3
write_restart restart.equil
System init for write_restart ...

# uxx Perturbation

variable dir equal 1
include displace.mod
# NOTE: This script should not need to be
# modified. See in.elastic for more info.
#
# Find which reference length to use

if "${dir} == 1" then    "variable len0 equal ${lx0}"
variable len0 equal ${lx0}
variable len0 equal 8.4840000054275
if "${dir} == 2" then    "variable len0 equal ${ly0}"
if "${dir} == 3" then    "variable len0 equal ${lz0}"
if "${dir} == 4" then    "variable len0 equal ${lz0}"
if "${dir} == 5" then    "variable len0 equal ${lz0}"
if "${dir} == 6" then    "variable len0 equal ${ly0}"

# Reset box and simulation parameters

clear
  using 1 OpenMP thread(s) per MPI task
Loaded 1 plugins from C:\Program Files\LAMMPS 64-bit 23Jun2022\plugins
Loaded 0 plugins from C:\Program Files\LAMMPS 64-bit 23Jun2022-MPI\plugins
Loaded 1 plugins from C:\Program Files\LAMMPS 64-bit 22Dec2022-MSMPI\plugins
Loaded 1 plugins from C:\Program Files\LAMMPS 64-bit 28Mar2023-MPI\plugins
box tilt large

The 'box' command has been removed and will be ignored

read_restart restart.equil
Reading restart file ...
  restart file = 22 Dec 2022, LAMMPS = 22 Dec 2022
  restoring atom style atomic from restart
  triclinic box = (0.0057669986 0.0057669986 0.0057669986) to (8.489767 12.731767 16.973767) with tilt (0 0 0)
  1 by 2 by 2 MPI processor grid
  pair style meam stores no restart info
  192 atoms
  read_restart CPU = 0.001 seconds
include potential.mod
# NOTE: This script can be modified for different pair styles
# See in.elastic for more info.

# Choose potential
#-----------------------
#pair_style	sw
#pair_coeff * * Si.sw Si
#-----------------------
#pair_style morse	2.83994742	# D0[eV] a[1/A] r0[A] rc[A], 1NN for BCC
#pair_coeff 1 1	2.1173	1.0202	2.4595	2.6497	#	Fe-Fe
#-----------------------
#pair_style smatb # R0(A)   p       q     A(eV)   xi(eV)  Rcs(A)   Rc(A), 4NN: Rcs=4NN, Rc=(4NN+5NN)/2
#pair_coeff 1 1	2.4802	7.0149	2.3779	0.3144	3.0551	4.033	4.176	#	Co	Co
#-----------------------
#pair_style eam/alloy
#pair_coeff * * AlCrFeCoNi_Zhou04.eam.alloy Fe
#-----------------------
pair_style meam
pair_coeff * * ./../../library.meam Ti V Cr Fe N ./../../TiVCrFeN.meam Ti N
#-----------------------

# Setup neighbor style
neighbor 1.0 nsq
neigh_modify once no every 1 delay 0 check yes

# Setup minimization style
min_style	     cg
min_modify	     dmax ${dmax} line quadratic
min_modify	     dmax 0.01 line quadratic

# Setup output
thermo		1
thermo_style custom step temp pe press pxx pyy pzz pxy pxz pyz lx ly lz vol
thermo_modify norm no

# Negative deformation

variable delta equal -${up}*${len0}
variable delta equal -1e-06*${len0}
variable delta equal -1e-06*8.4840000054275
variable deltaxy equal -${up}*xy
variable deltaxy equal -1e-06*xy
variable deltaxz equal -${up}*xz
variable deltaxz equal -1e-06*xz
variable deltayz equal -${up}*yz
variable deltayz equal -1e-06*yz
if "${dir} == 1" then    "change_box all x delta 0 ${delta} xy delta ${deltaxy} xz delta ${deltaxz} remap units box"
change_box all x delta 0 ${delta} xy delta ${deltaxy} xz delta ${deltaxz} remap units box
change_box all x delta 0 -8.4840000054275e-06 xy delta ${deltaxy} xz delta ${deltaxz} remap units box
change_box all x delta 0 -8.4840000054275e-06 xy delta -0 xz delta ${deltaxz} remap units box
change_box all x delta 0 -8.4840000054275e-06 xy delta -0 xz delta -0 remap units box
Changing box ...
  triclinic box = (0.0057669986 0.0057669986 0.0057669986) to (8.4897585 12.731767 16.973767) with tilt (0 0 0)
  triclinic box = (0.0057669986 0.0057669986 0.0057669986) to (8.4897585 12.731767 16.973767) with tilt (0 0 0)
  triclinic box = (0.0057669986 0.0057669986 0.0057669986) to (8.4897585 12.731767 16.973767) with tilt (0 0 0)
if "${dir} == 2" then    "change_box all y delta 0 ${delta} yz delta ${deltayz} remap units box"
if "${dir} == 3" then    "change_box all z delta 0 ${delta} remap units box"
if "${dir} == 4" then    "change_box all yz delta ${delta} remap units box"
if "${dir} == 5" then    "change_box all xz delta ${delta} remap units box"
if "${dir} == 6" then    "change_box all xy delta ${delta} remap units box"

# Relax atoms positions

minimize ${etol} ${ftol} ${maxiter} ${maxeval}
minimize 0 ${ftol} ${maxiter} ${maxeval}
minimize 0 1e-10 ${maxiter} ${maxeval}
minimize 0 1e-10 100 ${maxeval}
minimize 0 1e-10 100 1000
Neighbor list info ...
  update: every = 1 steps, delay = 0 steps, check = yes
  max neighbors/atom: 2000, page size: 100000
  master list distance cutoff = 5
  ghost atom cutoff = 5
  2 neighbor lists, perpetual/occasional/extra = 2 0 0
  (1) pair meam, perpetual
      attributes: full, newton on
      pair build: full/nsq
      stencil: none
      bin: none
  (2) pair meam, perpetual, half/full from (1)
      attributes: half, newton on
      pair build: halffull/newton
      stencil: none
      bin: none
Per MPI rank memory allocation (min/avg/max) = 9.855 | 9.859 | 9.864 Mbytes
   Step          Temp          PotEng         Press           Pxx            Pyy            Pzz            Pxy            Pxz            Pyz             Lx             Ly             Lz           Volume    
         1   0             -1269.12        2.8761721      6.6106808      1.0089335      1.008902      -6.883932e-06   1.7888947e-05 -1.2376189e-05  8.4839915      12.726         16.968         1831.9887    
         2   0             -1269.12        2.8758059      6.6103525      1.0085255      1.0085397      1.2073784e-07  3.6934012e-07  1.3196091e-06  8.4839915      12.726         16.968         1831.9887    
         3   0             -1269.12        2.8757951      6.610346       1.0085177      1.0085216      2.0140203e-07  4.7881175e-07  1.5913282e-07  8.4839915      12.726         16.968         1831.9887    
         4   0             -1269.12        2.8757937      6.610349       1.008518       1.008514      -2.4264359e-07  2.6684353e-07 -4.2059551e-08  8.4839915      12.726         16.968         1831.9887    
         5   0             -1269.12        2.8757935      6.6103492      1.0085192      1.0085123     -1.0575573e-07  1.3724109e-07  8.8229222e-09  8.4839915      12.726         16.968         1831.9887    
         6   0             -1269.12        2.8757936      6.6103494      1.0085192      1.0085123     -1.0790097e-07  7.755935e-08  -4.1695193e-08  8.4839915      12.726         16.968         1831.9887    
         7   0             -1269.12        2.8757938      6.6103495      1.0085194      1.0085125     -7.4971545e-08  6.9398849e-08 -2.2900868e-08  8.4839915      12.726         16.968         1831.9887    
         8   0             -1269.12        2.8757941      6.6103497      1.0085197      1.0085128     -1.0289262e-07  6.1001132e-08 -2.2875752e-08  8.4839915      12.726         16.968         1831.9887    
         9   0             -1269.12        2.875796       6.6103511      1.008522       1.008515      -8.2530436e-08  1.2397794e-07 -4.7386527e-08  8.4839915      12.726         16.968         1831.9887    
        10   0             -1269.12        2.8757947      6.6103486      1.0085229      1.0085127      1.1677533e-08  1.5956938e-07 -5.1115004e-08  8.4839915      12.726         16.968         1831.9887    
        11   0             -1269.12        2.8757878      6.6103412      1.0085192      1.0085031     -8.513101e-10   2.0297012e-07 -1.1506219e-07  8.4839915      12.726         16.968         1831.9887    
        12   0             -1269.12        2.875783       6.6103363      1.0085162      1.0084964      1.0557386e-07  2.5215198e-07 -1.0492274e-07  8.4839915      12.726         16.968         1831.9887    
        13   0             -1269.12        2.8757794      6.6103326      1.008514       1.0084916      7.4399568e-08  2.6719167e-07 -1.5282214e-07  8.4839915      12.726         16.968         1831.9887    
        14   0             -1269.12        2.8757726      6.6103257      1.0085096      1.0084824      1.1045492e-07  3.5426291e-07 -1.257117e-07   8.4839915      12.726         16.968         1831.9887    
        15   0             -1269.12        2.8756616      6.6102136      1.0084392      1.008332       5.9985042e-07  1.0159487e-06 -6.1067853e-07  8.4839915      12.726         16.968         1831.9887    
        16   0             -1269.12        2.8551228      6.5898206      0.99491957     0.98062831     0.00011176685  0.00013962405 -7.0780814e-05  8.4839915      12.726         16.968         1831.9887    
        17   0             -1269.1201     -37.774059     -33.649655     -25.886345     -53.786177      0.22853524     0.27526827    -0.14213031     8.4839915      12.726         16.968         1831.9887    
        18   0             -1269.1204     -156.06863     -150.80826     -104.16652     -213.2311       0.89404016     1.0714927     -0.56902505     8.4839915      12.726         16.968         1831.9887    
        19   0             -1269.1209     -351.99208     -344.85633     -233.86629     -477.25362      1.9965124      2.3793066     -1.3024471      8.4839915      12.726         16.968         1831.9887    
        20   0             -1269.1216     -625.5052      -615.76322     -415.04855     -845.70384      3.5363804      4.186776      -2.3675569      8.4839915      12.726         16.968         1831.9887    
        21   0             -1269.1224     -976.68981     -963.61291     -647.90965     -1318.5469      5.5171053      6.4817096     -3.7944449      8.4839915      12.726         16.968         1831.9887    
        22   0             -1269.1233     -1406.4144     -1389.2282     -933.27074     -1896.7443      7.9581403      9.2635241     -5.6243371      8.4839915      12.726         16.968         1831.9887    
        23   0             -1269.1246     -1920.33       -1897.9026     -1275.5427     -2587.5446      10.980185      12.620561     -7.9392841      8.4839915      12.726         16.968         1831.9887    
        24   0             -1269.1277     -2491.05       -2460.1102     -1658.3984     -3354.6412      15.508279      16.821199     -10.665485      8.4839915      12.726         16.968         1831.9887    
        25   0             -1269.1289     -2654.9705     -2629.9952     -1754.2519     -3580.6645      16.124909      16.735617     -14.730263      8.4839915      12.726         16.968         1831.9887    
        26   0             -1269.1301     -2935.3548     -2929.903      -1919.1411     -3957.0202      21.701718      17.596935     -12.283479      8.4839915      12.726         16.968         1831.9887    
        27   0             -1269.1331     -3569.2201     -3613.029      -2290.8524     -4803.779       20.449321      20.93237      -20.181135      8.4839915      12.726         16.968         1831.9887    
        28   0             -1269.1386     -4340.2681     -4443.3138     -2736.6877     -5840.8027      27.060993      25.190541     -25.205924      8.4839915      12.726         16.968         1831.9887    
        29   0             -1269.1408     -4391.4719     -4493.9677     -2768.0806     -5912.3675      32.907588      26.461409     -21.270104      8.4839915      12.726         16.968         1831.9887    
        30   0             -1269.1421     -4503.3552     -4621.6391     -2827.3107     -6061.1158      28.787011      29.317317     -28.22941       8.4839915      12.726         16.968         1831.9887    
        31   0             -1269.1431     -4686.6388     -4828.8631     -2943.8618     -6287.1916      38.588661      29.30248      -19.40199       8.4839915      12.726         16.968         1831.9887    
        32   0             -1269.1467     -5373.5074     -5620.7462     -3359.936      -7139.84        32.315419      31.850219     -36.919341      8.4839915      12.726         16.968         1831.9887    
        33   0             -1269.1525     -6139.8902     -6484.7669     -3842.3575     -8092.5462      40.568873      33.551993     -34.813432      8.4839915      12.726         16.968         1831.9887    
        34   0             -1269.1575     -6897.8496     -7337.0528     -4337.6746     -9018.8212      45.297113      34.767946     -49.601366      8.4839915      12.726         16.968         1831.9887    
        35   0             -1269.1611     -7884.5618     -8462.1801     -4994.2062     -10197.299      46.812774      36.943686     -53.78317       8.4839915      12.726         16.968         1831.9887    
        36   0             -1269.1654     -8915.7516     -9625.495      -5715.8631     -11405.897      53.806108      36.571296     -57.17807       8.4839915      12.726         16.968         1831.9887    
        37   0             -1269.1708     -10120.5       -10978.765     -6574.6193     -12808.116      54.632387      36.668677     -76.412126      8.4839915      12.726         16.968         1831.9887    
        38   0             -1269.1725     -10297.422     -11177.693     -6717.1374     -12997.434      54.091442      36.863868     -73.64834       8.4839915      12.726         16.968         1831.9887    
        39   0             -1269.1735     -10557.067     -11472.823     -6943.7446     -13254.634      56.536506      35.874025     -79.337187      8.4839915      12.726         16.968         1831.9887    
        40   0             -1269.1746     -11040.73      -12026.477     -7386.6521     -13709.061      52.608293      33.629091     -79.229248      8.4839915      12.726         16.968         1831.9887    
        41   0             -1269.1782     -12380.635     -13550.149     -8644.0945     -14947.661      55.605387      24.965948     -91.040074      8.4839915      12.726         16.968         1831.9887    
        42   0             -1269.1812     -13371.493     -14657.757     -9622.5873     -15834.136      51.00354       18.614379     -101.81336      8.4839915      12.726         16.968         1831.9887    
        43   0             -1269.184      -14753.307     -16192.607     -11035.417     -17031.897      51.480608      7.4903938     -108.66897      8.4839915      12.726         16.968         1831.9887    
        44   0             -1269.1855     -15102.045     -16571.831     -11421.008     -17313.296      51.127901      4.4572796     -113.84977      8.4839915      12.726         16.968         1831.9887    
        45   0             -1269.1861     -15353.901     -16829.616     -11745.634     -17486.452      48.794758      1.4075972     -114.22634      8.4839915      12.726         16.968         1831.9887    
        46   0             -1269.1867     -15710.234     -17181.789     -12247.746     -17701.166      49.914708     -5.1589522     -115.2776       8.4839915      12.726         16.968         1831.9887    
        47   0             -1269.1875     -16195.11      -17641.121     -12978.456     -17965.754      44.569228     -13.447796     -119.20858      8.4839915      12.726         16.968         1831.9887    
        48   0             -1269.1886     -16990.313     -18365.1       -14232.145     -18373.696      45.01819      -29.564985     -115.82023      8.4839915      12.726         16.968         1831.9887    
        49   0             -1269.1898     -17943.354     -19192.294     -15799.002     -18838.766      37.298784     -49.048736     -125.7299       8.4839915      12.726         16.968         1831.9887    
        50   0             -1269.1905     -18492.936     -19643.211     -16744.341     -19091.255      35.96919      -61.937347     -120.42587      8.4839915      12.726         16.968         1831.9887    
        51   0             -1269.1906     -18593.812     -19706.363     -16952.958     -19122.114      35.321059     -64.640301     -124.01963      8.4839915      12.726         16.968         1831.9887    
        52   0             -1269.1907     -18654.003     -19710.445     -17135.647     -19115.916      33.983312     -68.215353     -121.49493      8.4839915      12.726         16.968         1831.9887    
        53   0             -1269.1908     -18688.358     -19670.293     -17314.956     -19079.825      33.960657     -71.226544     -122.75737      8.4839915      12.726         16.968         1831.9887    
        54   0             -1269.1909     -18713.385     -19570.951     -17566.663     -19002.542      31.049878     -76.862369     -121.07805      8.4839915      12.726         16.968         1831.9887    
        55   0             -1269.1911     -18746.533     -19322.202     -18096.91      -18820.488      29.708803     -87.164976     -118.79786      8.4839915      12.726         16.968         1831.9887    
        56   0             -1269.1912     -18758.072     -19171.845     -18387.554     -18714.818      26.072768     -93.736616     -119.21278      8.4839915      12.726         16.968         1831.9887    
        57   0             -1269.1913     -18754.098     -19095.372     -18500.737     -18666.185      26.481929     -96.019559     -116.98722      8.4839915      12.726         16.968         1831.9887    
        58   0             -1269.1913     -18741.042     -19049.314     -18532.904     -18640.909      25.341758     -97.166383     -118.0152       8.4839915      12.726         16.968         1831.9887    
        59   0             -1269.1913     -18717.45      -18989.334     -18552.041     -18610.976      25.570852     -97.991658     -115.91128      8.4839915      12.726         16.968         1831.9887    
        60   0             -1269.1913     -18681.491     -18911.447     -18558.168     -18574.857      24.589104     -98.968273     -116.6495       8.4839915      12.726         16.968         1831.9887    
        61   0             -1269.1913     -18600.363     -18745.198     -18555.759     -18500.134      24.020476     -100.61162     -113.0341       8.4839915      12.726         16.968         1831.9887    
        62   0             -1269.1913     -18505.449     -18554.091     -18545.302     -18416.956      22.784232     -102.40094     -112.58521      8.4839915      12.726         16.968         1831.9887    
        63   0             -1269.1913     -18469.363     -18483.457     -18536.86      -18387.773      22.324681     -103.065       -110.99314      8.4839915      12.726         16.968         1831.9887    
        64   0             -1269.1913     -18452.076     -18451.525     -18528.027     -18376.677      22.328219     -103.23082     -111.02434      8.4839915      12.726         16.968         1831.9887    
        65   0             -1269.1914     -18439.645     -18430.583     -18516.514     -18371.838      22.075534     -103.36607     -110.68254      8.4839915      12.726         16.968         1831.9887    
        66   0             -1269.1914     -18428.403     -18413.247     -18502.003     -18369.96       22.256727     -103.30471     -110.4983       8.4839915      12.726         16.968         1831.9887    
        67   0             -1269.1914     -18403.589     -18377.543     -18462.514     -18370.709      21.9692       -103.28097     -110.39909      8.4839915      12.726         16.968         1831.9887    
        68   0             -1269.1914     -18365.279     -18323.7       -18397.582     -18374.554      22.374088     -102.93721     -109.37489      8.4839915      12.726         16.968         1831.9887    
        69   0             -1269.1914     -18331.239     -18276.552     -18336.628     -18380.538      22.178915     -102.79135     -109.49166      8.4839915      12.726         16.968         1831.9887    
        70   0             -1269.1914     -18322.142     -18264.496     -18317.931     -18383.999      22.358566     -102.66484     -108.88637      8.4839915      12.726         16.968         1831.9887    
        71   0             -1269.1914     -18317.783     -18259.73      -18304.826     -18388.792      22.345243     -102.63183     -109.25179      8.4839915      12.726         16.968         1831.9887    
        72   0             -1269.1914     -18317.458     -18260.878     -18297.391     -18394.105      22.438338     -102.58155     -108.87231      8.4839915      12.726         16.968         1831.9887    
        73   0             -1269.1914     -18321.299     -18269.994     -18288.336     -18405.566      22.589269     -102.53182     -109.44046      8.4839915      12.726         16.968         1831.9887    
        74   0             -1269.1914     -18336.48      -18302.009     -18268.63      -18438.799      22.929484     -102.4552      -109.12089      8.4839915      12.726         16.968         1831.9887    
        75   0             -1269.1914     -18352.338     -18334.012     -18253.714     -18469.289      23.418945     -102.34775     -109.88027      8.4839915      12.726         16.968         1831.9887    
        76   0             -1269.1914     -18363.598     -18355.884     -18247.509     -18487.402      23.529816     -102.40336     -109.84489      8.4839915      12.726         16.968         1831.9887    
        77   0             -1269.1914     -18370.159     -18368.098     -18247.07      -18495.309      23.727938     -102.40695     -109.97424      8.4839915      12.726         16.968         1831.9887    
        78   0             -1269.1914     -18376.721     -18379.906     -18250.101     -18500.154      23.701202     -102.56726     -110.10606      8.4839915      12.726         16.968         1831.9887    
        79   0             -1269.1914     -18385.633     -18395.463     -18257.961     -18503.473      23.846189     -102.74268     -109.95368      8.4839915      12.726         16.968         1831.9887    
        80   0             -1269.1914     -18409.96      -18437.292     -18284.469     -18508.118      23.771449     -103.58726     -110.64164      8.4839915      12.726         16.968         1831.9887    
        81   0             -1269.1914     -18449.247     -18504.032     -18330.266     -18513.444      24.001696     -104.77087     -110.13521      8.4839915      12.726         16.968         1831.9887    
        82   0             -1269.1914     -18466.766     -18533.49      -18352.864     -18513.943      23.958018     -105.49227     -110.86242      8.4839915      12.726         16.968         1831.9887    
        83   0             -1269.1914     -18478.545     -18553.31      -18370.286     -18512.038      23.989853     -106.02977     -110.35642      8.4839915      12.726         16.968         1831.9887    
        84   0             -1269.1914     -18483.376     -18561.494     -18380.514     -18508.121      23.973278     -106.46439     -110.79162      8.4839915      12.726         16.968         1831.9887    
        85   0             -1269.1914     -18486.348     -18566.716     -18393.338     -18498.989      23.893461     -107.17313     -110.31159      8.4839915      12.726         16.968         1831.9887    
        86   0             -1269.1914     -18488.473     -18570.362     -18424.088     -18470.969      23.804302     -109.01244     -110.68303      8.4839915      12.726         16.968         1831.9887    
        87   0             -1269.1914     -18490.515     -18570.636     -18482.377     -18418.533      23.348795     -112.71788     -109.96078      8.4839915      12.726         16.968         1831.9887    
        88   0             -1269.1914     -18491.849     -18567.453     -18529.494     -18378.6        23.230248     -115.39745     -109.80979      8.4839915      12.726         16.968         1831.9887    
        89   0             -1269.1914     -18490.469     -18560.31      -18555.118     -18355.978      22.970465     -117.30695     -109.7202       8.4839915      12.726         16.968         1831.9887    
        90   0             -1269.1914     -18487.528     -18551.235     -18569.896     -18341.452      22.988464     -118.46558     -109.17957      8.4839915      12.726         16.968         1831.9887    
        91   0             -1269.1914     -18479.748     -18532.678     -18576.929     -18329.637      22.834284     -120.0809      -109.34002      8.4839915      12.726         16.968         1831.9887    
        92   0             -1269.1914     -18459.485     -18480.871     -18589.627     -18307.958      22.901826     -123.45156     -107.11395      8.4839915      12.726         16.968         1831.9887    
        93   0             -1269.1914     -18433.549     -18390.474     -18629.802     -18280.371      22.747541     -129.68943     -106.34348      8.4839915      12.726         16.968         1831.9887    
        94   0             -1269.1914     -18424.292     -18328.528     -18674.608     -18269.74       22.83369      -133.88707     -103.42756      8.4839915      12.726         16.968         1831.9887    
        95   0             -1269.1915     -18423.218     -18283.943     -18715.85      -18269.862      22.874392     -137.10624     -103.33797      8.4839915      12.726         16.968         1831.9887    
        96   0             -1269.1915     -18426.962     -18252.037     -18749.906     -18278.943      22.980696     -139.65006     -101.09336      8.4839915      12.726         16.968         1831.9887    
        97   0             -1269.1915     -18438.113     -18220.02      -18793.09      -18301.227      23.173978     -142.33995     -100.90539      8.4839915      12.726         16.968         1831.9887    
        98   0             -1269.1915     -18489.99      -18169.164     -18929.043     -18371.764      23.680802     -148.20323     -96.324658      8.4839915      12.726         16.968         1831.9887    
        99   0             -1269.1915     -18547.382     -18148.235     -19062.076     -18431.835      24.037055     -151.26751     -95.260787      8.4839915      12.726         16.968         1831.9887    
       100   0             -1269.1915     -18586.58      -18148.169     -19138.728     -18472.845      24.336251     -153.11604     -93.258723      8.4839915      12.726         16.968         1831.9887    
       101   0             -1269.1916     -18659.341     -18167.307     -19262.514     -18548.2        24.556242     -154.05582     -92.510645      8.4839915      12.726         16.968         1831.9887    
Loop time of 0.036473 on 4 procs for 100 steps with 192 atoms

75.0% CPU use with 4 MPI tasks x 1 OpenMP threads

Minimization stats:
  Stopping criterion = max iterations
  Energy initial, next-to-last, final = 
     -1269.11999987521  -1269.19154426884   -1269.1915667668
  Force two-norm initial, final = 0.0020300603 0.016318695
  Force max component initial, final = 0.00021599862 0.0027545939
  Final line search alpha, max atom move = 1 0.0027545939
  Iterations, force evaluations = 100 180

MPI task timing breakdown:
Section |  min time  |  avg time  |  max time  |%varavg| %total
---------------------------------------------------------------
Pair    | 0.029685   | 0.030334   | 0.030992   |   0.3 | 83.17
Neigh   | 0          | 0          | 0          |   0.0 |  0.00
Comm    | 0.003292   | 0.0037735  | 0.004233   |   0.6 | 10.35
Output  | 0.001132   | 0.0011917  | 0.001337   |   0.2 |  3.27
Modify  | 0          | 0          | 0          |   0.0 |  0.00
Other   |            | 0.001174   |            |       |  3.22

Nlocal:             48 ave          56 max          43 min
Histogram: 2 0 0 0 1 0 0 0 0 1
Nghost:            600 ave         605 max         592 min
Histogram: 1 0 0 0 0 1 0 0 0 2
Neighs:           1344 ave        1512 max        1215 min
Histogram: 2 0 0 0 0 0 0 1 0 1
FullNghs:         2688 ave        3136 max        2408 min
Histogram: 2 0 0 0 1 0 0 0 0 1

Total # of neighbors = 10752
Ave neighs/atom = 56
Neighbor list builds = 0
Dangerous builds = 0

# Obtain new stress tensor

variable tmp equal pxx
variable pxx1 equal ${tmp}
variable pxx1 equal -18167.306978239
variable tmp equal pyy
variable pyy1 equal ${tmp}
variable pyy1 equal -19262.5144827531
variable tmp equal pzz
variable pzz1 equal ${tmp}
variable pzz1 equal -18548.2004202052
variable tmp equal pxy
variable pxy1 equal ${tmp}
variable pxy1 equal 24.5562420994621
variable tmp equal pxz
variable pxz1 equal ${tmp}
variable pxz1 equal -154.055821677519
variable tmp equal pyz
variable pyz1 equal ${tmp}
variable pyz1 equal -92.510645035672

# Compute elastic constant from pressure tensor

variable C1neg equal ${d1}
variable C1neg equal -1816730.69782391
variable C2neg equal ${d2}
variable C2neg equal -1926251.4482753
variable C3neg equal ${d3}
variable C3neg equal -1854820.04202046
variable C4neg equal ${d4}
variable C4neg equal -9251.0645035672
variable C5neg equal ${d5}
variable C5neg equal -15405.5821677519
variable C6neg equal ${d6}
variable C6neg equal 2455.62420994621

# Reset box and simulation parameters

clear
  using 1 OpenMP thread(s) per MPI task
Loaded 1 plugins from C:\Program Files\LAMMPS 64-bit 23Jun2022\plugins
Loaded 0 plugins from C:\Program Files\LAMMPS 64-bit 23Jun2022-MPI\plugins
Loaded 1 plugins from C:\Program Files\LAMMPS 64-bit 22Dec2022-MSMPI\plugins
Loaded 1 plugins from C:\Program Files\LAMMPS 64-bit 28Mar2023-MPI\plugins
box tilt large

The 'box' command has been removed and will be ignored

read_restart restart.equil
Reading restart file ...
  restart file = 22 Dec 2022, LAMMPS = 22 Dec 2022
  restoring atom style atomic from restart
  triclinic box = (0.0057669986 0.0057669986 0.0057669986) to (8.489767 12.731767 16.973767) with tilt (0 0 0)
  1 by 2 by 2 MPI processor grid
  pair style meam stores no restart info
  192 atoms
  read_restart CPU = 0.000 seconds
include potential.mod
# NOTE: This script can be modified for different pair styles
# See in.elastic for more info.

# Choose potential
#-----------------------
#pair_style	sw
#pair_coeff * * Si.sw Si
#-----------------------
#pair_style morse	2.83994742	# D0[eV] a[1/A] r0[A] rc[A], 1NN for BCC
#pair_coeff 1 1	2.1173	1.0202	2.4595	2.6497	#	Fe-Fe
#-----------------------
#pair_style smatb # R0(A)   p       q     A(eV)   xi(eV)  Rcs(A)   Rc(A), 4NN: Rcs=4NN, Rc=(4NN+5NN)/2
#pair_coeff 1 1	2.4802	7.0149	2.3779	0.3144	3.0551	4.033	4.176	#	Co	Co
#-----------------------
#pair_style eam/alloy
#pair_coeff * * AlCrFeCoNi_Zhou04.eam.alloy Fe
#-----------------------
pair_style meam
pair_coeff * * ./../../library.meam Ti V Cr Fe N ./../../TiVCrFeN.meam Ti N
#-----------------------

# Setup neighbor style
neighbor 1.0 nsq
neigh_modify once no every 1 delay 0 check yes

# Setup minimization style
min_style	     cg
min_modify	     dmax ${dmax} line quadratic
min_modify	     dmax 0.01 line quadratic

# Setup output
thermo		1
thermo_style custom step temp pe press pxx pyy pzz pxy pxz pyz lx ly lz vol
thermo_modify norm no

# Positive deformation

variable delta equal ${up}*${len0}
variable delta equal 1e-06*${len0}
variable delta equal 1e-06*8.4840000054275
variable deltaxy equal ${up}*xy
variable deltaxy equal 1e-06*xy
variable deltaxz equal ${up}*xz
variable deltaxz equal 1e-06*xz
variable deltayz equal ${up}*yz
variable deltayz equal 1e-06*yz
if "${dir} == 1" then    "change_box all x delta 0 ${delta} xy delta ${deltaxy} xz delta ${deltaxz} remap units box"
change_box all x delta 0 ${delta} xy delta ${deltaxy} xz delta ${deltaxz} remap units box
change_box all x delta 0 8.4840000054275e-06 xy delta ${deltaxy} xz delta ${deltaxz} remap units box
change_box all x delta 0 8.4840000054275e-06 xy delta 0 xz delta ${deltaxz} remap units box
change_box all x delta 0 8.4840000054275e-06 xy delta 0 xz delta 0 remap units box
Changing box ...
  triclinic box = (0.0057669986 0.0057669986 0.0057669986) to (8.4897755 12.731767 16.973767) with tilt (0 0 0)
  triclinic box = (0.0057669986 0.0057669986 0.0057669986) to (8.4897755 12.731767 16.973767) with tilt (0 0 0)
  triclinic box = (0.0057669986 0.0057669986 0.0057669986) to (8.4897755 12.731767 16.973767) with tilt (0 0 0)
if "${dir} == 2" then    "change_box all y delta 0 ${delta} yz delta ${deltayz} remap units box"
if "${dir} == 3" then    "change_box all z delta 0 ${delta} remap units box"
if "${dir} == 4" then    "change_box all yz delta ${delta} remap units box"
if "${dir} == 5" then    "change_box all xz delta ${delta} remap units box"
if "${dir} == 6" then    "change_box all xy delta ${delta} remap units box"

# Relax atoms positions

minimize ${etol} ${ftol} ${maxiter} ${maxeval}
minimize 0 ${ftol} ${maxiter} ${maxeval}
minimize 0 1e-10 ${maxiter} ${maxeval}
minimize 0 1e-10 100 ${maxeval}
minimize 0 1e-10 100 1000
Neighbor list info ...
  update: every = 1 steps, delay = 0 steps, check = yes
  max neighbors/atom: 2000, page size: 100000
  master list distance cutoff = 5
  ghost atom cutoff = 5
  2 neighbor lists, perpetual/occasional/extra = 2 0 0
  (1) pair meam, perpetual
      attributes: full, newton on
      pair build: full/nsq
      stencil: none
      bin: none
  (2) pair meam, perpetual, half/full from (1)
      attributes: half, newton on
      pair build: halffull/newton
      stencil: none
      bin: none
Per MPI rank memory allocation (min/avg/max) = 9.855 | 9.859 | 9.864 Mbytes
   Step          Temp          PotEng         Press           Pxx            Pyy            Pzz            Pxy            Pxz            Pyz             Lx             Ly             Lz           Volume    
         1   0             -1269.12       -2.8754293     -6.6099638     -1.0081463     -1.0081778     -6.8837909e-06  1.7888701e-05 -1.2376184e-05  8.4840085      12.726         16.968         1831.9924    
         2   0             -1269.12       -2.8757955     -6.6102921     -1.0085543     -1.0085401      1.2077829e-07  3.6931942e-07  1.3196362e-06  8.4840085      12.726         16.968         1831.9924    
         3   0             -1269.12       -2.8758063     -6.6102986     -1.0085621     -1.0085582      2.01399e-07    4.7877482e-07  1.590728e-07   8.4840085      12.726         16.968         1831.9924    
         4   0             -1269.12       -2.8758077     -6.6102956     -1.0085618     -1.0085658     -2.4262237e-07  2.6684908e-07 -4.204642e-08   8.4840085      12.726         16.968         1831.9924    
         5   0             -1269.12       -2.8758079     -6.6102954     -1.0085606     -1.0085675     -1.0576454e-07  1.3722531e-07  8.8126569e-09  8.4840085      12.726         16.968         1831.9924    
         6   0             -1269.12       -2.8758078     -6.6102953     -1.0085606     -1.0085675     -1.0788704e-07  7.7560656e-08 -4.1700684e-08  8.4840085      12.726         16.968         1831.9924    
         7   0             -1269.12       -2.8758076     -6.6102951     -1.0085604     -1.0085673     -7.4967486e-08  6.9387858e-08 -2.2900373e-08  8.4840085      12.726         16.968         1831.9924    
         8   0             -1269.12       -2.8758073     -6.6102949     -1.0085601     -1.008567      -1.0287499e-07  6.0994536e-08 -2.2881562e-08  8.4840085      12.726         16.968         1831.9924    
         9   0             -1269.12       -2.8758054     -6.6102935     -1.0085578     -1.0085648     -8.2543499e-08  1.2393963e-07 -4.7389329e-08  8.4840085      12.726         16.968         1831.9924    
        10   0             -1269.12       -2.8758066     -6.6102959     -1.0085569     -1.0085671      1.1754819e-08  1.5948523e-07 -5.10698e-08    8.4840085      12.726         16.968         1831.9924    
        11   0             -1269.12       -2.8758135     -6.6103033     -1.0085606     -1.0085767     -9.1292733e-10  2.027297e-07  -1.1489364e-07  8.4840085      12.726         16.968         1831.9924    
        12   0             -1269.12       -2.8758184     -6.6103082     -1.0085636     -1.0085833      1.0539598e-07  2.5177515e-07 -1.0470063e-07  8.4840085      12.726         16.968         1831.9924    
        13   0             -1269.12       -2.8758219     -6.6103119     -1.0085658     -1.0085881      7.4214221e-08  2.6668237e-07 -1.5247712e-07  8.4840085      12.726         16.968         1831.9924    
        14   0             -1269.12       -2.8758288     -6.6103188     -1.0085701     -1.0085973      1.1027525e-07  3.5348114e-07 -1.2536613e-07  8.4840085      12.726         16.968         1831.9924    
        15   0             -1269.12       -2.8759392     -6.6104303     -1.0086403     -1.0087471      5.9705405e-07  1.0117958e-06 -6.083287e-07   8.4840085      12.726         16.968         1831.9924    
        16   0             -1269.12       -2.8963789     -6.6307104     -1.0220972     -1.0363289      0.00011118903  0.00013891096 -7.037237e-05   8.4840085      12.726         16.968         1831.9924    
        17   0             -1269.1201     -43.524148     -46.839567     -27.908094     -55.824782      0.228473       0.27517851    -0.14194504     8.4840085      12.726         16.968         1831.9924    
        18   0             -1269.1204     -161.82296     -163.91733     -106.20756     -215.34399      0.89385352     1.0712017     -0.56827799     8.4840085      12.726         16.968         1831.9924    
        19   0             -1269.1209     -357.75625     -357.83441     -235.94112     -479.49322      1.9961519      2.3787028     -1.3006849      8.4840085      12.726         16.968         1831.9924    
        20   0             -1269.1216     -631.28468     -628.56025     -417.17157     -848.1222       3.5358137      4.1857463     -2.3642468      8.4840085      12.726         16.968         1831.9924    
        21   0             -1269.1224     -982.4897      -976.17865     -650.09511     -1321.1953      5.5163245      6.4801338     -3.7889731      8.4840085      12.726         16.968         1831.9924    
        22   0             -1269.1233     -1412.2384     -1401.5105     -935.53228     -1899.6725      7.9571936      9.2612497     -5.6160259      8.4840085      12.726         16.968         1831.9924    
        23   0             -1269.1246     -1926.1785     -1909.8409     -1277.8941     -2590.8006      10.979379      12.617266     -7.927624       8.4840085      12.726         16.968         1831.9924    
        24   0             -1269.1277     -2497.0766     -2471.7865     -1660.9852     -3358.458       15.5097        16.817133     -10.656344      8.4840085      12.726         16.968         1831.9924    
        25   0             -1269.1289     -2656.6291     -2637.1096     -1754.0619     -3578.7159      16.091591      16.711178     -14.682964      8.4840085      12.726         16.968         1831.9924    
        26   0             -1269.13       -2926.8789     -2926.2302     -1912.6626     -3941.7438      21.592591      17.52834      -12.190731      8.4840085      12.726         16.968         1831.9924    
        27   0             -1269.1331     -3552.0573     -3600.332      -2278.2251     -4777.6147      20.105437      20.789185     -20.30063       8.4840085      12.726         16.968         1831.9924    
        28   0             -1269.1386     -4313.626      -4420.5361     -2717.946      -5802.3959      26.842574      24.980786     -25.036332      8.4840085      12.726         16.968         1831.9924    
        29   0             -1269.1407     -4364.9701     -4471.1156     -2749.5249     -5874.2699      32.721222      26.255839     -21.048727      8.4840085      12.726         16.968         1831.9924    
        30   0             -1269.142      -4475.5688     -4597.0321     -2808.0368     -6021.6376      28.560783      29.068468     -28.021817      8.4840085      12.726         16.968         1831.9924    
        31   0             -1269.143      -4656.3798     -4800.9256     -2923.1106     -6245.1031      38.261593      29.069802     -19.287028      8.4840085      12.726         16.968         1831.9924    
        32   0             -1269.1466     -5345.2237     -5593.5036     -3340.516      -7101.6515      32.057542      31.636068     -36.684058      8.4840085      12.726         16.968         1831.9924    
        33   0             -1269.1524     -6115.7157     -6460.6401     -3825.5399     -8060.967       40.309266      33.35124      -34.685492      8.4840085      12.726         16.968         1831.9924    
        34   0             -1269.1572     -6852.1044     -7286.7834     -4307.0438     -8962.4859      45.00303       34.540077     -49.385504      8.4840085      12.726         16.968         1831.9924    
        35   0             -1269.1606     -7839.1754     -8411.5172     -4962.611      -10143.398      46.77603       36.709134     -53.472878      8.4840085      12.726         16.968         1831.9924    
        36   0             -1269.1649     -8860.7267     -9562.596      -5677.5387     -11342.045      53.14731       36.376508     -55.985387      8.4840085      12.726         16.968         1831.9924    
        37   0             -1269.1702     -10068.054     -10916.152     -6537.3202     -12750.69       54.60877       36.378176     -75.205147      8.4840085      12.726         16.968         1831.9924    
        38   0             -1269.1723     -10245.234     -11114.393     -6678.5791     -12942.731      53.731615      36.792673     -74.02222       8.4840085      12.726         16.968         1831.9924    
        39   0             -1269.1732     -10489.44      -11391.449     -6890.9181     -13185.952      56.561451      35.819291     -77.222874      8.4840085      12.726         16.968         1831.9924    
        40   0             -1269.1743     -10908.627     -11870.972     -7274.3245     -13580.585      51.964505      34.049619     -80.519074      8.4840085      12.726         16.968         1831.9924    
        41   0             -1269.1777     -12214.131     -13356.403     -8497.3234     -14788.667      57.295868      25.415532     -87.447768      8.4840085      12.726         16.968         1831.9924    
        42   0             -1269.1811     -13550.023     -14854.003     -9806.9765     -15989.09       46.911926      17.267351     -106.90859      8.4840085      12.726         16.968         1831.9924    
        43   0             -1269.1845     -15059.337     -16529.557     -11339.807     -17308.648      49.100821      5.3090965     -113.89574      8.4840085      12.726         16.968         1831.9924    
        44   0             -1269.1858     -15157.792     -16633.128     -11461.461     -17378.786      51.838909      4.2633745     -112.93941      8.4840085      12.726         16.968         1831.9924    
        45   0             -1269.186      -15235.826     -16704.538     -11590.352     -17412.586      48.057088      3.0930763     -115.53758      8.4840085      12.726         16.968         1831.9924    
        46   0             -1269.1866     -15631.865     -17058.208     -12272.132     -17565.256      53.768282     -7.1622914     -107.65516      8.4840085      12.726         16.968         1831.9924    
        47   0             -1269.1883     -16869.759     -18123.752     -14444.128     -18041.398      35.246667     -35.32975      -123.22166      8.4840085      12.726         16.968         1831.9924    
        48   0             -1269.1901     -18255.04      -19254.798     -16927.731     -18582.592      38.981181     -68.774062     -103.91792      8.4840085      12.726         16.968         1831.9924    
        49   0             -1269.1908     -18778.769     -19655.544     -17893.322     -18787.441      31.385355     -82.020833     -116.72021      8.4840085      12.726         16.968         1831.9924    
        50   0             -1269.191      -18878.385     -19710.915     -18103.872     -18820.369      32.592173     -84.656512     -108.54246      8.4840085      12.726         16.968         1831.9924    
        51   0             -1269.191      -18889.507     -19698.641     -18152.64      -18817.241      31.100711     -85.899364     -115.06802      8.4840085      12.726         16.968         1831.9924    
        52   0             -1269.191      -18874.901     -19642.691     -18185.64      -18796.372      31.109751     -86.637193     -111.05848      8.4840085      12.726         16.968         1831.9924    
        53   0             -1269.1911     -18789.978     -19391.228     -18278.376     -18700.33       28.308834     -90.63689      -118.97514      8.4840085      12.726         16.968         1831.9924    
        54   0             -1269.1912     -18631.414     -18925.811     -18444.054     -18524.377      23.818703     -96.897175     -118.98063      8.4840085      12.726         16.968         1831.9924    
        55   0             -1269.1913     -18563.607     -18729.487     -18507.979     -18453.356      22.765199     -99.610551     -121.56956      8.4840085      12.726         16.968         1831.9924    
        56   0             -1269.1913     -18544.801     -18679.687     -18518.528     -18436.188      21.694136     -100.20972     -121.30605      8.4840085      12.726         16.968         1831.9924    
        57   0             -1269.1913     -18528.743     -18642.634     -18517.565     -18426.03       22.120473     -100.54593     -120.44963      8.4840085      12.726         16.968         1831.9924    
        58   0             -1269.1913     -18508.803     -18601.378     -18508.407     -18416.625      21.459892     -100.93078     -119.75068      8.4840085      12.726         16.968         1831.9924    
        59   0             -1269.1913     -18450.879     -18485.883     -18473.456     -18393.298      22.405005     -101.64099     -114.28178      8.4840085      12.726         16.968         1831.9924    
        60   0             -1269.1913     -18385.038     -18355.019     -18430.529     -18369.567      21.646935     -102.74232     -111.01088      8.4840085      12.726         16.968         1831.9924    
        61   0             -1269.1913     -18365.165     -18316.159     -18415.858     -18363.478      22.288935     -102.85661     -108.08638      8.4840085      12.726         16.968         1831.9924    
        62   0             -1269.1913     -18359.833     -18306.035     -18409.765     -18363.699      22.06299      -102.99455     -108.52287      8.4840085      12.726         16.968         1831.9924    
        63   0             -1269.1913     -18358.228     -18303.691     -18404.796     -18366.196      22.292102     -102.90929     -107.70525      8.4840085      12.726         16.968         1831.9924    
        64   0             -1269.1913     -18357.589     -18304.71      -18393.186     -18374.871      22.191003     -102.92444     -108.84567      8.4840085      12.726         16.968         1831.9924    
        65   0             -1269.1913     -18358.55      -18313.191     -18359.598     -18402.86       22.910297     -102.42961     -107.10995      8.4840085      12.726         16.968         1831.9924    
        66   0             -1269.1913     -18362.599     -18333.132     -18298.028     -18456.637      23.195711     -102.07705     -110.4709       8.4840085      12.726         16.968         1831.9924    
        67   0             -1269.1913     -18365.273     -18342.609     -18274.967     -18478.243      23.681262     -101.72246     -109.02488      8.4840085      12.726         16.968         1831.9924    
        68   0             -1269.1913     -18366.909     -18347.271     -18268.542     -18484.913      23.64038      -101.75438     -110.12293      8.4840085      12.726         16.968         1831.9924    
        69   0             -1269.1913     -18369.074     -18352.225     -18267.909     -18487.088      23.701273     -101.75584     -109.55797      8.4840085      12.726         16.968         1831.9924    
        70   0             -1269.1913     -18374.633     -18364.196     -18270.706     -18488.996      23.603508     -101.95505     -110.45881      8.4840085      12.726         16.968         1831.9924    
        71   0             -1269.1913     -18390.491     -18397.897     -18282.615     -18490.962      23.512744     -102.44479     -109.78918      8.4840085      12.726         16.968         1831.9924    
        72   0             -1269.1913     -18412.743     -18444.074     -18302.018     -18492.135      23.265252     -103.19745     -110.91114      8.4840085      12.726         16.968         1831.9924    
        73   0             -1269.1913     -18423.142     -18465.587     -18312.262     -18491.576      23.178629     -103.62859     -110.49286      8.4840085      12.726         16.968         1831.9924    
        74   0             -1269.1913     -18425.485     -18470.491     -18316.032     -18489.932      23.166221     -103.7521      -110.71529      8.4840085      12.726         16.968         1831.9924    
        75   0             -1269.1913     -18427.891     -18475.828     -18323.799     -18484.045      23.168378     -104.19211     -110.53917      8.4840085      12.726         16.968         1831.9924    
        76   0             -1269.1913     -18432.467     -18486.348     -18345.944     -18465.109      23.262143     -105.15186     -110.50174      8.4840085      12.726         16.968         1831.9924    
        77   0             -1269.1913     -18444.295     -18510.452     -18409.194     -18413.237      23.442712     -108.47304     -110.38437      8.4840085      12.726         16.968         1831.9924    
        78   0             -1269.1914     -18454.586     -18528.578     -18461.905     -18373.273      23.710511     -110.68096     -109.67936      8.4840085      12.726         16.968         1831.9924    
        79   0             -1269.1914     -18456.991     -18531.809     -18477.517     -18361.647      23.720839     -111.68441     -109.96509      8.4840085      12.726         16.968         1831.9924    
        80   0             -1269.1914     -18456.66      -18530.326     -18481.657     -18357.998      23.780493     -111.97419     -109.42304      8.4840085      12.726         16.968         1831.9924    
        81   0             -1269.1914     -18452.14      -18519.494     -18480.969     -18355.957      23.674411     -112.97396     -109.84734      8.4840085      12.726         16.968         1831.9924    
        82   0             -1269.1914     -18428.43      -18456.8       -18472.062     -18356.428      23.685808     -116.78344     -106.62774      8.4840085      12.726         16.968         1831.9924    
        83   0             -1269.1914     -18397.482     -18322.442     -18499.087     -18370.917      22.864387     -126.07122     -105.77344      8.4840085      12.726         16.968         1831.9924    
        84   0             -1269.1914     -18397.964     -18222.251     -18574.936     -18396.704      22.865377     -133.02642     -100.59024      8.4840085      12.726         16.968         1831.9924    
        85   0             -1269.1914     -18403.802     -18195.823     -18606.868     -18408.713      22.439285     -135.28321     -101.48445      8.4840085      12.726         16.968         1831.9924    
        86   0             -1269.1914     -18410.664     -18184.765     -18626.097     -18421.129      22.818379     -136.65822     -99.326946      8.4840085      12.726         16.968         1831.9924    
        87   0             -1269.1914     -18425.299     -18177.872     -18653.255     -18444.769      22.326015     -138.60789     -100.97951      8.4840085      12.726         16.968         1831.9924    
        88   0             -1269.1915     -18519.743     -18186.265     -18819.773     -18553.191      24.059672     -145.50305     -94.92932       8.4840085      12.726         16.968         1831.9924    
        89   0             -1269.1915     -18666.253     -18222.635     -19099.602     -18676.522      23.068316     -150.92465     -96.779405      8.4840085      12.726         16.968         1831.9924    
        90   0             -1269.1915     -18704.245     -18239.637     -19168.733     -18704.365      24.549277     -152.13546     -93.362505      8.4840085      12.726         16.968         1831.9924    
        91   0             -1269.1915     -18732.482     -18261.073     -19212.843     -18723.531      23.099604     -152.28959     -96.386544      8.4840085      12.726         16.968         1831.9924    
        92   0             -1269.1915     -18754.139     -18289.929     -19236.455     -18736.032      25.479989     -152.64402     -91.716486      8.4840085      12.726         16.968         1831.9924    
        93   0             -1269.1916     -18828.95      -18410.604     -19308.892     -18767.354      23.285501     -150.62042     -96.155642      8.4840085      12.726         16.968         1831.9924    
        94   0             -1269.1917     -18996.369     -18618.511     -19545.032     -18825.563      29.272288     -147.51077     -86.302791      8.4840085      12.726         16.968         1831.9924    
        95   0             -1269.1917     -19057.502     -18691.739     -19638.233     -18842.534      26.369211     -145.26155     -90.658663      8.4840085      12.726         16.968         1831.9924    
        96   0             -1269.1917     -19070.123     -18717.005     -19651.801     -18841.562      29.626099     -144.55787     -85.447907      8.4840085      12.726         16.968         1831.9924    
        97   0             -1269.1918     -19064.248     -18760.832     -19614.238     -18817.675      25.439695     -140.67361     -90.53326       8.4840085      12.726         16.968         1831.9924    
        98   0             -1269.1918     -19055.103     -18864.079     -19545.84      -18755.391      32.851318     -132.4131      -76.555011      8.4840085      12.726         16.968         1831.9924    
        99   0             -1269.1919     -19094.552     -19004.733     -19583.387     -18695.535      23.555553     -119.91729     -85.094308      8.4840085      12.726         16.968         1831.9924    
       100   0             -1269.192      -19144.023     -19102.683     -19665.931     -18663.454      31.230543     -112.18211     -72.077394      8.4840085      12.726         16.968         1831.9924    
       101   0             -1269.192      -19153.701     -19126.359     -19683.625     -18651.119      25.725563     -108.66974     -78.097661      8.4840085      12.726         16.968         1831.9924    
Loop time of 0.035711 on 4 procs for 100 steps with 192 atoms

54.7% CPU use with 4 MPI tasks x 1 OpenMP threads

Minimization stats:
  Stopping criterion = max iterations
  Energy initial, next-to-last, final = 
     -1269.11999987521   -1269.1919620005  -1269.19198284325
  Force two-norm initial, final = 0.0020300459 0.012339757
  Force max component initial, final = 0.00021599835 0.0015369686
  Final line search alpha, max atom move = 0.77875766 0.001196926
  Iterations, force evaluations = 100 178

MPI task timing breakdown:
Section |  min time  |  avg time  |  max time  |%varavg| %total
---------------------------------------------------------------
Pair    | 0.029287   | 0.029898   | 0.030392   |   0.2 | 83.72
Neigh   | 0          | 0          | 0          |   0.0 |  0.00
Comm    | 0.003195   | 0.0034642  | 0.003873   |   0.5 |  9.70
Output  | 0.001072   | 0.0011205  | 0.00123    |   0.2 |  3.14
Modify  | 0          | 0          | 0          |   0.0 |  0.00
Other   |            | 0.001228   |            |       |  3.44

Nlocal:             48 ave          56 max          43 min
Histogram: 2 0 0 0 1 0 0 0 0 1
Nghost:            600 ave         605 max         592 min
Histogram: 1 0 0 0 0 1 0 0 0 2
Neighs:           1344 ave        1512 max        1215 min
Histogram: 2 0 0 0 0 0 0 1 0 1
FullNghs:         2688 ave        3136 max        2408 min
Histogram: 2 0 0 0 1 0 0 0 0 1

Total # of neighbors = 10752
Ave neighs/atom = 56
Neighbor list builds = 0
Dangerous builds = 0

# Obtain new stress tensor

variable tmp equal pe
variable e1 equal ${tmp}
variable e1 equal -1269.19198284325
variable tmp equal press
variable p1 equal ${tmp}
variable p1 equal -19153.7009343337
variable tmp equal pxx
variable pxx1 equal ${tmp}
variable pxx1 equal -19126.3590429151
variable tmp equal pyy
variable pyy1 equal ${tmp}
variable pyy1 equal -19683.6249653244
variable tmp equal pzz
variable pzz1 equal ${tmp}
variable pzz1 equal -18651.1187947616
variable tmp equal pxy
variable pxy1 equal ${tmp}
variable pxy1 equal 25.7255631917277
variable tmp equal pxz
variable pxz1 equal ${tmp}
variable pxz1 equal -108.669735552832
variable tmp equal pyz
variable pyz1 equal ${tmp}
variable pyz1 equal -78.097660693864

# Compute elastic constant from pressure tensor

variable C1pos equal ${d1}
variable C1pos equal 1912635.90429152
variable C2pos equal ${d2}
variable C2pos equal 1968362.49653243
variable C3pos equal ${d3}
variable C3pos equal 1865111.8794761
variable C4pos equal ${d4}
variable C4pos equal 7809.7660693864
variable C5pos equal ${d5}
variable C5pos equal 10866.9735552832
variable C6pos equal ${d6}
variable C6pos equal -2572.55631917277

# Combine positive and negative

variable C1${dir} equal 0.5*(${C1neg}+${C1pos})
variable C11 equal 0.5*(${C1neg}+${C1pos})
variable C11 equal 0.5*(-1816730.69782391+${C1pos})
variable C11 equal 0.5*(-1816730.69782391+1912635.90429152)
variable C2${dir} equal 0.5*(${C2neg}+${C2pos})
variable C21 equal 0.5*(${C2neg}+${C2pos})
variable C21 equal 0.5*(-1926251.4482753+${C2pos})
variable C21 equal 0.5*(-1926251.4482753+1968362.49653243)
variable C3${dir} equal 0.5*(${C3neg}+${C3pos})
variable C31 equal 0.5*(${C3neg}+${C3pos})
variable C31 equal 0.5*(-1854820.04202046+${C3pos})
variable C31 equal 0.5*(-1854820.04202046+1865111.8794761)
variable C4${dir} equal 0.5*(${C4neg}+${C4pos})
variable C41 equal 0.5*(${C4neg}+${C4pos})
variable C41 equal 0.5*(-9251.0645035672+${C4pos})
variable C41 equal 0.5*(-9251.0645035672+7809.7660693864)
variable C5${dir} equal 0.5*(${C5neg}+${C5pos})
variable C51 equal 0.5*(${C5neg}+${C5pos})
variable C51 equal 0.5*(-15405.5821677519+${C5pos})
variable C51 equal 0.5*(-15405.5821677519+10866.9735552832)
variable C6${dir} equal 0.5*(${C6neg}+${C6pos})
variable C61 equal 0.5*(${C6neg}+${C6pos})
variable C61 equal 0.5*(2455.62420994621+${C6pos})
variable C61 equal 0.5*(2455.62420994621+-2572.55631917277)

# Delete dir to make sure it is not reused

variable dir delete

# uyy Perturbation

variable dir equal 2
include displace.mod
# NOTE: This script should not need to be
# modified. See in.elastic for more info.
#
# Find which reference length to use

if "${dir} == 1" then    "variable len0 equal ${lx0}"
if "${dir} == 2" then    "variable len0 equal ${ly0}"
variable len0 equal ${ly0}
variable len0 equal 12.7260000081412
if "${dir} == 3" then    "variable len0 equal ${lz0}"
if "${dir} == 4" then    "variable len0 equal ${lz0}"
if "${dir} == 5" then    "variable len0 equal ${lz0}"
if "${dir} == 6" then    "variable len0 equal ${ly0}"

# Reset box and simulation parameters

clear
  using 1 OpenMP thread(s) per MPI task
Loaded 1 plugins from C:\Program Files\LAMMPS 64-bit 23Jun2022\plugins
Loaded 0 plugins from C:\Program Files\LAMMPS 64-bit 23Jun2022-MPI\plugins
Loaded 1 plugins from C:\Program Files\LAMMPS 64-bit 22Dec2022-MSMPI\plugins
Loaded 1 plugins from C:\Program Files\LAMMPS 64-bit 28Mar2023-MPI\plugins
box tilt large

The 'box' command has been removed and will be ignored

read_restart restart.equil
Reading restart file ...
  restart file = 22 Dec 2022, LAMMPS = 22 Dec 2022
  restoring atom style atomic from restart
  triclinic box = (0.0057669986 0.0057669986 0.0057669986) to (8.489767 12.731767 16.973767) with tilt (0 0 0)
  1 by 2 by 2 MPI processor grid
  pair style meam stores no restart info
  192 atoms
  read_restart CPU = 0.000 seconds
include potential.mod
# NOTE: This script can be modified for different pair styles
# See in.elastic for more info.

# Choose potential
#-----------------------
#pair_style	sw
#pair_coeff * * Si.sw Si
#-----------------------
#pair_style morse	2.83994742	# D0[eV] a[1/A] r0[A] rc[A], 1NN for BCC
#pair_coeff 1 1	2.1173	1.0202	2.4595	2.6497	#	Fe-Fe
#-----------------------
#pair_style smatb # R0(A)   p       q     A(eV)   xi(eV)  Rcs(A)   Rc(A), 4NN: Rcs=4NN, Rc=(4NN+5NN)/2
#pair_coeff 1 1	2.4802	7.0149	2.3779	0.3144	3.0551	4.033	4.176	#	Co	Co
#-----------------------
#pair_style eam/alloy
#pair_coeff * * AlCrFeCoNi_Zhou04.eam.alloy Fe
#-----------------------
pair_style meam
pair_coeff * * ./../../library.meam Ti V Cr Fe N ./../../TiVCrFeN.meam Ti N
#-----------------------

# Setup neighbor style
neighbor 1.0 nsq
neigh_modify once no every 1 delay 0 check yes

# Setup minimization style
min_style	     cg
min_modify	     dmax ${dmax} line quadratic
min_modify	     dmax 0.01 line quadratic

# Setup output
thermo		1
thermo_style custom step temp pe press pxx pyy pzz pxy pxz pyz lx ly lz vol
thermo_modify norm no

# Negative deformation

variable delta equal -${up}*${len0}
variable delta equal -1e-06*${len0}
variable delta equal -1e-06*12.7260000081412
variable deltaxy equal -${up}*xy
variable deltaxy equal -1e-06*xy
variable deltaxz equal -${up}*xz
variable deltaxz equal -1e-06*xz
variable deltayz equal -${up}*yz
variable deltayz equal -1e-06*yz
if "${dir} == 1" then    "change_box all x delta 0 ${delta} xy delta ${deltaxy} xz delta ${deltaxz} remap units box"
if "${dir} == 2" then    "change_box all y delta 0 ${delta} yz delta ${deltayz} remap units box"
change_box all y delta 0 ${delta} yz delta ${deltayz} remap units box
change_box all y delta 0 -1.27260000081412e-05 yz delta ${deltayz} remap units box
change_box all y delta 0 -1.27260000081412e-05 yz delta -0 remap units box
Changing box ...
  triclinic box = (0.0057669986 0.0057669986 0.0057669986) to (8.489767 12.731754 16.973767) with tilt (0 0 0)
  triclinic box = (0.0057669986 0.0057669986 0.0057669986) to (8.489767 12.731754 16.973767) with tilt (0 0 0)
if "${dir} == 3" then    "change_box all z delta 0 ${delta} remap units box"
if "${dir} == 4" then    "change_box all yz delta ${delta} remap units box"
if "${dir} == 5" then    "change_box all xz delta ${delta} remap units box"
if "${dir} == 6" then    "change_box all xy delta ${delta} remap units box"

# Relax atoms positions

minimize ${etol} ${ftol} ${maxiter} ${maxeval}
minimize 0 ${ftol} ${maxiter} ${maxeval}
minimize 0 1e-10 ${maxiter} ${maxeval}
minimize 0 1e-10 100 ${maxeval}
minimize 0 1e-10 100 1000
Neighbor list info ...
  update: every = 1 steps, delay = 0 steps, check = yes
  max neighbors/atom: 2000, page size: 100000
  master list distance cutoff = 5
  ghost atom cutoff = 5
  2 neighbor lists, perpetual/occasional/extra = 2 0 0
  (1) pair meam, perpetual
      attributes: full, newton on
      pair build: full/nsq
      stencil: none
      bin: none
  (2) pair meam, perpetual, half/full from (1)
      attributes: half, newton on
      pair build: halffull/newton
      stencil: none
      bin: none
Per MPI rank memory allocation (min/avg/max) = 9.855 | 9.859 | 9.864 Mbytes
   Step          Temp          PotEng         Press           Pxx            Pyy            Pzz            Pxy            Pxz            Pyz             Lx             Ly             Lz           Volume    
         1   0             -1269.12        2.8761721      1.0088529      6.6107614      1.008902      -6.8838862e-06  1.7888836e-05 -1.2376312e-05  8.484          12.725987      16.968         1831.9887    
         2   0             -1269.12        2.8758059      1.0085246      6.6103534      1.0085397      1.2075523e-07  3.6933313e-07  1.3196999e-06  8.484          12.725987      16.968         1831.9887    
         3   0             -1269.12        2.8757951      1.0085181      6.6103456      1.0085216      2.0142518e-07  4.788188e-07   1.590968e-07   8.484          12.725987      16.968         1831.9887    
         4   0             -1269.12        2.8757937      1.0085211      6.6103459      1.008514      -2.4264294e-07  2.668479e-07  -4.2056206e-08  8.484          12.725987      16.968         1831.9887    
         5   0             -1269.12        2.8757935      1.0085213      6.6103471      1.0085123     -1.0576666e-07  1.3724093e-07  8.8153682e-09  8.484          12.725987      16.968         1831.9887    
         6   0             -1269.12        2.8757936      1.0085214      6.6103471      1.0085123     -1.0789602e-07  7.7564917e-08 -4.169382e-08   8.484          12.725987      16.968         1831.9887    
         7   0             -1269.12        2.8757938      1.0085216      6.6103473      1.0085125     -7.4974846e-08  6.9394449e-08 -2.2906305e-08  8.484          12.725987      16.968         1831.9887    
         8   0             -1269.12        2.8757941      1.0085218      6.6103476      1.0085128     -1.028846e-07   6.1004709e-08 -2.2870019e-08  8.484          12.725987      16.968         1831.9887    
         9   0             -1269.12        2.875796       1.0085232      6.6103499      1.008515      -8.2569603e-08  1.2396142e-07 -4.7434429e-08  8.484          12.725987      16.968         1831.9887    
        10   0             -1269.12        2.8757948      1.0085207      6.6103508      1.0085127      1.1734244e-08  1.5958709e-07 -5.099645e-08   8.484          12.725987      16.968         1831.9887    
        11   0             -1269.12        2.8757878      1.0085134      6.6103471      1.0085031     -9.238773e-10   2.0295064e-07 -1.1512241e-07  8.484          12.725987      16.968         1831.9887    
        12   0             -1269.12        2.875783       1.0085084      6.6103441      1.0084964      1.0557945e-07  2.5213973e-07 -1.0478376e-07  8.484          12.725987      16.968         1831.9887    
        13   0             -1269.12        2.8757794      1.0085048      6.6103419      1.0084916      7.434029e-08   2.6714743e-07 -1.5284843e-07  8.484          12.725987      16.968         1831.9887    
        14   0             -1269.12        2.8757726      1.0084978      6.6103375      1.0084824      1.104704e-07   3.5418072e-07 -1.2547502e-07  8.484          12.725987      16.968         1831.9887    
        15   0             -1269.12        2.8756617      1.0083859      6.6102671      1.0083321      5.9882269e-07  1.0154045e-06 -6.1223755e-07  8.484          12.725987      16.968         1831.9887    
        16   0             -1269.12        2.8551393      0.98801871     6.5967513      0.98064791     0.00011167356  0.00013954707 -7.0799221e-05  8.484          12.725987      16.968         1831.9887    
        17   0             -1269.1201     -37.774257     -39.232648     -20.29845      -53.791672      0.22855253     0.27533995    -0.14216031     8.484          12.725987      16.968         1831.9887    
        18   0             -1269.1204     -156.07085     -156.33789     -98.620124     -213.25453      0.89410119     1.07177       -0.56912341     8.484          12.725987      16.968         1831.9887    
        19   0             -1269.1209     -351.99812     -350.29812     -228.38889     -477.30735      1.9966206      2.3799017     -1.3026217      8.484          12.725987      16.968         1831.9887    
        20   0             -1269.1216     -625.51681     -621.08276     -409.66752     -845.80014      3.5365188      4.1877772     -2.3677772      8.484          12.725987      16.968         1831.9887    
        21   0             -1269.1224     -976.70862     -968.77579     -642.65228     -1318.6978      5.5172465      6.4831825     -3.7946209      8.484          12.725987      16.968         1831.9887    
        22   0             -1269.1233     -1406.4416     -1394.1992     -928.16433     -1896.9614      7.9582995      9.2655292     -5.624233       8.484          12.725987      16.968         1831.9887    
        23   0             -1269.1246     -1920.3689     -1902.6455     -1270.6188     -2587.8426      10.980797      12.623324     -7.9380504      8.484          12.725987      16.968         1831.9887    
        24   0             -1269.1277     -2491.1763     -2464.6565     -1653.7502     -3355.1223      15.514675      16.828058     -10.657448      8.484          12.725987      16.968         1831.9887    
        25   0             -1269.1289     -2653.3822     -2632.7027     -1748.5807     -3578.8633      16.111252      16.733073     -14.724815      8.484          12.725987      16.968         1831.9887    
        26   0             -1269.1301     -2929.6613     -2928.1528     -1911.0558     -3949.7752      21.667665      17.579469     -12.240054      8.484          12.725987      16.968         1831.9887    
[...]
        63   0             -1269.1913     -18395.82      -18362.84      -18462.693     -18361.928      21.911621     -103.26265     -108.98077      8.484          12.726         16.968         1831.9906    
        64   0             -1269.1913     -18389.401     -18353.945     -18449.858     -18364.399      22.175945     -103.1458      -108.30978      8.484          12.726         16.968         1831.9906    
        65   0             -1269.1913     -18376.768     -18338.243     -18418.305     -18373.755      22.036774     -103.04724     -109.35376      8.484          12.726         16.968         1831.9906    
        66   0             -1269.1913     -18344.705     -18300.455     -18330.782     -18402.879      22.538801     -102.3286      -108.50866      8.484          12.726         16.968         1831.9906    
        67   0             -1269.1913     -18325.342     -18278.155     -18274.411     -18423.46       22.718251     -102.07015     -109.98022      8.484          12.726         16.968         1831.9906    
        68   0             -1269.1913     -18320.245     -18272.988     -18256.644     -18431.103      22.750277     -101.90209     -109.59883      8.484          12.726         16.968         1831.9906    
        69   0             -1269.1913     -18321.103     -18275.147     -18254.623     -18433.539      22.85658      -101.91647     -109.76459      8.484          12.726         16.968         1831.9906    
        70   0             -1269.1913     -18327.588     -18287.059     -18256.033     -18439.673      22.789324     -101.98544     -109.80385      8.484          12.726         16.968         1831.9906    
        71   0             -1269.1914     -18352.778     -18331.947     -18267.521     -18458.866      23.260012     -102.23147     -109.54504      8.484          12.726         16.968         1831.9906    
        72   0             -1269.1914     -18392.316     -18401.424     -18288.276     -18487.247      23.196302     -102.80837     -110.50788      8.484          12.726         16.968         1831.9906    
        73   0             -1269.1914     -18430.447     -18467.851     -18310.402     -18513.087      23.763362     -103.20374     -109.74943      8.484          12.726         16.968         1831.9906    
        74   0             -1269.1914     -18439.744     -18484.103     -18316.819     -18518.309      23.676551     -103.44756     -110.47658      8.484          12.726         16.968         1831.9906    
        75   0             -1269.1914     -18442.77      -18489.569     -18320.304     -18518.438      23.769204     -103.51822     -110.00156      8.484          12.726         16.968         1831.9906    
        76   0             -1269.1914     -18445.103     -18494.47      -18327.184     -18513.656      23.71174      -103.9038      -110.66892      8.484          12.726         16.968         1831.9906    
        77   0             -1269.1914     -18451.243     -18508.857     -18359.488     -18485.385      23.666774     -105.40329     -109.85005      8.484          12.726         16.968         1831.9906    
        78   0             -1269.1914     -18464.657     -18537.037     -18434.069     -18422.866      23.620953     -109.02118     -111.19533      8.484          12.726         16.968         1831.9906    
        79   0             -1269.1914     -18470.375     -18547.593     -18468.546     -18394.985      23.386864     -110.68533     -111.04756      8.484          12.726         16.968         1831.9906    
        80   0             -1269.1914     -18471.973     -18550.063     -18485.672     -18380.185      23.49495      -111.61394     -110.91118      8.484          12.726         16.968         1831.9906    
        81   0             -1269.1914     -18470.577     -18547.206     -18491.126     -18373.398      23.302873     -112.25839     -111.19788      8.484          12.726         16.968         1831.9906    
        82   0             -1269.1914     -18463.916     -18534.018     -18493.773     -18363.956      23.45632      -113.23156     -109.89085      8.484          12.726         16.968         1831.9906    
        83   0             -1269.1914     -18437.204     -18476.268     -18499.093     -18336.253      22.835011     -117.57998     -109.89625      8.484          12.726         16.968         1831.9906    
        84   0             -1269.1914     -18401.51      -18372.34      -18536.429     -18295.76       22.720895     -124.65676     -103.65043      8.484          12.726         16.968         1831.9906    
        85   0             -1269.1914     -18391.025     -18321.112     -18570.266     -18281.697      22.345988     -128.63487     -103.62568      8.484          12.726         16.968         1831.9906    
        86   0             -1269.1914     -18389.496     -18306.625     -18579.651     -18282.212      22.327684     -129.7324      -102.0269       8.484          12.726         16.968         1831.9906    
        87   0             -1269.1914     -18390.542     -18279.035     -18595.955     -18296.637      22.443808     -132.31005     -101.92876      8.484          12.726         16.968         1831.9906    
        88   0             -1269.1914     -18402.536     -18243.16      -18633.301     -18331.147      22.341731     -136.3105      -100.23009      8.484          12.726         16.968         1831.9906    
        89   0             -1269.1915     -18465.148     -18191.059     -18780.933     -18423.452      23.105154     -143.45504     -96.88036       8.484          12.726         16.968         1831.9906    
        90   0             -1269.1915     -18549.449     -18169.133     -18968         -18511.214      23.079475     -149.08695     -96.630444      8.484          12.726         16.968         1831.9906    
        91   0             -1269.1915     -18572.359     -18170.9       -19012.347     -18533.829      23.528262     -149.75506     -94.212413      8.484          12.726         16.968         1831.9906    
        92   0             -1269.1915     -18617.146     -18190.64      -19080.172     -18580.627      23.483191     -151.56356     -96.816062      8.484          12.726         16.968         1831.9906    
        93   0             -1269.1915     -18696.358     -18236.801     -19197.22      -18655.053      24.779548     -152.26833     -91.144098      8.484          12.726         16.968         1831.9906    
        94   0             -1269.1916     -18822.47      -18317.755     -19392.927     -18756.728      25.061628     -153.70554     -94.717957      8.484          12.726         16.968         1831.9906    
        95   0             -1269.1916     -18894.681     -18370.728     -19504.128     -18809.188      26.296808     -152.90024     -88.957639      8.484          12.726         16.968         1831.9906    
        96   0             -1269.1916     -18947.94      -18419.715     -19579.519     -18844.584      25.751477     -152.82933     -94.153459      8.484          12.726         16.968         1831.9906    
        97   0             -1269.1917     -19002.68      -18484.254     -19646.544     -18877.242      27.547894     -150.20192     -85.552864      8.484          12.726         16.968         1831.9906    
        98   0             -1269.1917     -19110.594     -18615.41      -19786.839     -18929.532      26.697114     -146.6884      -91.247525      8.484          12.726         16.968         1831.9906    
        99   0             -1269.1917     -19187.185     -18710.306     -19892.894     -18958.355      28.721867     -142.18911     -83.476455      8.484          12.726         16.968         1831.9906    
       100   0             -1269.1918     -19217.579     -18763.727     -19926.415     -18962.595      26.562876     -139.86836     -89.654675      8.484          12.726         16.968         1831.9906    
       101   0             -1269.1918     -19250.965     -18848.064     -19952.668     -18952.162      30.349582     -132.80876     -76.815363      8.484          12.726         16.968         1831.9906    
Loop time of 0.035432 on 4 procs for 100 steps with 192 atoms

88.2% CPU use with 4 MPI tasks x 1 OpenMP threads

Minimization stats:
  Stopping criterion = max iterations
  Energy initial, next-to-last, final = 
     -1269.11999987895  -1269.19176102227  -1269.19179613609
  Force two-norm initial, final = 0.0020300532 0.020895988
  Force max component initial, final = 0.00021599843 0.0032342503
  Final line search alpha, max atom move = 0.73075873 0.0023634566
  Iterations, force evaluations = 100 180

MPI task timing breakdown:
Section |  min time  |  avg time  |  max time  |%varavg| %total
---------------------------------------------------------------
Pair    | 0.02962    | 0.029983   | 0.030228   |   0.1 | 84.62
Neigh   | 0          | 0          | 0          |   0.0 |  0.00
Comm    | 0.003228   | 0.0033997  | 0.003703   |   0.3 |  9.60
Output  | 0.000981   | 0.001024   | 0.001116   |   0.2 |  2.89
Modify  | 0          | 0          | 0          |   0.0 |  0.00
Other   |            | 0.001025   |            |       |  2.89

Nlocal:             48 ave          56 max          43 min
Histogram: 2 0 0 0 1 0 0 0 0 1
Nghost:            600 ave         605 max         592 min
Histogram: 1 0 0 0 0 1 0 0 0 2
Neighs:           1344 ave        1512 max        1215 min
Histogram: 2 0 0 0 0 0 0 1 0 1
FullNghs:         2688 ave        3136 max        2408 min
Histogram: 2 0 0 0 1 0 0 0 0 1

Total # of neighbors = 10752
Ave neighs/atom = 56
Neighbor list builds = 0
Dangerous builds = 0

# Obtain new stress tensor

variable tmp equal pe
variable e1 equal ${tmp}
variable e1 equal -1269.19179613609
variable tmp equal press
variable p1 equal ${tmp}
variable p1 equal -19250.9645173536
variable tmp equal pxx
variable pxx1 equal ${tmp}
variable pxx1 equal -18848.0641624172
variable tmp equal pyy
variable pyy1 equal ${tmp}
variable pyy1 equal -19952.6676522639
variable tmp equal pzz
variable pzz1 equal ${tmp}
variable pzz1 equal -18952.1617373798
variable tmp equal pxy
variable pxy1 equal ${tmp}
variable pxy1 equal 30.3495821222527
variable tmp equal pxz
variable pxz1 equal ${tmp}
variable pxz1 equal -132.808760737968
variable tmp equal pyz
variable pyz1 equal ${tmp}
variable pyz1 equal -76.8153626543612

# Compute elastic constant from pressure tensor

variable C1pos equal ${d1}
variable C1pos equal 1884806.41624173
variable C2pos equal ${d2}
variable C2pos equal 1995266.76522638
variable C3pos equal ${d3}
variable C3pos equal 1895216.17373792
variable C4pos equal ${d4}
variable C4pos equal 7681.53626543612
variable C5pos equal ${d5}
variable C5pos equal 13280.8760737968
variable C6pos equal ${d6}
variable C6pos equal -3034.95821222527

# Combine positive and negative

variable C1${dir} equal 0.5*(${C1neg}+${C1pos})
variable C16 equal 0.5*(${C1neg}+${C1pos})
variable C16 equal 0.5*(-1885007.68172136+${C1pos})
variable C16 equal 0.5*(-1885007.68172136+1884806.41624173)
variable C2${dir} equal 0.5*(${C2neg}+${C2pos})
variable C26 equal 0.5*(${C2neg}+${C2pos})
variable C26 equal 0.5*(-1994292.45210727+${C2pos})
variable C26 equal 0.5*(-1994292.45210727+1995266.76522638)
variable C3${dir} equal 0.5*(${C3neg}+${C3pos})
variable C36 equal 0.5*(${C3neg}+${C3pos})
variable C36 equal 0.5*(-1895060.32819969+${C3pos})
variable C36 equal 0.5*(-1895060.32819969+1895216.17373792)
variable C4${dir} equal 0.5*(${C4neg}+${C4pos})
variable C46 equal 0.5*(${C4neg}+${C4pos})
variable C46 equal 0.5*(-7705.51400628295+${C4pos})
variable C46 equal 0.5*(-7705.51400628295+7681.53626543612)
variable C5${dir} equal 0.5*(${C5neg}+${C5pos})
variable C56 equal 0.5*(${C5neg}+${C5pos})
variable C56 equal 0.5*(-13271.9250404053+${C5pos})
variable C56 equal 0.5*(-13271.9250404053+13280.8760737968)
variable C6${dir} equal 0.5*(${C6neg}+${C6pos})
variable C66 equal 0.5*(${C6neg}+${C6pos})
variable C66 equal 0.5*(3049.37848757724+${C6pos})
variable C66 equal 0.5*(3049.37848757724+-3034.95821222527)

# Delete dir to make sure it is not reused

variable dir delete

# Output final values

variable C11all equal ${C11}
variable C11all equal 47952.6032338049
variable C22all equal ${C22}
variable C22all equal 213.47504921502
variable C33all equal ${C33}
variable C33all equal 27171.07451721

variable C12all equal 0.5*(${C12}+${C21})
variable C12all equal 0.5*(-1011.91862565+${C21})
variable C12all equal 0.5*(-1011.91862565+21055.524128565)
variable C13all equal 0.5*(${C13}+${C31})
variable C13all equal 0.5*(38937.3335090701+${C31})
variable C13all equal 0.5*(38937.3335090701+5145.91872782004)
variable C23all equal 0.5*(${C23}+${C32})
variable C23all equal 0.5*(64245.9382677349+${C32})
variable C23all equal 0.5*(64245.9382677349+-1651.28230921994)

variable C44all equal ${C44}
variable C44all equal 17.5734498903648
variable C55all equal ${C55}
variable C55all equal 14.7858315595495
variable C66all equal ${C66}
variable C66all equal 7.21013767598492

variable C14all equal 0.5*(${C14}+${C41})
variable C14all equal 0.5*(163.476453950047+${C41})
variable C14all equal 0.5*(163.476453950047+-720.6492170904)
variable C15all equal 0.5*(${C15}+${C51})
variable C15all equal 0.5*(-57.2514961749548+${C51})
variable C15all equal 0.5*(-57.2514961749548+-2269.30430623435)
variable C16all equal 0.5*(${C16}+${C61})
variable C16all equal 0.5*(-100.63273981493+${C61})
variable C16all equal 0.5*(-100.63273981493+-58.46605461328)

variable C24all equal 0.5*(${C24}+${C42})
variable C24all equal 0.5*(-537.98753808008+${C42})
variable C24all equal 0.5*(-537.98753808008+41.5534311187653)
variable C25all equal 0.5*(${C25}+${C52})
variable C25all equal 0.5*(321.987005795003+${C52})
variable C25all equal 0.5*(321.987005795003+-16.8213537012998)
variable C26all equal 0.5*(${C26}+${C62})
variable C26all equal 0.5*(487.156559554976+${C62})
variable C26all equal 0.5*(487.156559554976+-103.543715917105)

variable C34all equal 0.5*(${C34}+${C43})
variable C34all equal 0.5*(-93.3352200048976+${C43})
variable C34all equal 0.5*(-93.3352200048976+-1554.63853641576)
variable C35all equal 0.5*(${C35}+${C53})
variable C35all equal 0.5*(50.8610560799716+${C53})
variable C35all equal 0.5*(50.8610560799716+-1526.41066754275)
variable C36all equal 0.5*(${C36}+${C63})
variable C36all equal 0.5*(77.9227691149572+${C63})
variable C36all equal 0.5*(77.9227691149572+-581.385824977435)

variable C45all equal 0.5*(${C45}+${C54})
variable C45all equal 0.5*(-8.78847014691019+${C54})
variable C45all equal 0.5*(-8.78847014691019+-8.67262609210047)
variable C46all equal 0.5*(${C46}+${C64})
variable C46all equal 0.5*(-11.9888704234149+${C64})
variable C46all equal 0.5*(-11.9888704234149+-8.36389994165484)
variable C56all equal 0.5*(${C56}+${C65})
variable C56all equal 0.5*(4.47551669575023+${C65})
variable C56all equal 0.5*(4.47551669575023+5.19212428449509)

# Average moduli for cubic crystals

variable C11cubic equal (${C11all}+${C22all}+${C33all})/3.0
variable C11cubic equal (47952.6032338049+${C22all}+${C33all})/3.0
variable C11cubic equal (47952.6032338049+213.47504921502+${C33all})/3.0
variable C11cubic equal (47952.6032338049+213.47504921502+27171.07451721)/3.0
variable C12cubic equal (${C12all}+${C13all}+${C23all})/3.0
variable C12cubic equal (10021.8027514575+${C13all}+${C23all})/3.0
variable C12cubic equal (10021.8027514575+22041.6261184451+${C23all})/3.0
variable C12cubic equal (10021.8027514575+22041.6261184451+31297.3279792575)/3.0
variable C44cubic equal (${C44all}+${C55all}+${C66all})/3.0
variable C44cubic equal (17.5734498903648+${C55all}+${C66all})/3.0
variable C44cubic equal (17.5734498903648+14.7858315595495+${C66all})/3.0
variable C44cubic equal (17.5734498903648+14.7858315595495+7.21013767598492)/3.0

variable bulkmodulus equal (${C11cubic}+2*${C12cubic})/3.0
variable bulkmodulus equal (25112.3842667433+2*${C12cubic})/3.0
variable bulkmodulus equal (25112.3842667433+2*21120.2522830534)/3.0
variable shearmodulus1 equal ${C44cubic}
variable shearmodulus1 equal 13.1898063752997
variable shearmodulus2 equal (${C11cubic}-${C12cubic})/2.0
variable shearmodulus2 equal (25112.3842667433-${C12cubic})/2.0
variable shearmodulus2 equal (25112.3842667433-21120.2522830534)/2.0
variable poissonratio equal 1.0/(1.0+${C11cubic}/${C12cubic})
variable poissonratio equal 1.0/(1.0+25112.3842667433/${C12cubic})
variable poissonratio equal 1.0/(1.0+25112.3842667433/21120.2522830534)

# For Stillinger-Weber silicon, the analytical results
# are known to be (E. R. Cowley, 1988):
#               C11 = 151.4 GPa
#               C12 = 76.4 GPa
#               C44 = 56.4 GPa

print "========================================="
=========================================
print "Components of the Elastic Constant Tensor"
Components of the Elastic Constant Tensor
print "========================================="
=========================================

print "Elastic Constant C11all = ${C11all} ${cunits}"
Elastic Constant C11all = 47952.6032338049 GPa
print "Elastic Constant C22all = ${C22all} ${cunits}"
Elastic Constant C22all = 213.47504921502 GPa
print "Elastic Constant C33all = ${C33all} ${cunits}"
Elastic Constant C33all = 27171.07451721 GPa

print "Elastic Constant C12all = ${C12all} ${cunits}"
Elastic Constant C12all = 10021.8027514575 GPa
print "Elastic Constant C13all = ${C13all} ${cunits}"
Elastic Constant C13all = 22041.6261184451 GPa
print "Elastic Constant C23all = ${C23all} ${cunits}"
Elastic Constant C23all = 31297.3279792575 GPa

print "Elastic Constant C44all = ${C44all} ${cunits}"
Elastic Constant C44all = 17.5734498903648 GPa
print "Elastic Constant C55all = ${C55all} ${cunits}"
Elastic Constant C55all = 14.7858315595495 GPa
print "Elastic Constant C66all = ${C66all} ${cunits}"
Elastic Constant C66all = 7.21013767598492 GPa

print "Elastic Constant C14all = ${C14all} ${cunits}"
Elastic Constant C14all = -278.586381570177 GPa
print "Elastic Constant C15all = ${C15all} ${cunits}"
Elastic Constant C15all = -1163.27790120465 GPa
print "Elastic Constant C16all = ${C16all} ${cunits}"
Elastic Constant C16all = -79.549397214105 GPa

print "Elastic Constant C24all = ${C24all} ${cunits}"
Elastic Constant C24all = -248.217053480657 GPa
print "Elastic Constant C25all = ${C25all} ${cunits}"
Elastic Constant C25all = 152.582826046852 GPa
print "Elastic Constant C26all = ${C26all} ${cunits}"
Elastic Constant C26all = 191.806421818936 GPa

print "Elastic Constant C34all = ${C34all} ${cunits}"
Elastic Constant C34all = -823.986878210329 GPa
print "Elastic Constant C35all = ${C35all} ${cunits}"
Elastic Constant C35all = -737.774805731389 GPa
print "Elastic Constant C36all = ${C36all} ${cunits}"
Elastic Constant C36all = -251.731527931239 GPa

print "Elastic Constant C45all = ${C45all} ${cunits}"
Elastic Constant C45all = -8.73054811950533 GPa
print "Elastic Constant C46all = ${C46all} ${cunits}"
Elastic Constant C46all = -10.1763851825349 GPa
print "Elastic Constant C56all = ${C56all} ${cunits}"
Elastic Constant C56all = 4.83382049012266 GPa

print "========================================="
=========================================
print "Average properties for a cubic crystal"
Average properties for a cubic crystal
print "========================================="
=========================================

print "Bulk Modulus = ${bulkmodulus} ${cunits}"
Bulk Modulus = 22450.9629442834 GPa
print "Shear Modulus 1 = ${shearmodulus1} ${cunits}"
Shear Modulus 1 = 13.1898063752997 GPa
print "Shear Modulus 2 = ${shearmodulus2} ${cunits}"
Shear Modulus 2 = 1996.06599184495 GPa
print "Poisson Ratio = ${poissonratio}"
Poisson Ratio = 0.456825607605246
Total wall time: 0:00:00
