LAMMPS (22 Dec 2022)
  using 1 OpenMP thread(s) per MPI task
Loaded 1 plugins from C:\Program Files\LAMMPS 64-bit 23Jun2022\plugins
Loaded 0 plugins from C:\Program Files\LAMMPS 64-bit 23Jun2022-MPI\plugins
Loaded 1 plugins from C:\Program Files\LAMMPS 64-bit 22Dec2022-MSMPI\plugins
Loaded 1 plugins from C:\Program Files\LAMMPS 64-bit 28Mar2023-MPI\plugins
# Compute elastic constant tensor for a crystal
#
# Written by Aidan Thompson (Sandia, athomps@sandia.gov)
#
#  This script uses the following three include files.
#
#   init.mod      (must be modified for different crystal structures)
# 	       	  Define units, deformation parameters and initial
#		  configuration of the atoms and simulation cell.
#
#
#   potential.mod    (must be modified for different pair styles)
# 		     Define pair style and other attributes
#		     not stored in restart file
#
#
#   displace.mod    (displace.mod should not need to be modified)
# 		    Perform positive and negative box displacements
# 		    in direction ${dir} and size ${up}.
# 		    It uses the resultant changes
#		    in stress to compute one
# 		    row of the elastic stiffness tensor
#
#		    Inputs variables:
#		    	   dir = the Voigt deformation component
#		    		    (1,2,3,4,5,6)
#		    Global constants:
#       	    	   up = the deformation magnitude (strain units)
#       		   cfac = conversion from LAMMPS pressure units to
#               	   output units for elastic constants
#
#
#  To run this on a different system, it should only be necessary to
#  modify the files init.mod and potential.mod. In order to calculate
#  the elastic constants correctly, care must be taken to specify
#  the correct units in init.mod (units, cfac and cunits). It is also
#  important to verify that the minimization of energy w.r.t atom
#  positions in the deformed cell is fully converged.
#  One indication of this is that the elastic constants are insensitive
#  to the choice of the variable ${up} in init.mod. Another is to check
#  the final max and two-norm forces reported in the log file. If you know
#  that minimization is not required, you can set maxiter = 0.0 in
#  init.mod.
#

include init.mod
# NOTE: This script can be modified for different atomic structures,
# units, etc. See in.elastic for more info.
#

# Define the finite deformation size. Try several values of this
# variable to verify that results do not depend on it.
variable up equal 1.0e-6

# Define the amount of random jiggle for atoms
# This prevents atoms from staying on saddle points
variable atomjiggle equal 1.0e-5

# Uncomment one of these blocks, depending on what units
# you are using in LAMMPS and for output

# metal units, elastic constants in eV/A^3
#units		metal
#variable cfac equal 6.2414e-7
#variable cunits string eV/A^3

# metal units, elastic constants in GPa
units		metal
variable cfac equal 1.0e-4
variable cunits string GPa

# real units, elastic constants in GPa
#units		real
#variable cfac equal 1.01325e-4
#variable cunits string GPa

# Define minimization parameters
variable etol equal 0.0
variable ftol equal 1.0e-10
variable maxiter equal 1000
variable maxeval equal 100000
variable dmax equal 1.0e-2

# generate the box and atom positions using a diamond lattice

dimension    3
boundary     p p p
read_data    data.in
Reading data file ...
  orthogonal box = (0 0 0) to (4.253534 4.253534 4.253534)
  1 by 2 by 2 MPI processor grid
  reading atoms ...
  8 atoms
  read_data CPU = 0.001 seconds
#replicate    2 3 4
replicate    2 3 4
Replication is creating a 2x3x4 = 24 times larger system...
  orthogonal box = (0 0 0) to (8.507068 12.760602 17.014136)
  1 by 2 by 2 MPI processor grid
  192 atoms
  replicate CPU = 0.000 seconds
change_box   all triclinic
Changing box ...
  triclinic box = (0 0 0) to (8.507068 12.760602 17.014136) with tilt (0 0 0)

# Need to set mass to something, just to satisfy LAMMPS
mass 1 1.0e-20

include potential.mod
# NOTE: This script can be modified for different pair styles
# See in.elastic for more info.

# Choose potential
#-----------------------
#pair_style	sw
#pair_coeff * * Si.sw Si
#-----------------------
#pair_style morse	2.83994742	# D0[eV] a[1/A] r0[A] rc[A], 1NN for BCC
#pair_coeff 1 1	2.1173	1.0202	2.4595	2.6497	#	Fe-Fe
#-----------------------
#pair_style smatb # R0(A)   p       q     A(eV)   xi(eV)  Rcs(A)   Rc(A), 4NN: Rcs=4NN, Rc=(4NN+5NN)/2
#pair_coeff 1 1	2.4802	7.0149	2.3779	0.3144	3.0551	4.033	4.176	#	Co	Co
#-----------------------
#pair_style eam/alloy
#pair_coeff * * AlCrFeCoNi_Zhou04.eam.alloy Fe
#-----------------------
pair_style meam
#pair_coeff * * ./../../library.meam Ti V Cr Fe N ./../../TiVCrFeN.meam Ti N
#pair_coeff * * ./../../library.meam Ti V Cr Fe N ./../../TiVCrFeN.meam V N
pair_coeff * * ./../../library.meam Ti V Cr Fe N ./../../TiVCrFeN.meam Cr N
#pair_coeff * * ./../../library.meam Ti V Cr Fe N ./../../TiVCrFeN.meam Fe N
#-----------------------

# Setup neighbor style
neighbor 1.0 nsq
neigh_modify once no every 1 delay 0 check yes

# Setup minimization style
min_style	     cg
min_modify	     dmax ${dmax} line quadratic
min_modify	     dmax 0.01 line quadratic

# Setup output
thermo		1
thermo_style custom step temp pe press pxx pyy pzz pxy pxz pyz lx ly lz vol
thermo_modify norm no

# Compute initial state
fix 3 all box/relax  aniso 0.0
minimize ${etol} ${ftol} ${maxiter} ${maxeval}
minimize 0 ${ftol} ${maxiter} ${maxeval}
minimize 0 1e-10 ${maxiter} ${maxeval}
minimize 0 1e-10 1000 ${maxeval}
minimize 0 1e-10 1000 100000
Neighbor list info ...
  update: every = 1 steps, delay = 0 steps, check = yes
  max neighbors/atom: 2000, page size: 100000
  master list distance cutoff = 5.6
  ghost atom cutoff = 5.6
  2 neighbor lists, perpetual/occasional/extra = 2 0 0
  (1) pair meam, perpetual
      attributes: full, newton on
      pair build: full/nsq
      stencil: none
      bin: none
  (2) pair meam, perpetual, half/full from (1)
      attributes: half, newton on
      pair build: halffull/newton
      stencil: none
      bin: none
Per MPI rank memory allocation (min/avg/max) = 9.886 | 9.901 | 9.916 Mbytes
   Step          Temp          PotEng         Press           Pxx            Pyy            Pzz            Pxy            Pxz            Pyz             Lx             Ly             Lz           Volume    
         0   0             -996.09968     -137688.76     -137688.76     -137688.76     -137688.76     -3.055352e-11  -8.6195115e-12  3.0637789e-11  8.507068       12.760602      17.014136      1846.9748    
         1   0             -996.14722     -137224.83     -137224.83     -137224.83     -137224.83      3.0490436e-11  3.3115599e-11  2.5769957e-12  8.5062173      12.759326      17.012435      1846.4208    
         2   0             -996.19458     -136760.23     -136760.23     -136760.23     -136760.23     -3.8786993e-12 -2.3609474e-12  4.7700773e-12  8.5053666      12.75805       17.010733      1845.8668    
         3   0             -996.24177     -136294.95     -136294.95     -136294.95     -136294.95     -2.3737052e-11 -2.7809704e-11 -1.7387089e-11  8.5045159      12.756774      17.009032      1845.313     
         4   0             -996.28879     -135828.99     -135828.99     -135828.99     -135828.99      6.5085561e-13  1.610265e-11  -3.0915641e-11  8.5036652      12.755498      17.00733       1844.7593    
         5   0             -996.33565     -135362.34     -135362.34     -135362.34     -135362.34     -3.4433363e-11  2.4137112e-11  2.2449202e-11  8.5028145      12.754222      17.005629      1844.2057    
         6   0             -996.38233     -134895.02     -134895.02     -134895.02     -134895.02      1.7800736e-11 -9.0933298e-12 -1.8644944e-11  8.5019638      12.752946      17.003928      1843.6522    
         7   0             -996.42884     -134427.01     -134427.01     -134427.01     -134427.01     -2.5840531e-11  1.8819434e-12  1.364409e-11   8.5011131      12.75167       17.002226      1843.0989    
         8   0             -996.47518     -133958.33     -133958.33     -133958.33     -133958.33     -6.0336812e-13 -1.9597397e-11 -1.9802542e-11  8.5002623      12.750394      17.000525      1842.5456    
         9   0             -996.52134     -133488.97     -133488.97     -133488.97     -133488.97      1.9313578e-13 -1.5595714e-11 -4.8296016e-11  8.4994116      12.749117      16.998823      1841.9924    
        10   0             -996.56734     -133018.94     -133018.94     -133018.94     -133018.94      5.1196353e-12  4.1391768e-11 -2.2168987e-11  8.4985609      12.747841      16.997122      1841.4394    
        11   0             -996.61317     -132548.23     -132548.23     -132548.23     -132548.23     -9.3968694e-12 -2.3141905e-11  6.5753929e-11  8.4977102      12.746565      16.99542       1840.8865    
        12   0             -996.65882     -132076.84     -132076.84     -132076.84     -132076.84     -2.2713909e-11 -3.87103e-11    4.8967805e-11  8.4968595      12.745289      16.993719      1840.3337    
        13   0             -996.7043      -131604.77     -131604.77     -131604.77     -131604.77     -7.4688366e-12 -2.3977624e-11 -4.8583694e-12  8.4960088      12.744013      16.992018      1839.7809    
        14   0             -996.74961     -131132.03     -131132.03     -131132.03     -131132.03      9.1152019e-12 -2.4637641e-11 -6.8811312e-11  8.4951581      12.742737      16.990316      1839.2284    
        15   0             -996.79475     -130658.6      -130658.6      -130658.6      -130658.6       2.9022623e-13 -4.5879931e-11 -3.0425384e-11  8.4943074      12.741461      16.988615      1838.6759    
        16   0             -996.83971     -130184.5      -130184.5      -130184.5      -130184.5      -1.1588345e-11  2.2112208e-11  2.1507388e-11  8.4934567      12.740185      16.986913      1838.1235    
        17   0             -996.88451     -129709.71     -129709.71     -129709.71     -129709.71     -2.7684867e-11 -2.3038456e-11 -9.7284235e-12  8.492606       12.738909      16.985212      1837.5712    
        18   0             -996.92913     -129234.23     -129234.23     -129234.23     -129234.23     -3.1953679e-12 -1.3241411e-11  7.613206e-12   8.4917553      12.737633      16.983511      1837.0191    
        19   0             -996.97357     -128758.07     -128758.07     -128758.07     -128758.07     -5.0366387e-12  7.9666064e-12 -1.6974441e-11  8.4909046      12.736357      16.981809      1836.467     
        20   0             -997.01785     -128281.23     -128281.23     -128281.23     -128281.23     -1.794842e-11  -5.0163532e-11 -3.5339736e-11  8.4900539      12.735081      16.980108      1835.9151    
        21   0             -997.06195     -127803.69     -127803.69     -127803.69     -127803.69     -2.0691712e-11 -1.1363481e-11 -2.5682922e-12  8.4892032      12.733805      16.978406      1835.3633    
        22   0             -997.10587     -127325.47     -127325.47     -127325.47     -127325.47     -8.3615776e-12 -1.6723155e-12 -3.7154488e-11  8.4883525      12.732529      16.976705      1834.8116    
        23   0             -997.14963     -126846.55     -126846.55     -126846.55     -126846.55     -1.8910121e-11  1.7213059e-11 -4.246292e-11   8.4875017      12.731253      16.975003      1834.26      
        24   0             -997.19321     -126366.95     -126366.95     -126366.95     -126366.95     -3.4921493e-11 -6.4022737e-12 -2.1825933e-13  8.486651       12.729977      16.973302      1833.7085    
        25   0             -997.23661     -125886.65     -125886.65     -125886.65     -125886.65     -5.2883161e-12  1.4724807e-11  2.2851348e-11  8.4858003      12.7287        16.971601      1833.1571    
        26   0             -997.27984     -125405.66     -125405.66     -125405.66     -125405.66     -9.7062512e-14 -9.0753449e-12  8.9782824e-13  8.4849496      12.727424      16.969899      1832.6058    
        27   0             -997.3229      -124923.97     -124923.97     -124923.97     -124923.97      5.1458608e-12 -3.4807379e-11  2.0195076e-11  8.4840989      12.726148      16.968198      1832.0547    
        28   0             -997.36579     -124441.58     -124441.58     -124441.58     -124441.58      1.1654511e-11  9.1536472e-12 -4.0547986e-12  8.4832482      12.724872      16.966496      1831.5036    
        29   0             -997.40849     -123958.5      -123958.5      -123958.5      -123958.5       1.9745768e-11  1.3771034e-11 -4.2988941e-12  8.4823975      12.723596      16.964795      1830.9527    
        30   0             -997.45103     -123474.71     -123474.71     -123474.71     -123474.71     -6.5110188e-12 -1.3775178e-11  2.8595034e-11  8.4815468      12.72232       16.963094      1830.4018    
        31   0             -997.49339     -122990.23     -122990.23     -122990.23     -122990.23      1.1178993e-11 -2.184764e-11  -3.6902827e-11  8.4806961      12.721044      16.961392      1829.8511    
        32   0             -997.53557     -122505.05     -122505.05     -122505.05     -122505.05     -5.6397977e-12  3.4033262e-12  4.4121693e-12  8.4798454      12.719768      16.959691      1829.3005    
        33   0             -997.57758     -122019.18     -122019.18     -122019.18     -122019.18     -1.9575016e-11 -2.3028001e-11  3.1623986e-11  8.4789947      12.718492      16.957989      1828.75      
        34   0             -997.61941     -121532.62     -121532.62     -121532.62     -121532.62     -1.7221471e-11 -3.8699661e-11 -4.0900993e-11  8.478144       12.717216      16.956288      1828.1996    
        35   0             -997.66107     -121045.36     -121045.36     -121045.36     -121045.36      4.6716355e-12 -1.2190049e-11  1.1910237e-11  8.4772933      12.71594       16.954587      1827.6494    
        36   0             -997.70255     -120557.41     -120557.41     -120557.41     -120557.41     -1.0830749e-11 -3.4561041e-12 -2.5032416e-11  8.4764426      12.714664      16.952885      1827.0992    
        37   0             -997.74386     -120068.77     -120068.77     -120068.77     -120068.77     -1.4802423e-11  9.7384363e-13  3.2319436e-11  8.4755918      12.713388      16.951184      1826.5491    
        38   0             -997.78499     -119579.42     -119579.42     -119579.42     -119579.42      1.5196536e-11  2.8006437e-12 -4.3543921e-11  8.4747411      12.712112      16.949482      1825.9992    
        39   0             -997.82594     -119089.38     -119089.38     -119089.38     -119089.38     -1.6833284e-11 -1.4860063e-11 -4.1291486e-11  8.4738904      12.710836      16.947781      1825.4494    
        40   0             -997.86672     -118598.64     -118598.64     -118598.64     -118598.64     -3.1313005e-11 -2.5562134e-11 -4.622628e-11   8.4730397      12.70956       16.946079      1824.8996    
        41   0             -997.90732     -118107.2      -118107.2      -118107.2      -118107.2      -3.2638712e-11 -2.1718515e-11 -3.3004343e-11  8.472189       12.708284      16.944378      1824.35      
        42   0             -997.94774     -117615.05     -117615.05     -117615.05     -117615.05     -4.4376664e-12  2.3675682e-11 -2.0554686e-11  8.4713383      12.707007      16.942677      1823.8005    
        43   0             -997.98798     -117122.2      -117122.2      -117122.2      -117122.2      -1.87804e-12    3.004864e-11   5.4877791e-13  8.4704876      12.705731      16.940975      1823.2511    
        44   0             -998.02805     -116628.65     -116628.65     -116628.65     -116628.65     -2.5470969e-11  1.5126437e-12  4.1060958e-11  8.4696369      12.704455      16.939274      1822.7018    
        45   0             -998.06795     -116134.39     -116134.39     -116134.39     -116134.39      4.8565617e-12  2.2281612e-11  5.1799257e-11  8.4687862      12.703179      16.937572      1822.1527    
        46   0             -998.10766     -115639.43     -115639.43     -115639.43     -115639.43     -8.5686782e-12 -2.431454e-11   4.7921127e-11  8.4679355      12.701903      16.935871      1821.6036    
        47   0             -998.1472      -115143.75     -115143.75     -115143.75     -115143.75     -3.6140931e-12  5.8606915e-12 -5.2135734e-12  8.4670848      12.700627      16.93417       1821.0547    
        48   0             -998.18655     -114647.37     -114647.37     -114647.37     -114647.37     -3.1999252e-12  1.4216461e-11 -4.6899667e-12  8.4662341      12.699351      16.932468      1820.5058    
        49   0             -998.22574     -114150.27     -114150.27     -114150.27     -114150.27     -6.4506485e-12  2.0475922e-11  2.3798983e-11  8.4653834      12.698075      16.930767      1819.9571    
        50   0             -998.26474     -113652.46     -113652.46     -113652.46     -113652.46     -7.5769091e-12 -2.9329971e-12  2.9378854e-11  8.4645327      12.696799      16.929065      1819.4085    
        51   0             -998.30356     -113153.94     -113153.94     -113153.94     -113153.94      1.4693857e-11 -7.6769902e-12  8.3126645e-13  8.463682       12.695523      16.927364      1818.8599    
        52   0             -998.34221     -112654.7      -112654.7      -112654.7      -112654.7      -1.9442828e-11  1.1812435e-11 -7.8822935e-11  8.4628312      12.694247      16.925662      1818.3115    
        53   0             -998.38067     -112154.75     -112154.75     -112154.75     -112154.75     -1.9448692e-11 -4.146608e-11  -1.5779128e-11  8.4619805      12.692971      16.923961      1817.7633    
        54   0             -998.41896     -111654.08     -111654.08     -111654.08     -111654.08      2.6869316e-11  1.9576915e-12  4.3399573e-11  8.4611298      12.691695      16.92226       1817.2151    
        55   0             -998.45707     -111152.69     -111152.69     -111152.69     -111152.69      9.8403675e-12 -2.7122207e-11  4.583604e-11   8.4602791      12.690419      16.920558      1816.667     
        56   0             -998.495       -110650.59     -110650.59     -110650.59     -110650.59      1.4128371e-11  6.6356821e-12  3.7218586e-11  8.4594284      12.689143      16.918857      1816.1191    
        57   0             -998.53275     -110147.78     -110147.78     -110147.78     -110147.78     -1.2809996e-11  2.2778769e-11  1.5712452e-11  8.4585777      12.687867      16.917155      1815.5712    
        58   0             -998.57032     -109644.26     -109644.26     -109644.26     -109644.26      1.8620526e-12  1.2715859e-11  4.2092189e-11  8.457727       12.686591      16.915454      1815.0235    
        59   0             -998.60771     -109140.03     -109140.03     -109140.03     -109140.03      1.1053147e-11  3.0169455e-11  1.9116308e-11  8.4568763      12.685314      16.913753      1814.4758    
        60   0             -998.64492     -108635.09     -108635.09     -108635.09     -108635.09      3.5277782e-11 -1.8607252e-11 -2.6721878e-12  8.4560256      12.684038      16.912051      1813.9283    
        61   0             -998.68195     -108129.43     -108129.43     -108129.43     -108129.43      2.2830806e-11  1.0348657e-11 -2.252427e-11   8.4551749      12.682762      16.91035       1813.3809    
        62   0             -998.7188      -107623.06     -107623.06     -107623.06     -107623.06      9.4196307e-12  3.3606495e-12 -1.1001834e-11  8.4543242      12.681486      16.908648      1812.8336    
        63   0             -998.75547     -107115.97     -107115.97     -107115.97     -107115.97     -8.2937408e-12  6.6006399e-12  2.5421052e-11  8.4534735      12.68021       16.906947      1812.2864    
        64   0             -998.79196     -106608.16     -106608.16     -106608.16     -106608.16      6.7253585e-12  8.3944256e-12 -5.1127452e-11  8.4526228      12.678934      16.905246      1811.7393    
        65   0             -998.82827     -106099.63     -106099.63     -106099.63     -106099.63      1.7923337e-11  3.5871227e-11 -4.3973557e-11  8.4517721      12.677658      16.903544      1811.1924    
        66   0             -998.8644      -105590.39     -105590.39     -105590.39     -105590.39      2.0900502e-11  1.9230427e-11 -3.2873469e-11  8.4509214      12.676382      16.901843      1810.6455    
        67   0             -998.90034     -105080.42     -105080.42     -105080.42     -105080.42      4.7169313e-12 -3.9553434e-12 -5.6492622e-11  8.4500706      12.675106      16.900141      1810.0988    
        68   0             -998.93611     -104569.73     -104569.73     -104569.73     -104569.73      1.5752429e-11  2.1232603e-11 -2.4378174e-11  8.4492199      12.67383       16.89844       1809.5521    
        69   0             -998.97169     -104058.31     -104058.31     -104058.31     -104058.31     -9.3412346e-13 -3.4759226e-11  6.8461417e-11  8.4483692      12.672554      16.896738      1809.0056    
        70   0             -999.00709     -103546.17     -103546.17     -103546.17     -103546.17     -1.1557123e-12 -2.15651e-11   -1.1803019e-11  8.4475185      12.671278      16.895037      1808.4592    
        71   0             -999.04231     -103033.3      -103033.3      -103033.3      -103033.3       9.7404334e-12 -2.880315e-11  -3.0377362e-11  8.4466678      12.670002      16.893336      1807.9129    
        72   0             -999.07735     -102519.7      -102519.7      -102519.7      -102519.7      -1.7173932e-11  1.0014026e-11 -2.0040355e-11  8.4458171      12.668726      16.891634      1807.3667    
        73   0             -999.1122      -102005.37     -102005.37     -102005.37     -102005.37      1.1666052e-11  1.3191991e-11  2.5977886e-11  8.4449664      12.66745       16.889933      1806.8206    
        74   0             -999.14688     -101490.32     -101490.32     -101490.32     -101490.32      2.6588912e-12 -4.8992533e-12 -5.7904742e-11  8.4441157      12.666174      16.888231      1806.2746    
        75   0             -999.18137     -100974.52     -100974.52     -100974.52     -100974.52     -9.3581861e-13  2.1696216e-11 -7.2772211e-12  8.443265       12.664897      16.88653       1805.7288    
        76   0             -999.21567     -100458        -100458        -100458        -100458         2.961037e-11   7.4888123e-12  2.4782056e-11  8.4424143      12.663621      16.884829      1805.183     
        77   0             -999.2498      -99940.742     -99940.742     -99940.742     -99940.742     -2.0501894e-11 -4.5340727e-12  2.6305014e-11  8.4415636      12.662345      16.883127      1804.6374    
        78   0             -999.28374     -99422.748     -99422.748     -99422.748     -99422.748      4.0424607e-12  5.1812515e-11  5.4400676e-11  8.4407129      12.661069      16.881426      1804.0918    
        79   0             -999.3175      -98904.016     -98904.016     -98904.016     -98904.016     -1.3314567e-12  1.5706257e-11  2.4779888e-11  8.4398622      12.659793      16.879724      1803.5464    
        80   0             -999.35107     -98384.557     -98384.557     -98384.557     -98384.557      8.1884687e-12  1.9928562e-11  1.657425e-11   8.4390115      12.658517      16.878023      1803.0011    
        81   0             -999.38446     -97864.37      -97864.37      -97864.37      -97864.37      -1.1126857e-11 -1.5024957e-11  1.5296344e-11  8.4381607      12.657241      16.876321      1802.4559    
        82   0             -999.41767     -97343.455     -97343.455     -97343.455     -97343.455      8.4895713e-12  1.0784717e-11 -2.1026496e-11  8.43731        12.655965      16.87462       1801.9108    
        83   0             -999.45069     -96821.809     -96821.809     -96821.809     -96821.809     -2.9475625e-11 -9.0599281e-12  4.6632709e-11  8.4364593      12.654689      16.872919      1801.3658    
        84   0             -999.48353     -96299.433     -96299.433     -96299.433     -96299.433      9.6306296e-12  2.2471469e-11  2.3335756e-12  8.4356086      12.653413      16.871217      1800.8209    
        85   0             -999.51619     -95776.323     -95776.323     -95776.323     -95776.323      5.5331124e-12 -9.7076481e-12  2.2515321e-11  8.4347579      12.652137      16.869516      1800.2761    
        86   0             -999.54866     -95252.48      -95252.48      -95252.48      -95252.48       1.8210437e-11 -3.4691253e-11  2.4288819e-11  8.4339072      12.650861      16.867814      1799.7315    
        87   0             -999.58094     -94727.902     -94727.902     -94727.902     -94727.902      2.0217973e-11 -1.5324136e-11  2.4259096e-11  8.4330565      12.649585      16.866113      1799.1869    
        88   0             -999.61304     -94202.587     -94202.587     -94202.587     -94202.587     -6.255129e-12  -6.0573383e-12 -4.0238033e-11  8.4322058      12.648309      16.864412      1798.6425    
        89   0             -999.64496     -93676.534     -93676.534     -93676.534     -93676.534     -9.2247803e-12  9.125855e-12   5.7673425e-11  8.4313551      12.647033      16.86271       1798.0982    
        90   0             -999.67669     -93149.742     -93149.742     -93149.742     -93149.742     -2.1126937e-11  2.1077459e-11 -1.1825147e-11  8.4305044      12.645757      16.861009      1797.5539    
        91   0             -999.70823     -92622.209     -92622.209     -92622.209     -92622.209     -6.681499e-13  -7.0279471e-12 -9.4035912e-13  8.4296537      12.644481      16.859307      1797.0098    
        92   0             -999.73959     -92093.934     -92093.934     -92093.934     -92093.934     -4.3071588e-12  7.0300753e-12 -1.7525681e-11  8.428803       12.643204      16.857606      1796.4658    
        93   0             -999.77077     -91564.917     -91564.917     -91564.917     -91564.917      3.6894311e-12  2.5182225e-11 -4.2477981e-11  8.4279523      12.641928      16.855905      1795.9219    
        94   0             -999.80175     -91035.154     -91035.154     -91035.154     -91035.154     -1.0155201e-12 -2.1524072e-11  2.5288927e-11  8.4271016      12.640652      16.854203      1795.3782    
        95   0             -999.83255     -90504.646     -90504.646     -90504.646     -90504.646     -1.7690268e-11  2.0192672e-11  1.7603551e-11  8.4262509      12.639376      16.852502      1794.8345    
        96   0             -999.86317     -89973.391     -89973.391     -89973.391     -89973.391     -6.4437856e-12 -2.007487e-12  -2.386679e-11   8.4254001      12.6381        16.8508        1794.2909    
        97   0             -999.8936      -89441.387     -89441.387     -89441.387     -89441.387     -8.280294e-12   3.4286367e-11  3.5030106e-11  8.4245494      12.636824      16.849099      1793.7475    
        98   0             -999.92384     -88908.633     -88908.633     -88908.633     -88908.633      9.0019685e-12 -6.4476909e-12 -2.2765309e-11  8.4236987      12.635548      16.847397      1793.2041    
        99   0             -999.95389     -88375.128     -88375.128     -88375.128     -88375.128      4.9612652e-14  1.2328744e-11 -2.4421828e-11  8.422848       12.634272      16.845696      1792.6609    
       100   0             -999.98376     -87840.87      -87840.87      -87840.87      -87840.87      -1.181139e-11   2.3945359e-11  5.0310068e-11  8.4219973      12.632996      16.843995      1792.1178    
       101   0             -1000.0134     -87305.858     -87305.858     -87305.858     -87305.858      1.0822115e-11 -1.8417453e-11  5.9943596e-12  8.4211466      12.63172       16.842293      1791.5748    
       102   0             -1000.0429     -86770.091     -86770.091     -86770.091     -86770.091     -1.9614822e-12 -2.7982157e-11 -1.0800567e-11  8.4202959      12.630444      16.840592      1791.0319    
       103   0             -1000.0722     -86233.57      -86233.57      -86233.57      -86233.57       7.6744524e-12  5.0691124e-11  2.1011608e-11  8.4194452      12.629168      16.83889       1790.4891    
       104   0             -1000.1014     -85696.303     -85696.303     -85696.303     -85696.303     -5.3662922e-12  1.7216854e-11 -1.5117541e-11  8.4185945      12.627892      16.837189      1789.9464    
       105   0             -1000.1303     -85158.29      -85158.29      -85158.29      -85158.29       1.4165343e-12  5.2188105e-13  3.7041129e-11  8.4177438      12.626616      16.835488      1789.4038    
       106   0             -1000.159      -84619.529     -84619.529     -84619.529     -84619.529      3.5672686e-11 -1.588491e-11  -6.2023242e-12  8.4168931      12.62534       16.833786      1788.8614    
       107   0             -1000.1876     -84080.019     -84080.019     -84080.019     -84080.019     -6.0923057e-12  4.2447207e-11  4.9198477e-11  8.4160424      12.624064      16.832085      1788.319     
       108   0             -1000.2159     -83539.759     -83539.759     -83539.759     -83539.759      6.0941535e-12 -6.6662577e-12 -1.7374556e-11  8.4151917      12.622787      16.830383      1787.7768    
       109   0             -1000.2441     -82998.748     -82998.748     -82998.748     -82998.748     -1.4804576e-11  2.3289216e-11  2.6038637e-11  8.414341       12.621511      16.828682      1787.2346    
       110   0             -1000.2721     -82456.983     -82456.983     -82456.983     -82456.983     -8.9103298e-12 -5.649846e-12  -1.091391e-11   8.4134903      12.620235      16.826981      1786.6926    
       111   0             -1000.2999     -81914.464     -81914.464     -81914.464     -81914.464     -1.3195273e-12  3.8365878e-11  2.6577271e-11  8.4126395      12.618959      16.825279      1786.1507    
       112   0             -1000.3275     -81371.19      -81371.19      -81371.19      -81371.19       1.0883177e-11  1.588894e-11   4.5325817e-12  8.4117888      12.617683      16.823578      1785.6089    
       113   0             -1000.3549     -80827.158     -80827.158     -80827.158     -80827.158     -2.4911853e-11  9.9398292e-12 -2.4413616e-11  8.4109381      12.616407      16.821876      1785.0672    
       114   0             -1000.3822     -80282.368     -80282.368     -80282.368     -80282.368      2.591619e-12  -2.2028761e-11  1.4901809e-11  8.4100874      12.615131      16.820175      1784.5256    
       115   0             -1000.4092     -79736.819     -79736.819     -79736.819     -79736.819      2.0489975e-11  3.6268751e-11  2.9164563e-11  8.4092367      12.613855      16.818473      1783.9841    
       116   0             -1000.4361     -79190.508     -79190.508     -79190.508     -79190.508     -2.7926688e-12  2.019698e-12  -4.5156458e-11  8.408386       12.612579      16.816772      1783.4428    
       117   0             -1000.4627     -78643.434     -78643.434     -78643.434     -78643.434     -4.0156802e-12 -2.9356867e-11 -3.1564244e-11  8.4075353      12.611303      16.815071      1782.9015    
       118   0             -1000.4892     -78095.597     -78095.597     -78095.597     -78095.597     -2.6247069e-11 -1.0029774e-11 -1.7340032e-11  8.4066846      12.610027      16.813369      1782.3604    
       119   0             -1000.5155     -77546.995     -77546.995     -77546.995     -77546.995      1.0082734e-11  4.50229e-11    1.5598288e-11  8.4058339      12.608751      16.811668      1781.8193    
       120   0             -1000.5416     -76997.626     -76997.626     -76997.626     -76997.626      4.0193393e-12  2.7261606e-11 -4.0068569e-12  8.4049832      12.607475      16.809966      1781.2784    
       121   0             -1000.5675     -76447.489     -76447.489     -76447.489     -76447.489      2.0727111e-11 -2.0552304e-11 -2.5983805e-11  8.4041325      12.606199      16.808265      1780.7376    
       122   0             -1000.5932     -75896.582     -75896.582     -75896.582     -75896.582      1.0216823e-11 -8.7679826e-12  4.0867292e-11  8.4032818      12.604923      16.806564      1780.1969    
       123   0             -1000.6187     -75344.905     -75344.905     -75344.905     -75344.905     -1.0744666e-12  4.5977176e-12  1.6079518e-11  8.4024311      12.603647      16.804862      1779.6563    
       124   0             -1000.644      -74792.456     -74792.456     -74792.456     -74792.456      6.9486619e-12  5.4739459e-12 -4.7240903e-12  8.4015804      12.602371      16.803161      1779.1158    
       125   0             -1000.6691     -74239.233     -74239.233     -74239.233     -74239.233      1.1176243e-11 -2.0602291e-11 -1.4626627e-11  8.4007296      12.601094      16.801459      1778.5754    
       126   0             -1000.6941     -73685.235     -73685.235     -73685.235     -73685.235      1.1754878e-12  5.6023247e-12 -1.7357202e-11  8.3998789      12.599818      16.799758      1778.0351    
       127   0             -1000.7188     -73130.465     -73130.465     -73130.465     -73130.465      1.9764203e-11  1.8738466e-11 -2.2090875e-11  8.3990282      12.598542      16.798056      1777.495     
       128   0             -1000.7434     -72574.932     -72574.932     -72574.932     -72574.932      6.1312676e-12 -2.0020466e-13  2.4725275e-11  8.3981775      12.597266      16.796355      1776.9549    
       129   0             -1000.7677     -72018.633     -72018.633     -72018.633     -72018.633      1.209103e-11  -1.7047601e-11  8.7741326e-12  8.3973268      12.59599       16.794654      1776.415     
       130   0             -1000.7919     -71461.566     -71461.566     -71461.566     -71461.566     -5.4839348e-12 -1.2670644e-11 -2.2136066e-11  8.3964761      12.594714      16.792952      1775.8751    
       131   0             -1000.8159     -70903.732     -70903.732     -70903.732     -70903.732      2.9056157e-12  4.6840529e-12 -7.9278221e-12  8.3956254      12.593438      16.791251      1775.3354    
       132   0             -1000.8397     -70345.128     -70345.128     -70345.128     -70345.128     -3.733348e-12  -1.8466292e-11 -6.2389507e-12  8.3947747      12.592162      16.789549      1774.7958    
       133   0             -1000.8633     -69785.752     -69785.752     -69785.752     -69785.752     -1.3459178e-11  5.4137475e-12  1.0777368e-11  8.393924       12.590886      16.787848      1774.2563    
       134   0             -1000.8867     -69225.604     -69225.604     -69225.604     -69225.604      3.9612603e-12  1.8703166e-11 -8.0228057e-13  8.3930733      12.58961       16.786147      1773.7169    
       135   0             -1000.9099     -68664.683     -68664.683     -68664.683     -68664.683     -1.1285502e-11  1.6928253e-11  1.6614766e-11  8.3922226      12.588334      16.784445      1773.1776    
       136   0             -1000.9329     -68102.986     -68102.986     -68102.986     -68102.986     -6.5726685e-12  5.9956785e-12 -1.150217e-11   8.3913719      12.587058      16.782744      1772.6384    
       137   0             -1000.9557     -67540.512     -67540.512     -67540.512     -67540.512     -1.3801784e-12 -1.1392745e-11 -3.9648761e-12  8.3905212      12.585782      16.781042      1772.0994    
       138   0             -1000.9783     -66977.261     -66977.261     -66977.261     -66977.261     -2.3670985e-11 -4.5434234e-12 -2.8653689e-11  8.3896705      12.584506      16.779341      1771.5604    
       139   0             -1001.0008     -66413.229     -66413.229     -66413.229     -66413.229     -7.5328272e-13 -6.5033408e-12  1.4048723e-11  8.3888198      12.58323       16.77764       1771.0215    
       140   0             -1001.023      -65848.417     -65848.417     -65848.417     -65848.417      4.5713058e-12  1.1302679e-11  1.3249252e-11  8.387969       12.581954      16.775938      1770.4828    
       141   0             -1001.0451     -65282.823     -65282.823     -65282.823     -65282.823      8.0650314e-12 -3.143101e-11   7.6127866e-12  8.3871183      12.580678      16.774237      1769.9442    
       142   0             -1001.0669     -64716.445     -64716.445     -64716.445     -64716.445      9.4497655e-12  3.4808312e-11  7.5397065e-14  8.3862676      12.579401      16.772535      1769.4056    
       143   0             -1001.0886     -64149.282     -64149.282     -64149.282     -64149.282      2.7528305e-11 -1.8855004e-11 -2.1645544e-11  8.3854169      12.578125      16.770834      1768.8672    
       144   0             -1001.11       -63581.333     -63581.333     -63581.333     -63581.333      4.853498e-12  -6.76472e-12   -1.7389605e-11  8.3845662      12.576849      16.769132      1768.3289    
       145   0             -1001.1313     -63012.595     -63012.595     -63012.595     -63012.595     -2.7670845e-12 -1.4061821e-11 -2.2916491e-11  8.3837155      12.575573      16.767431      1767.7907    
       146   0             -1001.1523     -62443.069     -62443.069     -62443.069     -62443.069     -1.2858279e-11 -2.2998957e-11 -2.1212386e-11  8.3828648      12.574297      16.76573       1767.2526    
       147   0             -1001.1732     -61872.752     -61872.752     -61872.752     -61872.752      1.1754687e-11 -7.6770438e-12  1.900383e-11   8.3820141      12.573021      16.764028      1766.7147    
       148   0             -1001.1939     -61301.643     -61301.643     -61301.643     -61301.643     -7.5534903e-12 -1.704571e-11   1.8883726e-12  8.3811634      12.571745      16.762327      1766.1768    
       149   0             -1001.2144     -60729.74      -60729.74      -60729.74      -60729.74       1.4658234e-11 -2.9971304e-12  1.1711476e-11  8.3803127      12.570469      16.760625      1765.639     
       150   0             -1001.2346     -60157.042     -60157.042     -60157.042     -60157.042      1.3528985e-11  1.3604566e-12 -1.4108439e-11  8.379462       12.569193      16.758924      1765.1014    
       151   0             -1001.2547     -59583.555     -59583.555     -59583.555     -59583.555      6.2499263e-12  1.1088579e-12 -2.5793547e-11  8.3786113      12.567917      16.757223      1764.5639    
       152   0             -1001.2746     -59009.285     -59009.285     -59009.285     -59009.285     -2.4956904e-12  1.2680124e-11  7.814788e-12   8.3777606      12.566641      16.755521      1764.0264    
       153   0             -1001.2943     -58434.229     -58434.229     -58434.229     -58434.229      8.523236e-12  -8.371936e-12   3.8707596e-12  8.3769099      12.565365      16.75382       1763.4891    
       154   0             -1001.3138     -57858.386     -57858.386     -57858.386     -57858.386      1.3595929e-11 -1.1653654e-11  1.111133e-11   8.3760592      12.564089      16.752118      1762.9519    
       155   0             -1001.3331     -57281.755     -57281.755     -57281.755     -57281.755      1.0042354e-11  1.2439399e-11  1.1404885e-11  8.3752084      12.562813      16.750417      1762.4148    
       156   0             -1001.3522     -56704.334     -56704.334     -56704.334     -56704.334     -7.3195235e-12  3.2660219e-11  3.8907054e-11  8.3743577      12.561537      16.748715      1761.8778    
       157   0             -1001.3711     -56126.123     -56126.123     -56126.123     -56126.123      7.5742289e-14  5.3019603e-12  1.9112304e-11  8.373507       12.560261      16.747014      1761.3409    
       158   0             -1001.3898     -55547.118     -55547.118     -55547.118     -55547.118     -1.7956395e-11  4.8489843e-12  7.5512828e-12  8.3726563      12.558984      16.745313      1760.8041    
       159   0             -1001.4083     -54967.32      -54967.32      -54967.32      -54967.32       1.2757727e-11  2.5136512e-11 -1.0749333e-11  8.3718056      12.557708      16.743611      1760.2675    
       160   0             -1001.4266     -54386.727     -54386.727     -54386.727     -54386.727     -1.8674921e-11  7.2526418e-12 -3.3786697e-11  8.3709549      12.556432      16.74191       1759.7309    
       161   0             -1001.4448     -53805.336     -53805.336     -53805.336     -53805.336     -4.4236911e-12  2.0500649e-11 -2.1928869e-11  8.3701042      12.555156      16.740208      1759.1945    
       162   0             -1001.4627     -53223.148     -53223.148     -53223.148     -53223.148      3.7928916e-13  1.4817563e-11  9.3810853e-12  8.3692535      12.55388       16.738507      1758.6581    
       163   0             -1001.4804     -52640.16      -52640.16      -52640.16      -52640.16      -3.5158182e-12  3.0858261e-12 -2.6684807e-12  8.3684028      12.552604      16.736806      1758.1219    
       164   0             -1001.4979     -52056.371     -52056.371     -52056.371     -52056.371      1.6774809e-11  5.1108771e-12 -2.0747125e-11  8.3675521      12.551328      16.735104      1757.5858    
       165   0             -1001.5152     -51471.78      -51471.78      -51471.78      -51471.78      -2.2145454e-11 -2.2980654e-11 -2.0259927e-11  8.3667014      12.550052      16.733403      1757.0498    
       166   0             -1001.5323     -50886.385     -50886.385     -50886.385     -50886.385     -3.4430864e-12  2.501301e-11   3.9367643e-12  8.3658507      12.548776      16.731701      1756.5139    
       167   0             -1001.5493     -50300.184     -50300.184     -50300.184     -50300.184      8.255799e-12  -3.5960842e-12 -8.9902106e-12  8.365          12.5475        16.73          1755.9781    
       168   0             -1001.566      -49713.177     -49713.177     -49713.177     -49713.177     -3.3945235e-12 -2.6852201e-12  1.7859247e-12  8.3641493      12.546224      16.728299      1755.4424    
       169   0             -1001.5825     -49125.361     -49125.361     -49125.361     -49125.361     -2.1285597e-12 -1.0490758e-11 -4.0658023e-11  8.3632986      12.544948      16.726597      1754.9068    
       170   0             -1001.5988     -48536.736     -48536.736     -48536.736     -48536.736     -4.13168e-12    3.4219436e-12  1.7654694e-11  8.3624478      12.543672      16.724896      1754.3713    
       171   0             -1001.6149     -47947.3       -47947.3       -47947.3       -47947.3       -2.4594804e-12 -8.620859e-12  -1.8370036e-11  8.3615971      12.542396      16.723194      1753.836     
       172   0             -1001.6309     -47357.051     -47357.051     -47357.051     -47357.051      3.905934e-12  -1.5978821e-12 -3.5508491e-13  8.3607464      12.54112       16.721493      1753.3007    
       173   0             -1001.6466     -46765.988     -46765.988     -46765.988     -46765.988      1.8267085e-12  6.5203346e-12  2.1819019e-11  8.3598957      12.539844      16.719791      1752.7656    
       174   0             -1001.6621     -46174.11      -46174.11      -46174.11      -46174.11      -7.1060356e-13 -2.8018083e-11 -5.557935e-12   8.359045       12.538568      16.71809       1752.2305    
       175   0             -1001.6774     -45581.425     -45581.425     -45581.425     -45581.425      1.6247327e-12  8.4536874e-12  4.4807082e-12  8.3581943      12.537291      16.716389      1751.6956    
       176   0             -1001.6925     -44987.936     -44987.936     -44987.936     -44987.936      1.4576272e-11  5.4343592e-12  9.8021619e-12  8.3573436      12.536015      16.714687      1751.1608    
       177   0             -1001.7074     -44393.641     -44393.641     -44393.641     -44393.641      3.1752448e-12  5.0803916e-13  2.1223336e-11  8.3564929      12.534739      16.712986      1750.6261    
       178   0             -1001.7222     -43798.539     -43798.539     -43798.539     -43798.539      1.8955649e-11  4.1926034e-12 -1.2641335e-11  8.3556422      12.533463      16.711284      1750.0915    
       179   0             -1001.7367     -43202.629     -43202.629     -43202.629     -43202.629      2.2875732e-13  3.4186511e-11  1.7665149e-11  8.3547915      12.532187      16.709583      1749.557     
       180   0             -1001.751      -42605.908     -42605.908     -42605.908     -42605.908     -2.0518174e-11  1.5128021e-11 -2.9607699e-11  8.3539408      12.530911      16.707882      1749.0226    
       181   0             -1001.7651     -42008.376     -42008.376     -42008.376     -42008.376     -1.5514139e-12 -1.4700283e-11  8.3547454e-12  8.3530901      12.529635      16.70618       1748.4884    
       182   0             -1001.779      -41410.032     -41410.032     -41410.032     -41410.032      1.4755657e-12 -3.6889141e-11  4.3503746e-12  8.3522394      12.528359      16.704479      1747.9542    
       183   0             -1001.7927     -40810.872     -40810.872     -40810.872     -40810.872     -7.1255975e-12  6.0822064e-12 -1.212624e-11   8.3513887      12.527083      16.702777      1747.4202    
       184   0             -1001.8062     -40210.897     -40210.897     -40210.897     -40210.897     -2.1128763e-12  8.4769615e-12 -4.3148498e-12  8.3505379      12.525807      16.701076      1746.8862    
       185   0             -1001.8195     -39610.105     -39610.105     -39610.105     -39610.105      1.5660435e-11 -1.9607374e-11  1.3368664e-12  8.3496872      12.524531      16.699374      1746.3524    
       186   0             -1001.8326     -39008.494     -39008.494     -39008.494     -39008.494      2.5344548e-11 -4.1773928e-12 -1.3232656e-11  8.3488365      12.523255      16.697673      1745.8186    
       187   0             -1001.8455     -38406.063     -38406.063     -38406.063     -38406.063     -5.2742969e-12 -2.5479695e-12  2.2371173e-11  8.3479858      12.521979      16.695972      1745.285     
       188   0             -1001.8582     -37802.809     -37802.809     -37802.809     -37802.809     -4.6896975e-12  1.0806694e-11  3.4981575e-11  8.3471351      12.520703      16.69427       1744.7515    
       189   0             -1001.8707     -37198.733     -37198.733     -37198.733     -37198.733     -7.6485843e-12  3.263396e-12   2.8694939e-11  8.3462844      12.519427      16.692569      1744.2181    
       190   0             -1001.8829     -36593.832     -36593.832     -36593.832     -36593.832     -1.3516632e-11 -1.0481765e-11 -2.7543325e-12  8.3454337      12.518151      16.690867      1743.6848    
       191   0             -1001.895      -35988.105     -35988.105     -35988.105     -35988.105      2.7806858e-12  1.6020832e-11  3.1365626e-11  8.344583       12.516875      16.689166      1743.1516    
       192   0             -1001.9069     -35381.55      -35381.55      -35381.55      -35381.55       4.8995871e-12 -2.4778641e-11 -9.7608962e-12  8.3437323      12.515598      16.687465      1742.6186    
       193   0             -1001.9186     -34774.167     -34774.167     -34774.167     -34774.167      1.1793238e-11 -7.657947e-13   3.7906838e-12  8.3428816      12.514322      16.685763      1742.0856    
       194   0             -1001.93       -34165.952     -34165.952     -34165.952     -34165.952      1.021372e-13   5.0302572e-12 -3.4905389e-11  8.3420309      12.513046      16.684062      1741.5528    
       195   0             -1001.9413     -33556.906     -33556.906     -33556.906     -33556.906     -1.3332983e-11  1.0421182e-11 -7.4966104e-12  8.3411802      12.51177       16.68236       1741.02      
       196   0             -1001.9523     -32947.026     -32947.026     -32947.026     -32947.026      8.8402759e-12 -1.093537e-11   5.0333363e-12  8.3403295      12.510494      16.680659      1740.4874    
       197   0             -1001.9632     -32336.312     -32336.312     -32336.312     -32336.312      3.987009e-12   1.9935045e-12 -2.22608e-11    8.3394788      12.509218      16.678958      1739.9548    
       198   0             -1001.9738     -31724.762     -31724.762     -31724.762     -31724.762     -5.4965982e-12 -9.7404834e-12  6.0590408e-12  8.3386281      12.507942      16.677256      1739.4224    
       199   0             -1001.9843     -31112.387     -31112.387     -31112.387     -31112.387     -2.9409409e-12 -6.1887626e-12 -1.8527928e-11  8.3377773      12.506666      16.675555      1738.8901    
       200   0             -1001.9945     -30499.186     -30499.186     -30499.186     -30499.186     -2.4046355e-12  5.474383e-12   4.8732241e-12  8.3369266      12.50539       16.673853      1738.3579    
       201   0             -1002.0045     -29885.159     -29885.159     -29885.159     -29885.159     -9.2888293e-12 -3.8639483e-12  2.9043585e-12  8.3360759      12.504114      16.672152      1737.8258    
       202   0             -1002.0144     -29270.305     -29270.305     -29270.305     -29270.305     -1.6126045e-12 -1.1544201e-11  7.6790691e-12  8.3352252      12.502838      16.67045       1737.2938    
       203   0             -1002.024      -28654.621     -28654.621     -28654.621     -28654.621     -9.8322187e-12  1.0523547e-11  2.2212109e-11  8.3343745      12.501562      16.668749      1736.7619    
       204   0             -1002.0334     -28038.105     -28038.105     -28038.105     -28038.105      4.6358767e-12 -1.2191587e-11 -9.6047169e-13  8.3335238      12.500286      16.667048      1736.2302    
       205   0             -1002.0426     -27420.758     -27420.758     -27420.758     -27420.758     -5.2778073e-12 -2.7670058e-11 -1.0196929e-11  8.3326731      12.49901       16.665346      1735.6985    
       206   0             -1002.0516     -26802.577     -26802.577     -26802.577     -26802.577      1.5915157e-11  1.3301073e-11 -6.4583246e-12  8.3318224      12.497734      16.663645      1735.1669    
       207   0             -1002.0604     -26183.56      -26183.56      -26183.56      -26183.56       7.229387e-12  -1.8458009e-11 -4.4760673e-11  8.3309717      12.496458      16.661943      1734.6355    
       208   0             -1002.0689     -25563.706     -25563.706     -25563.706     -25563.706      5.4878115e-12  4.0517487e-12 -1.7963607e-11  8.330121       12.495181      16.660242      1734.1042    
       209   0             -1002.0773     -24943.014     -24943.014     -24943.014     -24943.014      4.2069013e-12  4.104294e-12   6.7207814e-12  8.3292703      12.493905      16.658541      1733.5729    
       210   0             -1002.0855     -24321.482     -24321.482     -24321.482     -24321.482      8.5446797e-12  2.3093729e-12 -7.839038e-12   8.3284196      12.492629      16.656839      1733.0418    
       211   0             -1002.0934     -23699.108     -23699.108     -23699.108     -23699.108     -7.3922582e-12 -7.2382529e-12 -4.5495756e-11  8.3275689      12.491353      16.655138      1732.5108    
       212   0             -1002.1012     -23075.892     -23075.892     -23075.892     -23075.892     -1.2991768e-11 -2.1490336e-11  1.9770082e-11  8.3267182      12.490077      16.653436      1731.9799    
       213   0             -1002.1087     -22451.832     -22451.832     -22451.832     -22451.832      7.7049907e-12 -2.5426469e-12  4.0849292e-11  8.3258675      12.488801      16.651735      1731.4491    
       214   0             -1002.1161     -21826.925     -21826.925     -21826.925     -21826.925     -9.7112647e-12  1.1175662e-11  6.5127133e-12  8.3250167      12.487525      16.650033      1730.9184    
       215   0             -1002.1232     -21201.172     -21201.172     -21201.172     -21201.172      1.1821565e-12 -5.1398108e-12 -4.0771549e-11  8.324166       12.486249      16.648332      1730.3879    
       216   0             -1002.1301     -20574.569     -20574.569     -20574.569     -20574.569     -1.4138814e-11 -5.5526979e-12  3.740359e-12   8.3233153      12.484973      16.646631      1729.8574    
       217   0             -1002.1368     -19947.116     -19947.116     -19947.116     -19947.116      6.8658566e-12 -5.7344046e-12  3.1719229e-11  8.3224646      12.483697      16.644929      1729.327     
       218   0             -1002.1433     -19318.811     -19318.811     -19318.811     -19318.811      3.6011788e-13  1.1523772e-11 -1.8829021e-11  8.3216139      12.482421      16.643228      1728.7968    
       219   0             -1002.1496     -18689.653     -18689.653     -18689.653     -18689.653      1.03437e-11   -4.3742014e-12 -1.1604499e-11  8.3207632      12.481145      16.641526      1728.2666    
       220   0             -1002.1557     -18059.639     -18059.639     -18059.639     -18059.639      3.8607735e-13 -7.0780847e-12 -3.3138306e-11  8.3199125      12.479869      16.639825      1727.7366    
       221   0             -1002.1615     -17428.769     -17428.769     -17428.769     -17428.769     -1.2152295e-11 -1.1302664e-11 -1.4701187e-11  8.3190618      12.478593      16.638124      1727.2067    
       222   0             -1002.1672     -16797.044     -16797.044     -16797.044     -16797.044     -1.5195029e-12 -3.7086173e-12 -3.7472487e-12  8.3182111      12.477317      16.636422      1726.6769    
       223   0             -1002.1727     -16164.474     -16164.474     -16164.474     -16164.474      4.1219504e-12  4.9205783e-12 -3.7355176e-12  8.3173604      12.476041      16.634721      1726.1471    
       224   0             -1002.1779     -15531.058     -15531.058     -15531.058     -15531.058      7.1383168e-12 -1.0514199e-11  2.8862508e-12  8.3165097      12.474765      16.633019      1725.6175    
       225   0             -1002.1829     -14896.793     -14896.793     -14896.793     -14896.793     -5.9289415e-12  1.0826763e-12 -5.9418305e-12  8.315659       12.473488      16.631318      1725.088     
       226   0             -1002.1877     -14261.68      -14261.68      -14261.68      -14261.68       1.5884126e-11  1.0649585e-11  1.1358698e-11  8.3148083      12.472212      16.629617      1724.5587    
       227   0             -1002.1923     -13625.715     -13625.715     -13625.715     -13625.715      3.8948692e-12 -1.263898e-11   4.0186796e-11  8.3139576      12.470936      16.627915      1724.0294    
       228   0             -1002.1967     -12988.899     -12988.899     -12988.899     -12988.899     -9.8820723e-12 -1.999636e-11  -1.7764509e-11  8.3131068      12.46966       16.626214      1723.5002    
       229   0             -1002.2009     -12351.228     -12351.228     -12351.228     -12351.228      3.9746904e-12  6.7879453e-12  1.1665975e-11  8.3122561      12.468384      16.624512      1722.9712    
       230   0             -1002.2049     -11712.703     -11712.703     -11712.703     -11712.703     -1.4044777e-11  1.0843394e-12 -1.293462e-11   8.3114054      12.467108      16.622811      1722.4422    
       231   0             -1002.2087     -11073.32      -11073.32      -11073.32      -11073.32       4.0804343e-12 -4.9326769e-12 -1.4681816e-11  8.3105547      12.465832      16.621109      1721.9134    
       232   0             -1002.2122     -10433.079     -10433.079     -10433.079     -10433.079     -6.4583665e-13 -3.1516828e-12  4.5725235e-12  8.309704       12.464556      16.619408      1721.3846    
       233   0             -1002.2155     -9791.9782     -9791.9782     -9791.9782     -9791.9782     -6.9771784e-13 -1.1887045e-11 -5.0132319e-12  8.3088533      12.46328       16.617707      1720.856     
       234   0             -1002.2187     -9150.0158     -9150.0158     -9150.0158     -9150.0158      9.2540639e-12  3.9032504e-12  9.5901054e-12  8.3080026      12.462004      16.616005      1720.3275    
       235   0             -1002.2216     -8507.1904     -8507.1904     -8507.1904     -8507.1904      4.5250245e-12  3.9044497e-12  2.2107977e-12  8.3071519      12.460728      16.614304      1719.7991    
       236   0             -1002.2243     -7863.5004     -7863.5004     -7863.5004     -7863.5004     -3.621132e-12   2.0692183e-13 -2.3136447e-11  8.3063012      12.459452      16.612602      1719.2708    
       237   0             -1002.2268     -7218.9444     -7218.9444     -7218.9444     -7218.9444      1.0349271e-11  1.6843438e-11  1.2522618e-11  8.3054505      12.458176      16.610901      1718.7426    
       238   0             -1002.229      -6573.5207     -6573.5207     -6573.5207     -6573.5207     -7.6866953e-12  3.964989e-11   3.1057355e-13  8.3045998      12.4569        16.6092        1718.2145    
       239   0             -1002.2311     -5927.2277     -5927.2277     -5927.2277     -5927.2277      2.0711267e-13  7.3007218e-12 -3.8315845e-12  8.3037491      12.455624      16.607498      1717.6865    
       240   0             -1002.2329     -5280.0641     -5280.0641     -5280.0641     -5280.0641     -9.1675532e-12  1.0488302e-11 -1.593963e-11   8.3028984      12.454348      16.605797      1717.1586    
       241   0             -1002.2346     -4632.0281     -4632.0281     -4632.0281     -4632.0281     -2.0724004e-13  1.8470268e-11 -6.7353012e-12  8.3020477      12.453071      16.604095      1716.6309    
       242   0             -1002.236      -3983.1183     -3983.1183     -3983.1183     -3983.1183     -2.591297e-13   1.5547782e-13 -4.1110926e-11  8.301197       12.451795      16.602394      1716.1032    
       243   0             -1002.2372     -3333.3331     -3333.3331     -3333.3331     -3333.3331      3.8881407e-13 -4.9249782e-13 -4.8964652e-11  8.3003462      12.450519      16.600692      1715.5757    
       244   0             -1002.2382     -2682.671      -2682.671      -2682.671      -2682.671       3.0077535e-12 -5.7043601e-13  2.6499346e-11  8.2994955      12.449243      16.598991      1715.0482    
       245   0             -1002.239      -2031.1305     -2031.1305     -2031.1305     -2031.1305     -2.3602565e-12  8.1701186e-12  2.8011835e-12  8.2986448      12.447967      16.59729       1714.5209    
       246   0             -1002.2395     -1378.7155     -1378.7155     -1378.7155     -1378.7155     -2.8798797e-12  4.8516893e-12  1.5216662e-11  8.2977941      12.446691      16.595588      1713.9937    
       247   0             -1002.2399     -725.43413     -725.43413     -725.43413     -725.43413     -1.1549016e-11  2.0762275e-12 -4.9180639e-12  8.2969434      12.445415      16.593887      1713.4666    
       248   0             -1002.24       -71.284784     -71.284784     -71.284784     -71.284784      1.9211013e-12  3.2191428e-12  1.94187e-11    8.2960927      12.444139      16.592185      1712.9396    
       249   0             -1002.24       -0.029169656   -0.029169703   -0.029169562   -0.029169702    7.5288924e-13 -2.7000166e-12  4.7899333e-12  8.2960001      12.444         16.592         1712.8822    
       250   0             -1002.24       -4.2822594e-06 -4.3387949e-06 -4.1689229e-06 -4.3390605e-06 -6.8798501e-12  1.3240466e-12  5.8803247e-12  8.2960001      12.444         16.592         1712.8822    
       251   0             -1002.24        2.499428e-09  -6.602117e-08   1.3986354e-07 -6.6344082e-08  4.9586844e-12 -2.3105911e-12  6.282731e-12   8.2960001      12.444         16.592         1712.8822    
       252   0             -1002.24        2.499428e-09  -6.602117e-08   1.3986354e-07 -6.6344082e-08  4.9586844e-12 -2.3105911e-12  6.282731e-12   8.2960001      12.444         16.592         1712.8822    
Loop time of 0.227073 on 4 procs for 252 steps with 192 atoms

48.2% CPU use with 4 MPI tasks x 1 OpenMP threads

Minimization stats:
  Stopping criterion = linesearch alpha is zero
  Energy initial, next-to-last, final = 
     -996.099682966681  -1002.23999996544  -1002.23999996544
  Force two-norm initial, final = 274.92215 1.844997e-10
  Force max component initial, final = 158.72638 1.53332e-10
  Final line search alpha, max atom move = 0.5 7.6666e-11
  Iterations, force evaluations = 252 256

MPI task timing breakdown:
Section |  min time  |  avg time  |  max time  |%varavg| %total
---------------------------------------------------------------
Pair    | 0.1712     | 0.18878    | 0.20801    |   3.8 | 83.14
Neigh   | 4.8e-05    | 8.825e-05  | 0.000141   |   0.0 |  0.04
Comm    | 0.005473   | 0.02452    | 0.041985   |  10.6 | 10.80
Output  | 0.00275    | 0.0028785  | 0.003259   |   0.4 |  1.27
Modify  | 0          | 0          | 0          |   0.0 |  0.00
Other   |            | 0.0108     |            |       |  4.76

Nlocal:             48 ave          80 max          24 min
Histogram: 1 0 1 0 1 0 0 0 0 1
Nghost:            600 ave         624 max         568 min
Histogram: 1 0 0 0 0 1 0 1 0 1
Neighs:           1920 ave        3200 max         960 min
Histogram: 1 0 1 0 1 0 0 0 0 1
FullNghs:         3840 ave        6400 max        1920 min
Histogram: 1 0 1 0 1 0 0 0 0 1

Total # of neighbors = 15360
Ave neighs/atom = 80
Neighbor list builds = 1
Dangerous builds = 0

variable tmp equal pxx
variable pxx0 equal ${tmp}
variable pxx0 equal -6.60211696036366e-08
variable tmp equal pyy
variable pyy0 equal ${tmp}
variable pyy0 equal 1.39863535188737e-07
variable tmp equal pzz
variable pzz0 equal ${tmp}
variable pzz0 equal -6.63440815624086e-08
variable tmp equal pyz
variable pyz0 equal ${tmp}
variable pyz0 equal 6.28273099093818e-12
variable tmp equal pxz
variable pxz0 equal ${tmp}
variable pxz0 equal -2.31059114955991e-12
variable tmp equal pxy
variable pxy0 equal ${tmp}
variable pxy0 equal 4.95868437714542e-12

variable tmp equal lx
variable lx0 equal ${tmp}
variable lx0 equal 8.29600007754527
variable tmp equal ly
variable ly0 equal ${tmp}
variable ly0 equal 12.4440001163198
variable tmp equal lz
variable lz0 equal ${tmp}
variable lz0 equal 16.5920001550905

# These formulas define the derivatives w.r.t. strain components
# Constants uses $, variables use v_
variable d1 equal -(v_pxx1-${pxx0})/(v_delta/v_len0)*${cfac}
variable d1 equal -(v_pxx1--6.60211696036366e-08)/(v_delta/v_len0)*${cfac}
variable d1 equal -(v_pxx1--6.60211696036366e-08)/(v_delta/v_len0)*0.0001
variable d2 equal -(v_pyy1-${pyy0})/(v_delta/v_len0)*${cfac}
variable d2 equal -(v_pyy1-1.39863535188737e-07)/(v_delta/v_len0)*${cfac}
variable d2 equal -(v_pyy1-1.39863535188737e-07)/(v_delta/v_len0)*0.0001
variable d3 equal -(v_pzz1-${pzz0})/(v_delta/v_len0)*${cfac}
variable d3 equal -(v_pzz1--6.63440815624086e-08)/(v_delta/v_len0)*${cfac}
variable d3 equal -(v_pzz1--6.63440815624086e-08)/(v_delta/v_len0)*0.0001
variable d4 equal -(v_pyz1-${pyz0})/(v_delta/v_len0)*${cfac}
variable d4 equal -(v_pyz1-6.28273099093818e-12)/(v_delta/v_len0)*${cfac}
variable d4 equal -(v_pyz1-6.28273099093818e-12)/(v_delta/v_len0)*0.0001
variable d5 equal -(v_pxz1-${pxz0})/(v_delta/v_len0)*${cfac}
variable d5 equal -(v_pxz1--2.31059114955991e-12)/(v_delta/v_len0)*${cfac}
variable d5 equal -(v_pxz1--2.31059114955991e-12)/(v_delta/v_len0)*0.0001
variable d6 equal -(v_pxy1-${pxy0})/(v_delta/v_len0)*${cfac}
variable d6 equal -(v_pxy1-4.95868437714542e-12)/(v_delta/v_len0)*${cfac}
variable d6 equal -(v_pxy1-4.95868437714542e-12)/(v_delta/v_len0)*0.0001

displace_atoms all random ${atomjiggle} ${atomjiggle} ${atomjiggle} 87287 units box
displace_atoms all random 1e-05 ${atomjiggle} ${atomjiggle} 87287 units box
displace_atoms all random 1e-05 1e-05 ${atomjiggle} 87287 units box
displace_atoms all random 1e-05 1e-05 1e-05 87287 units box
Displacing atoms ...

# Write restart
unfix 3
write_restart restart.equil
System init for write_restart ...

# uxx Perturbation

variable dir equal 1
include displace.mod
# NOTE: This script should not need to be
# modified. See in.elastic for more info.
#
# Find which reference length to use

if "${dir} == 1" then    "variable len0 equal ${lx0}"
variable len0 equal ${lx0}
variable len0 equal 8.29600007754527
if "${dir} == 2" then    "variable len0 equal ${ly0}"
if "${dir} == 3" then    "variable len0 equal ${lz0}"
if "${dir} == 4" then    "variable len0 equal ${lz0}"
if "${dir} == 5" then    "variable len0 equal ${lz0}"
if "${dir} == 6" then    "variable len0 equal ${ly0}"

# Reset box and simulation parameters

clear
  using 1 OpenMP thread(s) per MPI task
Loaded 1 plugins from C:\Program Files\LAMMPS 64-bit 23Jun2022\plugins
Loaded 0 plugins from C:\Program Files\LAMMPS 64-bit 23Jun2022-MPI\plugins
Loaded 1 plugins from C:\Program Files\LAMMPS 64-bit 22Dec2022-MSMPI\plugins
Loaded 1 plugins from C:\Program Files\LAMMPS 64-bit 28Mar2023-MPI\plugins
box tilt large

The 'box' command has been removed and will be ignored

read_restart restart.equil
Reading restart file ...
  restart file = 22 Dec 2022, LAMMPS = 22 Dec 2022
  restoring atom style atomic from restart
  triclinic box = (0.10553396 0.15830094 0.21106792) to (8.401534 12.602301 16.803068) with tilt (0 0 0)
  1 by 2 by 2 MPI processor grid
  pair style meam stores no restart info
  192 atoms
  read_restart CPU = 0.001 seconds
include potential.mod
# NOTE: This script can be modified for different pair styles
# See in.elastic for more info.

# Choose potential
#-----------------------
#pair_style	sw
#pair_coeff * * Si.sw Si
#-----------------------
#pair_style morse	2.83994742	# D0[eV] a[1/A] r0[A] rc[A], 1NN for BCC
#pair_coeff 1 1	2.1173	1.0202	2.4595	2.6497	#	Fe-Fe
#-----------------------
#pair_style smatb # R0(A)   p       q     A(eV)   xi(eV)  Rcs(A)   Rc(A), 4NN: Rcs=4NN, Rc=(4NN+5NN)/2
#pair_coeff 1 1	2.4802	7.0149	2.3779	0.3144	3.0551	4.033	4.176	#	Co	Co
#-----------------------
#pair_style eam/alloy
#pair_coeff * * AlCrFeCoNi_Zhou04.eam.alloy Fe
#-----------------------
pair_style meam
#pair_coeff * * ./../../library.meam Ti V Cr Fe N ./../../TiVCrFeN.meam Ti N
#pair_coeff * * ./../../library.meam Ti V Cr Fe N ./../../TiVCrFeN.meam V N
pair_coeff * * ./../../library.meam Ti V Cr Fe N ./../../TiVCrFeN.meam Cr N
#pair_coeff * * ./../../library.meam Ti V Cr Fe N ./../../TiVCrFeN.meam Fe N
#-----------------------

# Setup neighbor style
neighbor 1.0 nsq
neigh_modify once no every 1 delay 0 check yes

# Setup minimization style
min_style	     cg
min_modify	     dmax ${dmax} line quadratic
min_modify	     dmax 0.01 line quadratic

# Setup output
thermo		1
thermo_style custom step temp pe press pxx pyy pzz pxy pxz pyz lx ly lz vol
thermo_modify norm no

# Negative deformation

variable delta equal -${up}*${len0}
variable delta equal -1e-06*${len0}
variable delta equal -1e-06*8.29600007754527
variable deltaxy equal -${up}*xy
variable deltaxy equal -1e-06*xy
variable deltaxz equal -${up}*xz
variable deltaxz equal -1e-06*xz
variable deltayz equal -${up}*yz
variable deltayz equal -1e-06*yz
if "${dir} == 1" then    "change_box all x delta 0 ${delta} xy delta ${deltaxy} xz delta ${deltaxz} remap units box"
change_box all x delta 0 ${delta} xy delta ${deltaxy} xz delta ${deltaxz} remap units box
change_box all x delta 0 -8.29600007754527e-06 xy delta ${deltaxy} xz delta ${deltaxz} remap units box
change_box all x delta 0 -8.29600007754527e-06 xy delta -0 xz delta ${deltaxz} remap units box
change_box all x delta 0 -8.29600007754527e-06 xy delta -0 xz delta -0 remap units box
Changing box ...
  triclinic box = (0.10553396 0.15830094 0.21106792) to (8.4015257 12.602301 16.803068) with tilt (0 0 0)
  triclinic box = (0.10553396 0.15830094 0.21106792) to (8.4015257 12.602301 16.803068) with tilt (0 0 0)
  triclinic box = (0.10553396 0.15830094 0.21106792) to (8.4015257 12.602301 16.803068) with tilt (0 0 0)
if "${dir} == 2" then    "change_box all y delta 0 ${delta} yz delta ${deltayz} remap units box"
if "${dir} == 3" then    "change_box all z delta 0 ${delta} remap units box"
if "${dir} == 4" then    "change_box all yz delta ${delta} remap units box"
if "${dir} == 5" then    "change_box all xz delta ${delta} remap units box"
if "${dir} == 6" then    "change_box all xy delta ${delta} remap units box"

# Relax atoms positions

minimize ${etol} ${ftol} ${maxiter} ${maxeval}
minimize 0 ${ftol} ${maxiter} ${maxeval}
minimize 0 1e-10 ${maxiter} ${maxeval}
minimize 0 1e-10 1000 ${maxeval}
minimize 0 1e-10 1000 100000
Neighbor list info ...
  update: every = 1 steps, delay = 0 steps, check = yes
  max neighbors/atom: 2000, page size: 100000
  master list distance cutoff = 5.6
  ghost atom cutoff = 5.6
  2 neighbor lists, perpetual/occasional/extra = 2 0 0
  (1) pair meam, perpetual
      attributes: full, newton on
      pair build: full/nsq
      stencil: none
      bin: none
  (2) pair meam, perpetual, half/full from (1)
      attributes: half, newton on
      pair build: halffull/newton
      stencil: none
      bin: none
Per MPI rank memory allocation (min/avg/max) = 9.871 | 9.873 | 9.877 Mbytes
   Step          Temp          PotEng         Press           Pxx            Pyy            Pzz            Pxy            Pxz            Pyz             Lx             Ly             Lz           Volume    
       252   0             -1002.24        2.1281452      1.2356546      2.5743802      2.5744008      9.9840244e-06 -1.5485429e-05 -1.1710877e-07  8.2959918      12.444         16.592         1712.8805    
       253   0             -1002.24        2.1196685      1.2210527      2.5643606      2.5735923     -0.0034883095   0.0011964344   0.003436559    8.2959918      12.444         16.592         1712.8805    
       254   0             -1002.2797     -31.59429      -61.298084     -37.577068      4.0922834     -15.360436      6.7124566      13.990325      8.2959918      12.444         16.592         1712.8805    
       255   0             -1002.3961     -130.19584     -244.92013     -155.49103      9.8236519     -60.978043      26.27112       55.436627      8.2959918      12.444         16.592         1712.8805    
       256   0             -1002.5889     -292.74452     -549.32379     -350.81177      21.902002     -137.45307      58.372723      124.75755      8.2959918      12.444         16.592         1712.8805    
       257   0             -1002.8572     -517.62919     -973.84635     -622.49736      43.456132     -245.3044       102.73714      222.23799      8.2959918      12.444         16.592         1712.8805    
       258   0             -1003.2001     -802.85089     -1518.2085     -969.01981      78.675619     -385.11326      159.10798      348.06372      8.2959918      12.444         16.592         1712.8805    
       259   0             -1003.6175     -1147.3121     -2185.7647     -1389.3562      133.18474     -558.21004      227.22838      502.42498      8.2959918      12.444         16.592         1712.8805    
       260   0             -1004.113      -1557.3378     -2999.9722     -1888.0077      215.96649     -770.3113       298.34694      685.99262      8.2959918      12.444         16.592         1712.8805    
       261   0             -1004.7019     -2060.063      -4039.8835     -2484.2409      343.93552     -1044.8185      355.51677      899.42127      8.2959918      12.444         16.592         1712.8805    
       262   0             -1005.3855     -2658.3033     -5335.4581     -3173.8298      534.37809     -1363.5909      449.15867      1143.8084      8.2959918      12.444         16.592         1712.8805    
       263   0             -1006.1444     -3320.0551     -6818.8411     -3929.0633      787.73918     -1724.0775      551.61518      1384.7343      8.2959918      12.444         16.592         1712.8805    
       264   0             -1006.964      -4028.2636     -8452.8474     -4729.8533      1097.9099     -2084.3202      651.72215      1581.9438      8.2959918      12.444         16.592         1712.8805    
       265   0             -1007.8317     -4773.1158     -10219.728     -5560.7468      1461.1272     -2372.2055      773.20285      1753.1977      8.2959918      12.444         16.592         1712.8805    
       266   0             -1008.7413     -5551.5065     -12112.791     -6419.6287      1877.9008     -2590.6176      909.45424      1948.5822      8.2959918      12.444         16.592         1712.8805    
       267   0             -1009.6859     -6359.078      -14121.898     -7301.6707      2346.3346     -2777.4683      1057.8693      2139.9055      8.2959918      12.444         16.592         1712.8805    
       268   0             -1010.6603     -7193.4307     -16243.257     -8202.4732      2865.4383     -3001.0339      1207.0432      2307.8418      8.2959918      12.444         16.592         1712.8805    
       269   0             -1011.6596     -8051.8725     -18473.854     -9115.7491      3433.986      -3235.8304      1363.1142      2455.1029      8.2959918      12.444         16.592         1712.8805    
       270   0             -1012.6787     -8931.1218     -20805.374     -10036.653      4048.6623     -3486.0086      1531.7667      2589.8569      8.2959918      12.444         16.592         1712.8805    
       271   0             -1013.711      -9826.7592     -23226.481     -10959.22       4705.4225     -3718.0196      1673.9111      2719.4992      8.2959918      12.444         16.592         1712.8805    
       272   0             -1014.7527     -10736.605     -25729.354     -11880.3        5399.838      -3908.5232      1798.7857      2809.2883      8.2959918      12.444         16.592         1712.8805    
       273   0             -1015.8011     -11659.819     -28303.144     -12798.206      6121.8925     -4051.9316      1903.1563      2862.4457      8.2959918      12.444         16.592         1712.8805    
       274   0             -1016.8542     -12595.714     -30951.079     -13709.315      6873.2517     -4188.9332      2004.0829      2900.4348      8.2959918      12.444         16.592         1712.8805    
       275   0             -1017.9102     -13543.381     -33663.586     -14613.51       7646.9516     -4340.7932      2088.0637      2931.8044      8.2959918      12.444         16.592         1712.8805    
       276   0             -1018.9678     -14502.318     -36438.318     -15509.192      8440.5543     -4481.6469      2165.6169      2976.8914      8.2959918      12.444         16.592         1712.8805    
       277   0             -1020.0263     -15472.116     -39272.165     -16395.256      9251.0714     -4604.0974      2247.0777      3026.8894      8.2959918      12.444         16.592         1712.8805    
       278   0             -1021.0853     -16452.522     -42160.504     -17272.593      10075.53      -4726.5928      2330.7911      3068.4355      8.2959918      12.444         16.592         1712.8805    
       279   0             -1022.1448     -17443.43      -45099.163     -18141.273      10910.147     -4849.7963      2409.2719      3106.7104      8.2959918      12.444         16.592         1712.8805    
       280   0             -1023.2051     -18444.831     -48083.341     -19001.732      11750.581     -4963.2818      2478.8883      3143.9051      8.2959918      12.444         16.592         1712.8805    
       281   0             -1024.2672     -19456.876     -51107.356     -19855.428      12592.154     -5072.4616      2541.593       3180.4368      8.2959918      12.444         16.592         1712.8805    
       282   0             -1025.3257     -20473.385     -54148.945     -20697.63       13426.42      -5174.3917      2602.2849      3214.6055      8.2959918      12.444         16.592         1712.8805    
       283   0             -1026.381      -21493.367     -57197.769     -21530.435      14248.103     -5279.4299      2648.9031      3244.3687      8.2959918      12.444         16.592         1712.8805    
       284   0             -1027.4348     -22516.906     -60247.122     -22357.878      15054.282     -5398.2447      2684.9055      3270.8173      8.2959918      12.444         16.592         1712.8805    
       285   0             -1028.4893     -23544.115     -63290.386     -23183.448      15841.488     -5527.741       2717.9296      3294.9726      8.2959918      12.444         16.592         1712.8805    
       286   0             -1029.5464     -24574.763     -66320.818     -24009.213      16605.74      -5659.1629      2755.2333      3323.2927      8.2959918      12.444         16.592         1712.8805    
       287   0             -1030.6082     -25608.327     -69330.013     -24839.332      17344.365     -5789.7026      2797.6714      3350.7151      8.2959918      12.444         16.592         1712.8805    
       288   0             -1031.6767     -26644.025     -72310.09      -25677.596      18055.61      -5919.3374      2842.3902      3379.4054      8.2959918      12.444         16.592         1712.8805    
       289   0             -1032.7539     -27680.884     -75253.021     -26527.864      18738.233     -6042.8868      2889.6076      3408.2718      8.2959918      12.444         16.592         1712.8805    
       290   0             -1033.8417     -28717.773     -78151.978     -27392.765      19391.424     -6162.3765      2940.605       3434           8.2959918      12.444         16.592         1712.8805    
       291   0             -1034.9419     -29753.484     -81001.762     -28273.864      20015.175     -6280.327       2993.8508      3454.4649      8.2959918      12.444         16.592         1712.8805    
       292   0             -1036.0562     -30786.849     -83799.473     -29170.698      20609.623     -6399.7034      3048.5764      3478.4405      8.2959918      12.444         16.592         1712.8805    
       293   0             -1037.1864     -31816.856     -86546.108     -30082.403      21177.942     -6518.522       3105.1492      3505.354       8.2959918      12.444         16.592         1712.8805    
       294   0             -1038.3337     -32842.742     -89244.387     -31006.773      21722.935     -6636.2157      3173.3283      3527.0908      8.2959918      12.444         16.592         1712.8805    
       295   0             -1039.4996     -33864.117     -91904.433     -31939.519      22251.601     -6760.0353      3242.2947      3546.3269      8.2959918      12.444         16.592         1712.8805    
       296   0             -1040.6853     -34880.998     -94539.485     -32873.588      22770.081     -6889.6588      3310.1047      3564.6743      8.2959918      12.444         16.592         1712.8805    
       297   0             -1041.8919     -35893.817     -97166.147     -33799.929      23284.626     -7019.0455      3378.7382      3582.8913      8.2959918      12.444         16.592         1712.8805    
       298   0             -1043.1203     -36903.393     -99803.015     -34708.818      23801.653     -7147.7768      3445.9869      3603.2091      8.2959918      12.444         16.592         1712.8805    
       299   0             -1044.3714     -37910.848     -102469.32     -35590.61       24327.386     -7275.2136      3510.0583      3622.0656      8.2959918      12.444         16.592         1712.8805    
       300   0             -1045.6461     -38917.466     -105179.49     -36439.595      24866.682     -7417.6473      3569.6268      3637.4798      8.2959918      12.444         16.592         1712.8805    
       301   0             -1046.9453     -39924.69      -107951.19     -37245.62       25422.741     -7567.3716      3624.1484      3650.8385      8.2959918      12.444         16.592         1712.8805    
       302   0             -1048.2701     -40933.761     -110798.18     -37999.827      25996.721     -7716.0456      3671.8295      3663.2146      8.2959918      12.444         16.592         1712.8805    
       303   0             -1049.6218     -41945.742     -113728.13     -38697.317      26588.222     -7863.3431      3714.742       3675.893       8.2959918      12.444         16.592         1712.8805    
       304   0             -1051.0018     -42961.436     -116743.33     -39335.92       27194.938     -8007.9268      3752.975       3686.7102      8.2959918      12.444         16.592         1712.8805    
       305   0             -1052.4123     -43981.402     -119842.26     -39915.344      27813.402     -8147.3374      3786.2196      3697.7655      8.2959918      12.444         16.592         1712.8805    
[...]
       404   0             -1619.4637     -43099.654     -114787.14     -56357.407      41845.588     -6583.0787      4444.7512      2949.8724      8.2960001      12.444         16.592         1712.8822    
       405   0             -1619.4638     -43148.797     -114915.91     -56360.556      41830.079     -6603.0751      4489.4463      2956.8148      8.2960001      12.444         16.592         1712.8822    
       406   0             -1619.4671     -44094.789     -117392.11     -56424.912      41532.653     -6987.3193      5348.0242      3090.3342      8.2960001      12.444         16.592         1712.8822    
       407   0             -1619.4911     -40624.955     -108299.78     -56234.647      42659.562     -5560.0252      2149.2306      2590.4712      8.2960001      12.444         16.592         1712.8822    
       408   0             -1619.6812     -29551.092     -80422.403     -55831.285      47600.411     -462.47066     -9623.9563      492.73987      8.2960001      12.444         16.592         1712.8822    
       409   0             -1620.9515     -40236.398     -109619.25     -58748.705      47658.765     -4118.6398     -1418.1329      1556.1442      8.2960001      12.444         16.592         1712.8822    
       410   0             -1620.9855     -43023.525     -115398.91     -59125.636      45453.974     -5594.9294      2151.791       2467.9014      8.2960001      12.444         16.592         1712.8822    
       411   0             -1620.9922     -44532.524     -118528.14     -59329.74       44260.311     -6394.2188      4084.5725      2961.5343      8.2960001      12.444         16.592         1712.8822    
       412   0             -1620.9927     -44918.571     -119328.7      -59381.99       43954.974     -6598.6914      4578.9975      3087.8109      8.2960001      12.444         16.592         1712.8822    
       413   0             -1620.9928     -45096.393     -119697.45     -59406.145      43814.416     -6692.8488      4806.6495      3145.9538      8.2960001      12.444         16.592         1712.8822    
       414   0             -1620.9942     -43810.673     -117029.3      -59235.457      44832.743     -6010.0677      3157.3785      2724.6354      8.2960001      12.444         16.592         1712.8822    
       415   0             -1620.9953     -42342.396     -113971.79     -59045.182      45989.789     -5224.8565      1274.0507      2242.9659      8.2960001      12.444         16.592         1712.8822    
       416   0             -1621.1699     -47296.291     -124374.59     -59874.362      42360.077     -7848.0823      7385.7042      3811.4045      8.2960001      12.444         16.592         1712.8822    
       417   0             -1621.2582     -41685.837     -112285.04     -59151.183      46378.711     -4689.9348      399.43981      2003.1713      8.2960001      12.444         16.592         1712.8822    
       418   0             -1624.425      -35904.435     -93173.708     -58962.453      44422.856      1323.5483     -1311.307       1267.9134      8.2960001      12.444         16.592         1712.8822    
       419   0             -1624.9059     -45010.066     -117284.22     -61157.542      43411.564     -5469.5492      3829.0357      2730.1221      8.2960001      12.444         16.592         1712.8822    
       420   0             -1624.907      -45169.832     -117715.47     -61193.509      43399.477     -5594.1061      3901.2528      2750.979       8.2960001      12.444         16.592         1712.8822    
       421   0             -1624.9126     -46600.721     -121577.74     -61515.643      43291.223     -6709.658       4548.0458      2937.7792      8.2960001      12.444         16.592         1712.8822    
       422   0             -1624.9128     -46914.295     -122424.12     -61586.28       43267.515     -6954.1057      4689.7754      2978.7125      8.2960001      12.444         16.592         1712.8822    
       423   0             -1624.913      -47023.313     -122718.3      -61610.972      43259.327     -7039.0179      4739.0032      2992.9305      8.2960001      12.444         16.592         1712.8822    
       424   0             -1624.9134     -46137.634     -120327.05     -61412.802      43326.949     -6347.6084      4337.9876      2877.0773      8.2960001      12.444         16.592         1712.8822    
       425   0             -1624.9135     -45915.816     -119728.04     -61363.481      43344.076     -6174.1427      4237.3124      2847.972       8.2960001      12.444         16.592         1712.8822    
       426   0             -1624.9165     -46711.408     -121874.82     -61543.55       43284.15      -6794.1212      4596.8525      2951.8522      8.2960001      12.444         16.592         1712.8822    
       427   0             -1624.9166     -46941.843     -122496.7      -61595.532      43266.7       -6973.8335      4701.097       2981.9781      8.2960001      12.444         16.592         1712.8822    
       428   0             -1624.9172     -47083.541     -122878.82     -61627.95       43256.151     -7084.0942      4765.0433      3000.4595      8.2960001      12.444         16.592         1712.8822    
       429   0             -1624.9175     -46444.542     -121154        -61484.53       43304.899     -6585.2223      4475.5908      2916.7911      8.2960001      12.444         16.592         1712.8822    
       430   0             -1624.9176     -46074.588     -120155.24     -61401.852      43333.333     -6296.0681      4307.7528      2868.2562      8.2960001      12.444         16.592         1712.8822    
       431   0             -1624.9269     -47882.794     -125029.44     -61817.794      43198.852     -7703.4218      5124.5669      3104.5836      8.2960001      12.444         16.592         1712.8822    
       432   0             -1624.9566     -44323.904     -115421.49     -61038.866      43488.647     -4893.7436      3485.0329      2627.4185      8.2960001      12.444         16.592         1712.8822    
       433   0             -1625.481      -29269.751     -76814.374     -57027.374      46032.494      9356.8819     -6003.4868     -736.06162      8.2960001      12.444         16.592         1712.8822    
       434   0             -1626.0517     -30048.36      -80025.112     -56877.882      46757.915      9646.439      -6666.7661     -1687.9223      8.2960001      12.444         16.592         1712.8822    
       435   0             -1626.5956     -43317.077     -112991.12     -61549.969      44589.855     -2765.5407      1788.0521      1495.2206      8.2960001      12.444         16.592         1712.8822    
       436   0             -1626.6327     -46543.976     -121008.28     -62686.242      44062.597     -5784.0807      3844.2326      2269.3557      8.2960001      12.444         16.592         1712.8822    
       437   0             -1626.637      -47714.178     -123915.61     -63098.332      43871.404     -6878.7084      4589.8766      2550.0878      8.2960001      12.444         16.592         1712.8822    
       438   0             -1626.6373     -48064.08      -124784.9      -63221.589      43814.254     -7205.987       4812.8129      2634.0242      8.2960001      12.444         16.592         1712.8822    
       439   0             -1626.6376     -48366.67      -125536.53     -63328.457      43764.976     -7488.8154      5005.4613      2706.5684      8.2960001      12.444         16.592         1712.8822    
       440   0             -1626.6407     -46803.706     -121652.95     -62781.648      44023.478     -6022.5065      4005.9521      2330.0169      8.2960001      12.444         16.592         1712.8822    
       441   0             -1626.6467     -45084.637     -117387.33     -62183.831      44317.254     -4396.8608      2894.3612      1909.0629      8.2960001      12.444         16.592         1712.8822    
       442   0             -1626.6467     -45084.637     -117387.33     -62183.831      44317.254     -4396.8608      2894.3612      1909.0629      8.2960001      12.444         16.592         1712.8822    
Loop time of 0.501254 on 4 procs for 190 steps with 192 atoms

53.8% CPU use with 4 MPI tasks x 1 OpenMP threads

Minimization stats:
  Stopping criterion = linesearch alpha is zero
  Energy initial, next-to-last, final = 
     -1002.24000000556  -1626.64673721565  -1626.64673721565
  Force two-norm initial, final = 0.0011243966 2025.099
  Force max component initial, final = 0.00014567652 1305.6022
  Final line search alpha, max atom move = 2.9075807e-15 3.7961437e-12
  Iterations, force evaluations = 190 889

MPI task timing breakdown:
Section |  min time  |  avg time  |  max time  |%varavg| %total
---------------------------------------------------------------
Pair    | 0.45085    | 0.46338    | 0.47585    |   1.3 | 92.44
Neigh   | 0.000164   | 0.0001805  | 0.000195   |   0.0 |  0.04
Comm    | 0.018923   | 0.031278   | 0.043974   |   5.2 |  6.24
Output  | 0.002097   | 0.002193   | 0.002426   |   0.3 |  0.44
Modify  | 0          | 0          | 0          |   0.0 |  0.00
Other   |            | 0.004225   |            |       |  0.84

Nlocal:             48 ave          52 max          44 min
Histogram: 1 1 0 0 0 0 0 0 1 1
Nghost:         602.25 ave         608 max         598 min
Histogram: 1 1 0 0 0 0 1 0 0 1
Neighs:         1925.5 ave        2067 max        1790 min
Histogram: 1 1 0 0 0 0 0 0 1 1
FullNghs:         3851 ave        4168 max        3524 min
Histogram: 1 1 0 0 0 0 0 0 1 1

Total # of neighbors = 15404
Ave neighs/atom = 80.229167
Neighbor list builds = 2
Dangerous builds = 0

# Obtain new stress tensor

variable tmp equal pe
variable e1 equal ${tmp}
variable e1 equal -1626.64673721565
variable tmp equal press
variable p1 equal ${tmp}
variable p1 equal -45084.6365551782
variable tmp equal pxx
variable pxx1 equal ${tmp}
variable pxx1 equal -117387.333241358
variable tmp equal pyy
variable pyy1 equal ${tmp}
variable pyy1 equal -62183.8305373245
variable tmp equal pzz
variable pzz1 equal ${tmp}
variable pzz1 equal 44317.254113148
variable tmp equal pxy
variable pxy1 equal ${tmp}
variable pxy1 equal -4396.86080123299
variable tmp equal pxz
variable pxz1 equal ${tmp}
variable pxz1 equal 2894.36115465008
variable tmp equal pyz
variable pyz1 equal ${tmp}
variable pyz1 equal 1909.06287151999

# Compute elastic constant from pressure tensor

variable C1pos equal ${d1}
variable C1pos equal 11738733.3241292
variable C2pos equal ${d2}
variable C2pos equal 6218383.05374644
variable C3pos equal ${d3}
variable C3pos equal -4431725.41132144
variable C4pos equal ${d4}
variable C4pos equal -190906.287151998
variable C5pos equal ${d5}
variable C5pos equal -289436.115465008
variable C6pos equal ${d6}
variable C6pos equal 439686.080123299

# Combine positive and negative

variable C1${dir} equal 0.5*(${C1neg}+${C1pos})
variable C16 equal 0.5*(${C1neg}+${C1pos})
variable C16 equal 0.5*(-12578177.4062399+${C1pos})
variable C16 equal 0.5*(-12578177.4062399+11738733.3241292)
variable C2${dir} equal 0.5*(${C2neg}+${C2pos})
variable C26 equal 0.5*(${C2neg}+${C2pos})
variable C26 equal 0.5*(-6442209.47516939+${C2pos})
variable C26 equal 0.5*(-6442209.47516939+6218383.05374644)
variable C3${dir} equal 0.5*(${C3neg}+${C3pos})
variable C36 equal 0.5*(${C3neg}+${C3pos})
variable C36 equal 0.5*(4435720.69961123+${C3pos})
variable C36 equal 0.5*(4435720.69961123+-4431725.41132144)
variable C4${dir} equal 0.5*(${C4neg}+${C4pos})
variable C46 equal 0.5*(${C4neg}+${C4pos})
variable C46 equal 0.5*(255651.613932443+${C4pos})
variable C46 equal 0.5*(255651.613932443+-190906.287151998)
variable C5${dir} equal 0.5*(${C5neg}+${C5pos})
variable C56 equal 0.5*(${C5neg}+${C5pos})
variable C56 equal 0.5*(463302.372997377+${C5pos})
variable C56 equal 0.5*(463302.372997377+-289436.115465008)
variable C6${dir} equal 0.5*(${C6neg}+${C6pos})
variable C66 equal 0.5*(${C6neg}+${C6pos})
variable C66 equal 0.5*(-697518.967708674+${C6pos})
variable C66 equal 0.5*(-697518.967708674+439686.080123299)

# Delete dir to make sure it is not reused

variable dir delete

# Output final values

variable C11all equal ${C11}
variable C11all equal 622879.744386001
variable C22all equal ${C22}
variable C22all equal 46073.4001436452
variable C33all equal ${C33}
variable C33all equal 46798.1159503099

variable C12all equal 0.5*(${C12}+${C21})
variable C12all equal 0.5*(150827.218742751+${C21})
variable C12all equal 0.5*(150827.218742751+380118.193025385)
variable C13all equal 0.5*(${C13}+${C31})
variable C13all equal 0.5*(-128855.7998998+${C31})
variable C13all equal 0.5*(-128855.7998998+-94838.7574985353)
variable C23all equal 0.5*(${C23}+${C32})
variable C23all equal 0.5*(-136257.74856093+${C32})
variable C23all equal 0.5*(-136257.74856093+407805.281741885)

variable C44all equal ${C44}
variable C44all equal -4179.59007554952
variable C55all equal ${C55}
variable C55all equal 22113.220486168
variable C66all equal ${C66}
variable C66all equal -128916.443792688

variable C14all equal 0.5*(${C14}+${C41})
variable C14all equal 0.5*(877234.1739506+${C41})
variable C14all equal 0.5*(877234.1739506+12589.384996381)
variable C15all equal 0.5*(${C15}+${C51})
variable C15all equal 0.5*(-673315.6140115+${C51})
variable C15all equal 0.5*(-673315.6140115+-48340.291919467)
variable C16all equal 0.5*(${C16}+${C61})
variable C16all equal 0.5*(-419722.041055351+${C61})
variable C16all equal 0.5*(-419722.041055351+40569.3725873995)

variable C24all equal 0.5*(${C24}+${C42})
variable C24all equal 0.5*(584133.72527267+${C42})
variable C24all equal 0.5*(584133.72527267+-93240.2883879145)
variable C25all equal 0.5*(${C25}+${C52})
variable C25all equal 0.5*(-459725.75529599+${C52})
variable C25all equal 0.5*(-459725.75529599+-289691.466956455)
variable C26all equal 0.5*(${C26}+${C62})
variable C26all equal 0.5*(-111913.210711475+${C62})
variable C26all equal 0.5*(-111913.210711475+21637.8367496405)

variable C34all equal 0.5*(${C34}+${C43})
variable C34all equal 0.5*(-121727.67688489+${C43})
variable C34all equal 0.5*(-121727.67688489+-4714.047077152)
variable C35all equal 0.5*(${C35}+${C53})
variable C35all equal 0.5*(138592.120869415+${C53})
variable C35all equal 0.5*(138592.120869415+-41171.6543314855)
variable C36all equal 0.5*(${C36}+${C63})
variable C36all equal 0.5*(1997.64414489502+${C63})
variable C36all equal 0.5*(1997.64414489502+5008.04767062049)

variable C45all equal 0.5*(${C45}+${C54})
variable C45all equal 0.5*(4052.38848117102+${C54})
variable C45all equal 0.5*(4052.38848117102+-6750.0481303595)
variable C46all equal 0.5*(${C46}+${C64})
variable C46all equal 0.5*(32372.6633902225+${C64})
variable C46all equal 0.5*(32372.6633902225+18024.9238222265)
variable C56all equal 0.5*(${C56}+${C65})
variable C56all equal 0.5*(86933.1287661845+${C65})
variable C56all equal 0.5*(86933.1287661845+-25130.4268935625)

# Average moduli for cubic crystals

variable C11cubic equal (${C11all}+${C22all}+${C33all})/3.0
variable C11cubic equal (622879.744386001+${C22all}+${C33all})/3.0
variable C11cubic equal (622879.744386001+46073.4001436452+${C33all})/3.0
variable C11cubic equal (622879.744386001+46073.4001436452+46798.1159503099)/3.0
variable C12cubic equal (${C12all}+${C13all}+${C23all})/3.0
variable C12cubic equal (265472.705884068+${C13all}+${C23all})/3.0
variable C12cubic equal (265472.705884068+-111847.278699168+${C23all})/3.0
variable C12cubic equal (265472.705884068+-111847.278699168+135773.766590477)/3.0
variable C44cubic equal (${C44all}+${C55all}+${C66all})/3.0
variable C44cubic equal (-4179.59007554952+${C55all}+${C66all})/3.0
variable C44cubic equal (-4179.59007554952+22113.220486168+${C66all})/3.0
variable C44cubic equal (-4179.59007554952+22113.220486168+-128916.443792688)/3.0

variable bulkmodulus equal (${C11cubic}+2*${C12cubic})/3.0
variable bulkmodulus equal (238583.753493319+2*${C12cubic})/3.0
variable bulkmodulus equal (238583.753493319+2*96466.3979251257)/3.0
variable shearmodulus1 equal ${C44cubic}
variable shearmodulus1 equal -36994.2711273565
variable shearmodulus2 equal (${C11cubic}-${C12cubic})/2.0
variable shearmodulus2 equal (238583.753493319-${C12cubic})/2.0
variable shearmodulus2 equal (238583.753493319-96466.3979251257)/2.0
variable poissonratio equal 1.0/(1.0+${C11cubic}/${C12cubic})
variable poissonratio equal 1.0/(1.0+238583.753493319/${C12cubic})
variable poissonratio equal 1.0/(1.0+238583.753493319/96466.3979251257)

# For Stillinger-Weber silicon, the analytical results
# are known to be (E. R. Cowley, 1988):
#               C11 = 151.4 GPa
#               C12 = 76.4 GPa
#               C44 = 56.4 GPa

print "========================================="
=========================================
print "Components of the Elastic Constant Tensor"
Components of the Elastic Constant Tensor
print "========================================="
=========================================

print "Elastic Constant C11all = ${C11all} ${cunits}"
Elastic Constant C11all = 622879.744386001 GPa
print "Elastic Constant C22all = ${C22all} ${cunits}"
Elastic Constant C22all = 46073.4001436452 GPa
print "Elastic Constant C33all = ${C33all} ${cunits}"
Elastic Constant C33all = 46798.1159503099 GPa

print "Elastic Constant C12all = ${C12all} ${cunits}"
Elastic Constant C12all = 265472.705884068 GPa
print "Elastic Constant C13all = ${C13all} ${cunits}"
Elastic Constant C13all = -111847.278699168 GPa
print "Elastic Constant C23all = ${C23all} ${cunits}"
Elastic Constant C23all = 135773.766590477 GPa

print "Elastic Constant C44all = ${C44all} ${cunits}"
Elastic Constant C44all = -4179.59007554952 GPa
print "Elastic Constant C55all = ${C55all} ${cunits}"
Elastic Constant C55all = 22113.220486168 GPa
print "Elastic Constant C66all = ${C66all} ${cunits}"
Elastic Constant C66all = -128916.443792688 GPa

print "Elastic Constant C14all = ${C14all} ${cunits}"
Elastic Constant C14all = 444911.77947349 GPa
print "Elastic Constant C15all = ${C15all} ${cunits}"
Elastic Constant C15all = -360827.952965484 GPa
print "Elastic Constant C16all = ${C16all} ${cunits}"
Elastic Constant C16all = -189576.334233976 GPa

print "Elastic Constant C24all = ${C24all} ${cunits}"
Elastic Constant C24all = 245446.718442378 GPa
print "Elastic Constant C25all = ${C25all} ${cunits}"
Elastic Constant C25all = -374708.611126223 GPa
print "Elastic Constant C26all = ${C26all} ${cunits}"
Elastic Constant C26all = -45137.6869809172 GPa

print "Elastic Constant C34all = ${C34all} ${cunits}"
Elastic Constant C34all = -63220.861981021 GPa
print "Elastic Constant C35all = ${C35all} ${cunits}"
Elastic Constant C35all = 48710.2332689647 GPa
print "Elastic Constant C36all = ${C36all} ${cunits}"
Elastic Constant C36all = 3502.84590775775 GPa

print "Elastic Constant C45all = ${C45all} ${cunits}"
Elastic Constant C45all = -1348.82982459424 GPa
print "Elastic Constant C46all = ${C46all} ${cunits}"
Elastic Constant C46all = 25198.7936062245 GPa
print "Elastic Constant C56all = ${C56all} ${cunits}"
Elastic Constant C56all = 30901.350936311 GPa

print "========================================="
=========================================
print "Average properties for a cubic crystal"
Average properties for a cubic crystal
print "========================================="
=========================================

print "Bulk Modulus = ${bulkmodulus} ${cunits}"
Bulk Modulus = 143838.84978119 GPa
print "Shear Modulus 1 = ${shearmodulus1} ${cunits}"
Shear Modulus 1 = -36994.2711273565 GPa
print "Shear Modulus 2 = ${shearmodulus2} ${cunits}"
Shear Modulus 2 = 71058.6777840967 GPa
print "Poisson Ratio = ${poissonratio}"
Poisson Ratio = 0.287916294073387
Total wall time: 0:01:02
