LAMMPS (22 Dec 2022)
  using 1 OpenMP thread(s) per MPI task
Loaded 1 plugins from C:\Program Files\LAMMPS 64-bit 23Jun2022\plugins
Loaded 0 plugins from C:\Program Files\LAMMPS 64-bit 23Jun2022-MPI\plugins
Loaded 1 plugins from C:\Program Files\LAMMPS 64-bit 22Dec2022-MSMPI\plugins
Loaded 1 plugins from C:\Program Files\LAMMPS 64-bit 28Mar2023-MPI\plugins
# Compute elastic constant tensor for a crystal
#
# Written by Aidan Thompson (Sandia, athomps@sandia.gov)
#
#  This script uses the following three include files.
#
#   init.mod      (must be modified for different crystal structures)
# 	       	  Define units, deformation parameters and initial
#		  configuration of the atoms and simulation cell.
#
#
#   potential.mod    (must be modified for different pair styles)
# 		     Define pair style and other attributes
#		     not stored in restart file
#
#
#   displace.mod    (displace.mod should not need to be modified)
# 		    Perform positive and negative box displacements
# 		    in direction ${dir} and size ${up}.
# 		    It uses the resultant changes
#		    in stress to compute one
# 		    row of the elastic stiffness tensor
#
#		    Inputs variables:
#		    	   dir = the Voigt deformation component
#		    		    (1,2,3,4,5,6)
#		    Global constants:
#       	    	   up = the deformation magnitude (strain units)
#       		   cfac = conversion from LAMMPS pressure units to
#               	   output units for elastic constants
#
#
#  To run this on a different system, it should only be necessary to
#  modify the files init.mod and potential.mod. In order to calculate
#  the elastic constants correctly, care must be taken to specify
#  the correct units in init.mod (units, cfac and cunits). It is also
#  important to verify that the minimization of energy w.r.t atom
#  positions in the deformed cell is fully converged.
#  One indication of this is that the elastic constants are insensitive
#  to the choice of the variable ${up} in init.mod. Another is to check
#  the final max and two-norm forces reported in the log file. If you know
#  that minimization is not required, you can set maxiter = 0.0 in
#  init.mod.
#

include init.mod
# NOTE: This script can be modified for different atomic structures,
# units, etc. See in.elastic for more info.
#

# Define the finite deformation size. Try several values of this
# variable to verify that results do not depend on it.
variable up equal 1.0e-6

# Define the amount of random jiggle for atoms
# This prevents atoms from staying on saddle points
variable atomjiggle equal 1.0e-5

# Uncomment one of these blocks, depending on what units
# you are using in LAMMPS and for output

# metal units, elastic constants in eV/A^3
#units		metal
#variable cfac equal 6.2414e-7
#variable cunits string eV/A^3

# metal units, elastic constants in GPa
units		metal
variable cfac equal 1.0e-4
variable cunits string GPa

# real units, elastic constants in GPa
#units		real
#variable cfac equal 1.01325e-4
#variable cunits string GPa

# Define minimization parameters
variable etol equal 0.0
variable ftol equal 1.0e-10
variable maxiter equal 100
variable maxeval equal 1000
variable dmax equal 1.0e-2

# generate the box and atom positions using a diamond lattice

dimension    3
boundary     p p p
read_data    data.in
Reading data file ...
  orthogonal box = (0 0 0) to (4.253534 4.253534 4.253534)
  1 by 2 by 2 MPI processor grid
  reading atoms ...
  8 atoms
  read_data CPU = 0.001 seconds
#replicate    2 3 4
replicate    2 3 4
Replication is creating a 2x3x4 = 24 times larger system...
  orthogonal box = (0 0 0) to (8.507068 12.760602 17.014136)
  1 by 2 by 2 MPI processor grid
  192 atoms
  replicate CPU = 0.000 seconds
change_box   all triclinic
Changing box ...
  triclinic box = (0 0 0) to (8.507068 12.760602 17.014136) with tilt (0 0 0)

# Need to set mass to something, just to satisfy LAMMPS
mass 1 1.0e-20

include potential.mod
# NOTE: This script can be modified for different pair styles
# See in.elastic for more info.

# Choose potential
#-----------------------
#pair_style	sw
#pair_coeff * * Si.sw Si
#-----------------------
#pair_style morse	2.83994742	# D0[eV] a[1/A] r0[A] rc[A], 1NN for BCC
#pair_coeff 1 1	2.1173	1.0202	2.4595	2.6497	#	Fe-Fe
#-----------------------
#pair_style smatb # R0(A)   p       q     A(eV)   xi(eV)  Rcs(A)   Rc(A), 4NN: Rcs=4NN, Rc=(4NN+5NN)/2
#pair_coeff 1 1	2.4802	7.0149	2.3779	0.3144	3.0551	4.033	4.176	#	Co	Co
#-----------------------
#pair_style eam/alloy
#pair_coeff * * AlCrFeCoNi_Zhou04.eam.alloy Fe
#-----------------------
pair_style meam
#pair_coeff * * ./../../library.meam Ti V Cr Fe N ./../../TiVCrFeN.meam Ti N
#pair_coeff * * ./../../library.meam Ti V Cr Fe N ./../../TiVCrFeN.meam V N
#pair_coeff * * ./../../library.meam Ti V Cr Fe N ./../../TiVCrFeN.meam Cr N
pair_coeff * * ./../../library.meam Ti V Cr Fe N ./../../TiVCrFeN.meam Fe N
#-----------------------

# Setup neighbor style
neighbor 1.0 nsq
neigh_modify once no every 1 delay 0 check yes

# Setup minimization style
min_style	     cg
min_modify	     dmax ${dmax} line quadratic
min_modify	     dmax 0.01 line quadratic

# Setup output
thermo		1
thermo_style custom step temp pe press pxx pyy pzz pxy pxz pyz lx ly lz vol
thermo_modify norm no

# Compute initial state
fix 3 all box/relax  aniso 0.0
minimize ${etol} ${ftol} ${maxiter} ${maxeval}
minimize 0 ${ftol} ${maxiter} ${maxeval}
minimize 0 1e-10 ${maxiter} ${maxeval}
minimize 0 1e-10 100 ${maxeval}
minimize 0 1e-10 100 1000
Neighbor list info ...
  update: every = 1 steps, delay = 0 steps, check = yes
  max neighbors/atom: 2000, page size: 100000
  master list distance cutoff = 5.6
  ghost atom cutoff = 5.6
  2 neighbor lists, perpetual/occasional/extra = 2 0 0
  (1) pair meam, perpetual
      attributes: full, newton on
      pair build: full/nsq
      stencil: none
      bin: none
  (2) pair meam, perpetual, half/full from (1)
      attributes: half, newton on
      pair build: halffull/newton
      stencil: none
      bin: none
Per MPI rank memory allocation (min/avg/max) = 9.886 | 9.901 | 9.916 Mbytes
   Step          Temp          PotEng         Press           Pxx            Pyy            Pzz            Pxy            Pxz            Pyz             Lx             Ly             Lz           Volume    
         0   0             -853.74018     -186364.59     -186364.59     -186364.59     -186364.59      1.0834582e-11  4.9471903e-11 -1.7681435e-11  8.507068       12.760602      17.014136      1846.9748    
         1   0             -853.80457     -186038.79     -186038.79     -186038.79     -186038.79      1.9170922e-11 -2.5998756e-11 -7.4329468e-12  8.5062173      12.759326      17.012435      1846.4208    
         2   0             -853.86883     -185712.45     -185712.45     -185712.45     -185712.45      3.3968733e-12 -6.1270198e-11  9.2058879e-12  8.5053666      12.75805       17.010733      1845.8668    
         3   0             -853.93297     -185385.57     -185385.57     -185385.57     -185385.57      3.5238076e-11 -2.5502269e-11 -2.3194835e-11  8.5045159      12.756774      17.009032      1845.313     
         4   0             -853.99698     -185058.14     -185058.14     -185058.14     -185058.14     -8.9010531e-12 -1.796482e-11  -3.8629486e-12  8.5036652      12.755498      17.00733       1844.7593    
         5   0             -854.06087     -184730.16     -184730.16     -184730.16     -184730.16      1.6625913e-11  2.8555819e-11 -4.1004155e-11  8.5028145      12.754222      17.005629      1844.2057    
         6   0             -854.12463     -184401.63     -184401.63     -184401.63     -184401.63     -6.9225084e-12 -1.4900277e-11 -9.7928167e-12  8.5019638      12.752946      17.003928      1843.6522    
         7   0             -854.18826     -184072.56     -184072.56     -184072.56     -184072.56     -3.9514781e-11  1.1701828e-12  6.4945145e-11  8.5011131      12.75167       17.002226      1843.0989    
         8   0             -854.25177     -183742.94     -183742.94     -183742.94     -183742.94     -2.9625375e-12 -3.2111251e-11 -5.20405e-12    8.5002623      12.750394      17.000525      1842.5456    
         9   0             -854.31515     -183412.76     -183412.76     -183412.76     -183412.76     -1.2499506e-11  4.105946e-11  -1.5218496e-11  8.4994116      12.749117      16.998823      1841.9924    
        10   0             -854.3784      -183082.04     -183082.04     -183082.04     -183082.04      3.8433489e-11  2.1740338e-11 -2.1882215e-11  8.4985609      12.747841      16.997122      1841.4394    
        11   0             -854.44153     -182750.76     -182750.76     -182750.76     -182750.76      4.463513e-11   3.1802001e-11  2.4672821e-11  8.4977102      12.746565      16.99542       1840.8865    
        12   0             -854.50453     -182418.92     -182418.92     -182418.92     -182418.92     -3.560526e-11  -1.3827696e-11 -4.5735906e-11  8.4968595      12.745289      16.993719      1840.3337    
        13   0             -854.5674      -182086.53     -182086.53     -182086.53     -182086.53      2.113149e-11   1.1662504e-11 -6.8343481e-11  8.4960088      12.744013      16.992018      1839.7809    
        14   0             -854.63014     -181753.59     -181753.59     -181753.59     -181753.59     -5.2237119e-11  2.6535634e-11  3.0494823e-12  8.4951581      12.742737      16.990316      1839.2284    
        15   0             -854.69276     -181420.09     -181420.09     -181420.09     -181420.09     -2.1240933e-11 -6.5724149e-12 -7.6943207e-11  8.4943074      12.741461      16.988615      1838.6759    
        16   0             -854.75525     -181086.04     -181086.04     -181086.04     -181086.04      2.8166453e-11  5.7215943e-12 -1.8150639e-11  8.4934567      12.740185      16.986913      1838.1235    
        17   0             -854.81761     -180751.43     -180751.43     -180751.43     -180751.43     -6.1165648e-11 -4.6899713e-11 -1.5590888e-11  8.492606       12.738909      16.985212      1837.5712    
        18   0             -854.87985     -180416.26     -180416.26     -180416.26     -180416.26      3.0858297e-11  3.3327445e-11  2.7321e-11     8.4917553      12.737633      16.983511      1837.0191    
        19   0             -854.94195     -180080.53     -180080.53     -180080.53     -180080.53     -2.0927476e-11  4.0632114e-11 -2.0082991e-11  8.4909046      12.736357      16.981809      1836.467     
        20   0             -855.00393     -179744.25     -179744.25     -179744.25     -179744.25      1.1699172e-11  2.0104168e-12 -6.5232574e-11  8.4900539      12.735081      16.980108      1835.9151    
        21   0             -855.06578     -179407.41     -179407.41     -179407.41     -179407.41      3.3042532e-11  6.2620293e-11 -4.8637033e-11  8.4892032      12.733805      16.978406      1835.3633    
        22   0             -855.1275      -179070.01     -179070.01     -179070.01     -179070.01     -1.4505519e-11 -4.7703406e-11 -1.901653e-11   8.4883525      12.732529      16.976705      1834.8116    
        23   0             -855.1891      -178732.05     -178732.05     -178732.05     -178732.05     -1.1697607e-12  7.0118972e-11  2.2083021e-11  8.4875017      12.731253      16.975003      1834.26      
        24   0             -855.25056     -178393.54     -178393.54     -178393.54     -178393.54     -1.0585577e-11  3.3884761e-11  2.9222499e-11  8.486651       12.729977      16.973302      1833.7085    
        25   0             -855.31189     -178054.46     -178054.46     -178054.46     -178054.46      3.3476497e-11  1.8618269e-12  1.2371749e-12  8.4858003      12.7287        16.971601      1833.1571    
        26   0             -855.3731      -177714.82     -177714.82     -177714.82     -177714.82     -9.5849231e-13 -3.1666645e-11 -7.9900647e-11  8.4849496      12.727424      16.969899      1832.6058    
        27   0             -855.43418     -177374.61     -177374.61     -177374.61     -177374.61      9.5028514e-12  2.1918454e-11  2.1560428e-11  8.4840989      12.726148      16.968198      1832.0547    
        28   0             -855.49512     -177033.85     -177033.85     -177033.85     -177033.85     -9.9670349e-12 -3.2839013e-11  8.7894437e-12  8.4832482      12.724872      16.966496      1831.5036    
        29   0             -855.55594     -176692.53     -176692.53     -176692.53     -176692.53      3.728137e-12   1.2544513e-11  2.5128493e-11  8.4823975      12.723596      16.964795      1830.9527    
        30   0             -855.61663     -176350.64     -176350.64     -176350.64     -176350.64      2.1926099e-12 -1.3252839e-11 -4.3417927e-11  8.4815468      12.72232       16.963094      1830.4018    
        31   0             -855.67719     -176008.18     -176008.18     -176008.18     -176008.18     -6.1423704e-12 -2.8433525e-11  1.2190874e-10  8.4806961      12.721044      16.961392      1829.8511    
        32   0             -855.73762     -175665.16     -175665.16     -175665.16     -175665.16      1.3686233e-11 -1.0410532e-11 -5.5762892e-11  8.4798454      12.719768      16.959691      1829.3005    
        33   0             -855.79791     -175321.58     -175321.58     -175321.58     -175321.58      7.9029569e-14 -3.1630065e-11  3.2244064e-11  8.4789947      12.718492      16.957989      1828.75      
        34   0             -855.85808     -174977.42     -174977.42     -174977.42     -174977.42      3.1615264e-11 -3.0624056e-11 -9.5833958e-11  8.478144       12.717216      16.956288      1828.1996    
        35   0             -855.91812     -174632.7      -174632.7      -174632.7      -174632.7       2.7804747e-11  1.9951777e-11  1.3686432e-11  8.4772933      12.71594       16.954587      1827.6494    
        36   0             -855.97803     -174287.41     -174287.41     -174287.41     -174287.41     -2.5056755e-11 -5.4762213e-14 -2.7478462e-11  8.4764426      12.714664      16.952885      1827.0992    
        37   0             -856.0378      -173941.54     -173941.54     -173941.54     -173941.54     -1.9702074e-11  7.1699237e-12 -1.3597292e-11  8.4755918      12.713388      16.951184      1826.5491    
        38   0             -856.09745     -173595.11     -173595.11     -173595.11     -173595.11     -2.4621311e-11 -9.290831e-12   6.361723e-11   8.4747411      12.712112      16.949482      1825.9992    
        39   0             -856.15696     -173248.1      -173248.1      -173248.1      -173248.1       1.5980658e-11  9.8661072e-13 -1.2731541e-11  8.4738904      12.710836      16.947781      1825.4494    
        40   0             -856.21635     -172900.53     -172900.53     -172900.53     -172900.53      2.5074772e-11  1.8154232e-11  2.6975483e-11  8.4730397      12.70956       16.946079      1824.8996    
        41   0             -856.2756      -172552.38     -172552.38     -172552.38     -172552.38     -7.7635771e-12  3.3357787e-11 -3.8610694e-11  8.472189       12.708284      16.944378      1824.35      
        42   0             -856.33472     -172203.66     -172203.66     -172203.66     -172203.66     -1.3800655e-11 -7.6397353e-11 -5.6165739e-11  8.4713383      12.707007      16.942677      1823.8005    
        43   0             -856.39371     -171854.36     -171854.36     -171854.36     -171854.36     -5.737778e-12  -1.784138e-11   7.581062e-11   8.4704876      12.705731      16.940975      1823.2511    
        44   0             -856.45257     -171504.49     -171504.49     -171504.49     -171504.49     -5.8553951e-12 -4.4403413e-11 -6.8678905e-12  8.4696369      12.704455      16.939274      1822.7018    
        45   0             -856.51129     -171154.05     -171154.05     -171154.05     -171154.05     -3.3520038e-11 -4.9041511e-11  1.2187163e-11  8.4687862      12.703179      16.937572      1822.1527    
        46   0             -856.56989     -170803.03     -170803.03     -170803.03     -170803.03      1.2480731e-11 -3.6557253e-12 -3.6441295e-11  8.4679355      12.701903      16.935871      1821.6036    
        47   0             -856.62835     -170451.44     -170451.44     -170451.44     -170451.44      1.2386816e-11  2.5597791e-11  5.0142489e-11  8.4670848      12.700627      16.93417       1821.0547    
        48   0             -856.68668     -170099.27     -170099.27     -170099.27     -170099.27     -6.4236666e-11  9.746337e-12   8.343011e-11   8.4662341      12.699351      16.932468      1820.5058    
        49   0             -856.74488     -169746.52     -169746.52     -169746.52     -169746.52     -2.2430664e-11 -2.6877702e-13 -6.3562711e-11  8.4653834      12.698075      16.930767      1819.9571    
        50   0             -856.80294     -169393.2      -169393.2      -169393.2      -169393.2      -2.3995582e-11 -3.2324072e-11 -4.3283094e-11  8.4645327      12.696799      16.929065      1819.4085    
        51   0             -856.86087     -169039.3      -169039.3      -169039.3      -169039.3       4.4711133e-11 -3.184484e-12  -3.7284745e-12  8.463682       12.695523      16.927364      1818.8599    
        52   0             -856.91867     -168684.82     -168684.82     -168684.82     -168684.82     -1.4728859e-11  4.0353039e-12  3.1722991e-11  8.4628312      12.694247      16.925662      1818.3115    
        53   0             -856.97634     -168329.77     -168329.77     -168329.77     -168329.77      7.4002885e-13 -7.4186364e-12  6.8131582e-12  8.4619805      12.692971      16.923961      1817.7633    
        54   0             -857.03387     -167974.13     -167974.13     -167974.13     -167974.13      6.5582665e-12  3.119459e-11   4.5075846e-11  8.4611298      12.691695      16.92226       1817.2151    
        55   0             -857.09127     -167617.91     -167617.91     -167617.91     -167617.91      3.6185381e-11  1.4552484e-11  2.508743e-11   8.4602791      12.690419      16.920558      1816.667     
        56   0             -857.14854     -167261.12     -167261.12     -167261.12     -167261.12      1.3712111e-12 -8.6251624e-12  9.3505576e-12  8.4594284      12.689143      16.918857      1816.1191    
        57   0             -857.20567     -166903.73     -166903.73     -166903.73     -166903.73     -1.1695551e-11 -2.3397225e-11 -2.2625686e-12  8.4585777      12.687867      16.917155      1815.5712    
        58   0             -857.26267     -166545.77     -166545.77     -166545.77     -166545.77     -1.6899352e-11  4.1534798e-11  6.710127e-12   8.457727       12.686591      16.915454      1815.0235    
        59   0             -857.31953     -166187.22     -166187.22     -166187.22     -166187.22      3.118654e-12   2.594181e-11  -1.4398501e-11  8.4568763      12.685314      16.913753      1814.4758    
        60   0             -857.37626     -165828.08     -165828.08     -165828.08     -165828.08     -1.3446743e-11 -1.162034e-11  -5.9624722e-11  8.4560256      12.684038      16.912051      1813.9283    
        61   0             -857.43286     -165468.35     -165468.35     -165468.35     -165468.35     -1.4168097e-11  1.9679615e-12 -7.7001858e-12  8.4551749      12.682762      16.91035       1813.3809    
        62   0             -857.48932     -165108.04     -165108.04     -165108.04     -165108.04     -5.3212328e-11 -5.4126081e-11  3.3342794e-11  8.4543242      12.681486      16.908648      1812.8336    
        63   0             -857.54565     -164747.14     -164747.14     -164747.14     -164747.14      1.942772e-11   1.8157894e-12  7.3306363e-13  8.4534735      12.68021       16.906947      1812.2864    
        64   0             -857.60184     -164385.66     -164385.66     -164385.66     -164385.66      3.9241485e-11  4.0671238e-11 -3.8268886e-11  8.4526228      12.678934      16.905246      1811.7393    
        65   0             -857.6579      -164023.58     -164023.58     -164023.58     -164023.58     -6.0890241e-12 -2.7234879e-11 -2.6360196e-11  8.4517721      12.677658      16.903544      1811.1924    
        66   0             -857.71382     -163660.92     -163660.92     -163660.92     -163660.92      1.808225e-11   8.5959762e-13  3.7070147e-11  8.4509214      12.676382      16.901843      1810.6455    
        67   0             -857.76961     -163297.66     -163297.66     -163297.66     -163297.66      3.078289e-11   5.4723773e-12  4.8004603e-11  8.4500706      12.675106      16.900141      1810.0988    
        68   0             -857.82526     -162933.82     -162933.82     -162933.82     -162933.82     -3.8281351e-11  2.3941972e-11  3.6551901e-11  8.4492199      12.67383       16.89844       1809.5521    
        69   0             -857.88078     -162569.39     -162569.39     -162569.39     -162569.39      6.9137427e-12  2.4145862e-11 -7.3992411e-12  8.4483692      12.672554      16.896738      1809.0056    
        70   0             -857.93616     -162204.36     -162204.36     -162204.36     -162204.36      1.0100188e-11  6.109292e-11   9.6760169e-12  8.4475185      12.671278      16.895037      1808.4592    
        71   0             -857.99141     -161838.74     -161838.74     -161838.74     -161838.74     -6.128971e-11  -6.4659506e-11  2.8784703e-11  8.4466678      12.670002      16.893336      1807.9129    
        72   0             -858.04652     -161472.53     -161472.53     -161472.53     -161472.53      1.5673059e-11  2.0993779e-11  5.5360097e-14  8.4458171      12.668726      16.891634      1807.3667    
        73   0             -858.10149     -161105.73     -161105.73     -161105.73     -161105.73      9.9616762e-12  4.0671204e-11 -2.4153527e-11  8.4449664      12.66745       16.889933      1806.8206    
        74   0             -858.15633     -160738.33     -160738.33     -160738.33     -160738.33      2.5714925e-11 -1.4636211e-11 -5.4861174e-11  8.4441157      12.666174      16.888231      1806.2746    
        75   0             -858.21103     -160370.34     -160370.34     -160370.34     -160370.34      1.8919543e-11 -1.6389139e-11  7.1688631e-11  8.443265       12.664897      16.88653       1805.7288    
        76   0             -858.26559     -160001.76     -160001.76     -160001.76     -160001.76     -8.5850365e-12  9.8906518e-12 -8.5296094e-13  8.4424143      12.663621      16.884829      1805.183     
        77   0             -858.32002     -159632.58     -159632.58     -159632.58     -159632.58     -4.0720408e-12  1.8450472e-11 -8.1031148e-11  8.4415636      12.662345      16.883127      1804.6374    
        78   0             -858.37431     -159262.8      -159262.8      -159262.8      -159262.8       8.4669833e-12  1.6385523e-11  1.4432078e-11  8.4407129      12.661069      16.881426      1804.0918    
        79   0             -858.42847     -158892.43     -158892.43     -158892.43     -158892.43     -3.1498813e-12  1.7802069e-11  5.0003595e-11  8.4398622      12.659793      16.879724      1803.5464    
        80   0             -858.48249     -158521.46     -158521.46     -158521.46     -158521.46     -1.2270371e-11  2.1223426e-11  2.2687854e-11  8.4390115      12.658517      16.878023      1803.0011    
        81   0             -858.53637     -158149.89     -158149.89     -158149.89     -158149.89      3.2399877e-11 -3.4268745e-11  3.8580094e-12  8.4381607      12.657241      16.876321      1802.4559    
        82   0             -858.59011     -157777.71     -157777.71     -157777.71     -157777.71      6.6016288e-12  4.7180052e-11 -4.0649375e-11  8.43731        12.655965      16.87462       1801.9108    
        83   0             -858.64371     -157404.94     -157404.94     -157404.94     -157404.94      3.3869813e-11 -1.6941078e-11  1.419471e-11   8.4364593      12.654689      16.872919      1801.3658    
        84   0             -858.69718     -157031.56     -157031.56     -157031.56     -157031.56     -1.3130993e-11  2.7416427e-11  7.4174369e-12  8.4356086      12.653413      16.871217      1800.8209    
        85   0             -858.75051     -156657.58     -156657.58     -156657.58     -156657.58      6.9163905e-12 -3.7916641e-11  2.6662068e-11  8.4347579      12.652137      16.869516      1800.2761    
        86   0             -858.8037      -156282.99     -156282.99     -156282.99     -156282.99      3.5148368e-12 -3.3838797e-11 -7.2026356e-12  8.4339072      12.650861      16.867814      1799.7315    
        87   0             -858.85676     -155907.8      -155907.8      -155907.8      -155907.8      -1.5324136e-11 -3.8538966e-11  7.2048156e-12  8.4330565      12.649585      16.866113      1799.1869    
        88   0             -858.90967     -155532.01     -155532.01     -155532.01     -155532.01     -4.0955024e-11 -5.8428591e-11 -2.2560495e-12  8.4322058      12.648309      16.864412      1798.6425    
        89   0             -858.96245     -155155.61     -155155.61     -155155.61     -155155.61      6.3930448e-12  2.1856299e-11  3.5888229e-11  8.4313551      12.647033      16.86271       1798.0982    
        90   0             -859.01509     -154778.61     -154778.61     -154778.61     -154778.61     -2.7385854e-11 -1.00254e-11    3.681443e-11   8.4305044      12.645757      16.861009      1797.5539    
        91   0             -859.06759     -154401        -154401        -154401        -154401         1.1222444e-11  3.1706187e-11  1.1309056e-11  8.4296537      12.644481      16.859307      1797.0098    
        92   0             -859.11995     -154022.78     -154022.78     -154022.78     -154022.78     -2.5186977e-11 -3.8554022e-12  2.5304558e-11  8.428803       12.643204      16.857606      1796.4658    
        93   0             -859.17217     -153643.95     -153643.95     -153643.95     -153643.95      1.1470664e-11  2.5107941e-11 -3.3957004e-11  8.4279523      12.641928      16.855905      1795.9219    
        94   0             -859.22425     -153264.52     -153264.52     -153264.52     -153264.52      2.0929621e-11 -1.0483387e-11  3.3846541e-11  8.4271016      12.640652      16.854203      1795.3782    
        95   0             -859.2762      -152884.48     -152884.48     -152884.48     -152884.48      2.0044015e-11  3.92828e-11   -2.1880557e-11  8.4262509      12.639376      16.852502      1794.8345    
        96   0             -859.328       -152503.83     -152503.83     -152503.83     -152503.83     -1.4386991e-11 -2.8321677e-11  6.9239715e-12  8.4254001      12.6381        16.8508        1794.2909    
        97   0             -859.37966     -152122.56     -152122.56     -152122.56     -152122.56     -1.5711486e-11 -1.1974198e-11 -1.7735076e-11  8.4245494      12.636824      16.849099      1793.7475    
        98   0             -859.43119     -151740.69     -151740.69     -151740.69     -151740.69      6.571685e-13  -3.7161019e-11  8.2369251e-11  8.4236987      12.635548      16.847397      1793.2041    
        99   0             -859.48257     -151358.21     -151358.21     -151358.21     -151358.21      1.6490005e-11 -3.1714888e-11  5.5572372e-11  8.422848       12.634272      16.845696      1792.6609    
       100   0             -859.53382     -150975.12     -150975.12     -150975.12     -150975.12     -1.6228254e-11  2.2239408e-11  5.452532e-11   8.4219973      12.632996      16.843995      1792.1178    
Loop time of 0.0834457 on 4 procs for 100 steps with 192 atoms

65.5% CPU use with 4 MPI tasks x 1 OpenMP threads

Minimization stats:
  Stopping criterion = max iterations
  Energy initial, next-to-last, final = 
     -853.740179324974  -859.482572047536  -859.533815963865
  Force two-norm initial, final = 372.11282 295.45204
  Force max component initial, final = 214.83943 170.57932
  Final line search alpha, max atom move = 5.8463564e-07 9.9726748e-05
  Iterations, force evaluations = 100 100

MPI task timing breakdown:
Section |  min time  |  avg time  |  max time  |%varavg| %total
---------------------------------------------------------------
Pair    | 0.062905   | 0.069558   | 0.076252   |   2.5 | 83.36
Neigh   | 0          | 0          | 0          |   0.0 |  0.00
Comm    | 0.002102   | 0.0087712  | 0.015414   |   7.1 | 10.51
Output  | 0.00103    | 0.001096   | 0.001257   |   0.3 |  1.31
Modify  | 0          | 0          | 0          |   0.0 |  0.00
Other   |            | 0.004021   |            |       |  4.82

Nlocal:             48 ave          64 max          32 min
Histogram: 2 0 0 0 0 0 0 0 0 2
Nghost:            600 ave         616 max         584 min
Histogram: 2 0 0 0 0 0 0 0 0 2
Neighs:           1920 ave        2560 max        1280 min
Histogram: 2 0 0 0 0 0 0 0 0 2
FullNghs:         3840 ave        5120 max        2560 min
Histogram: 2 0 0 0 0 0 0 0 0 2

Total # of neighbors = 15360
Ave neighs/atom = 80
Neighbor list builds = 0
Dangerous builds = 0

variable tmp equal pxx
variable pxx0 equal ${tmp}
variable pxx0 equal -150975.116200918
variable tmp equal pyy
variable pyy0 equal ${tmp}
variable pyy0 equal -150975.116200953
variable tmp equal pzz
variable pzz0 equal ${tmp}
variable pzz0 equal -150975.116200918
variable tmp equal pyz
variable pyz0 equal ${tmp}
variable pyz0 equal 5.45253200759137e-11
variable tmp equal pxz
variable pxz0 equal ${tmp}
variable pxz0 equal 2.22394075285455e-11
variable tmp equal pxy
variable pxy0 equal ${tmp}
variable pxy0 equal -1.6228253861834e-11

variable tmp equal lx
variable lx0 equal ${tmp}
variable lx0 equal 8.42199731999993
variable tmp equal ly
variable ly0 equal ${tmp}
variable ly0 equal 12.6329959800001
variable tmp equal lz
variable lz0 equal ${tmp}
variable lz0 equal 16.8439946399999

# These formulas define the derivatives w.r.t. strain components
# Constants uses $, variables use v_
variable d1 equal -(v_pxx1-${pxx0})/(v_delta/v_len0)*${cfac}
variable d1 equal -(v_pxx1--150975.116200918)/(v_delta/v_len0)*${cfac}
variable d1 equal -(v_pxx1--150975.116200918)/(v_delta/v_len0)*0.0001
variable d2 equal -(v_pyy1-${pyy0})/(v_delta/v_len0)*${cfac}
variable d2 equal -(v_pyy1--150975.116200953)/(v_delta/v_len0)*${cfac}
variable d2 equal -(v_pyy1--150975.116200953)/(v_delta/v_len0)*0.0001
variable d3 equal -(v_pzz1-${pzz0})/(v_delta/v_len0)*${cfac}
variable d3 equal -(v_pzz1--150975.116200918)/(v_delta/v_len0)*${cfac}
variable d3 equal -(v_pzz1--150975.116200918)/(v_delta/v_len0)*0.0001
variable d4 equal -(v_pyz1-${pyz0})/(v_delta/v_len0)*${cfac}
variable d4 equal -(v_pyz1-5.45253200759137e-11)/(v_delta/v_len0)*${cfac}
variable d4 equal -(v_pyz1-5.45253200759137e-11)/(v_delta/v_len0)*0.0001
variable d5 equal -(v_pxz1-${pxz0})/(v_delta/v_len0)*${cfac}
variable d5 equal -(v_pxz1-2.22394075285455e-11)/(v_delta/v_len0)*${cfac}
variable d5 equal -(v_pxz1-2.22394075285455e-11)/(v_delta/v_len0)*0.0001
variable d6 equal -(v_pxy1-${pxy0})/(v_delta/v_len0)*${cfac}
variable d6 equal -(v_pxy1--1.6228253861834e-11)/(v_delta/v_len0)*${cfac}
variable d6 equal -(v_pxy1--1.6228253861834e-11)/(v_delta/v_len0)*0.0001

displace_atoms all random ${atomjiggle} ${atomjiggle} ${atomjiggle} 87287 units box
displace_atoms all random 1e-05 ${atomjiggle} ${atomjiggle} 87287 units box
displace_atoms all random 1e-05 1e-05 ${atomjiggle} 87287 units box
displace_atoms all random 1e-05 1e-05 1e-05 87287 units box
Displacing atoms ...

# Write restart
unfix 3
write_restart restart.equil
System init for write_restart ...

# uxx Perturbation

variable dir equal 1
include displace.mod
# NOTE: This script should not need to be
# modified. See in.elastic for more info.
#
# Find which reference length to use

if "${dir} == 1" then    "variable len0 equal ${lx0}"
variable len0 equal ${lx0}
variable len0 equal 8.42199731999993
if "${dir} == 2" then    "variable len0 equal ${ly0}"
if "${dir} == 3" then    "variable len0 equal ${lz0}"
if "${dir} == 4" then    "variable len0 equal ${lz0}"
if "${dir} == 5" then    "variable len0 equal ${lz0}"
if "${dir} == 6" then    "variable len0 equal ${ly0}"

# Reset box and simulation parameters

clear
  using 1 OpenMP thread(s) per MPI task
Loaded 1 plugins from C:\Program Files\LAMMPS 64-bit 23Jun2022\plugins
Loaded 0 plugins from C:\Program Files\LAMMPS 64-bit 23Jun2022-MPI\plugins
Loaded 1 plugins from C:\Program Files\LAMMPS 64-bit 22Dec2022-MSMPI\plugins
Loaded 1 plugins from C:\Program Files\LAMMPS 64-bit 28Mar2023-MPI\plugins
box tilt large

The 'box' command has been removed and will be ignored

read_restart restart.equil
Reading restart file ...
  restart file = 22 Dec 2022, LAMMPS = 22 Dec 2022
  restoring atom style atomic from restart
  triclinic box = (0.04253534 0.06380301 0.08507068) to (8.4645327 12.696799 16.929065) with tilt (0 0 0)
  1 by 2 by 2 MPI processor grid
  pair style meam stores no restart info
  192 atoms
  read_restart CPU = 0.000 seconds
include potential.mod
# NOTE: This script can be modified for different pair styles
# See in.elastic for more info.

# Choose potential
#-----------------------
#pair_style	sw
#pair_coeff * * Si.sw Si
#-----------------------
#pair_style morse	2.83994742	# D0[eV] a[1/A] r0[A] rc[A], 1NN for BCC
#pair_coeff 1 1	2.1173	1.0202	2.4595	2.6497	#	Fe-Fe
#-----------------------
#pair_style smatb # R0(A)   p       q     A(eV)   xi(eV)  Rcs(A)   Rc(A), 4NN: Rcs=4NN, Rc=(4NN+5NN)/2
#pair_coeff 1 1	2.4802	7.0149	2.3779	0.3144	3.0551	4.033	4.176	#	Co	Co
#-----------------------
#pair_style eam/alloy
#pair_coeff * * AlCrFeCoNi_Zhou04.eam.alloy Fe
#-----------------------
pair_style meam
#pair_coeff * * ./../../library.meam Ti V Cr Fe N ./../../TiVCrFeN.meam Ti N
#pair_coeff * * ./../../library.meam Ti V Cr Fe N ./../../TiVCrFeN.meam V N
#pair_coeff * * ./../../library.meam Ti V Cr Fe N ./../../TiVCrFeN.meam Cr N
pair_coeff * * ./../../library.meam Ti V Cr Fe N ./../../TiVCrFeN.meam Fe N
#-----------------------

# Setup neighbor style
neighbor 1.0 nsq
neigh_modify once no every 1 delay 0 check yes

# Setup minimization style
min_style	     cg
min_modify	     dmax ${dmax} line quadratic
min_modify	     dmax 0.01 line quadratic

# Setup output
thermo		1
thermo_style custom step temp pe press pxx pyy pzz pxy pxz pyz lx ly lz vol
thermo_modify norm no

# Negative deformation

variable delta equal -${up}*${len0}
variable delta equal -1e-06*${len0}
variable delta equal -1e-06*8.42199731999993
variable deltaxy equal -${up}*xy
variable deltaxy equal -1e-06*xy
variable deltaxz equal -${up}*xz
variable deltaxz equal -1e-06*xz
variable deltayz equal -${up}*yz
variable deltayz equal -1e-06*yz
if "${dir} == 1" then    "change_box all x delta 0 ${delta} xy delta ${deltaxy} xz delta ${deltaxz} remap units box"
change_box all x delta 0 ${delta} xy delta ${deltaxy} xz delta ${deltaxz} remap units box
change_box all x delta 0 -8.42199731999993e-06 xy delta ${deltaxy} xz delta ${deltaxz} remap units box
change_box all x delta 0 -8.42199731999993e-06 xy delta -0 xz delta ${deltaxz} remap units box
change_box all x delta 0 -8.42199731999993e-06 xy delta -0 xz delta -0 remap units box
Changing box ...
  triclinic box = (0.04253534 0.06380301 0.08507068) to (8.4645242 12.696799 16.929065) with tilt (0 0 0)
  triclinic box = (0.04253534 0.06380301 0.08507068) to (8.4645242 12.696799 16.929065) with tilt (0 0 0)
  triclinic box = (0.04253534 0.06380301 0.08507068) to (8.4645242 12.696799 16.929065) with tilt (0 0 0)
if "${dir} == 2" then    "change_box all y delta 0 ${delta} yz delta ${deltayz} remap units box"
if "${dir} == 3" then    "change_box all z delta 0 ${delta} remap units box"
if "${dir} == 4" then    "change_box all yz delta ${delta} remap units box"
if "${dir} == 5" then    "change_box all xz delta ${delta} remap units box"
if "${dir} == 6" then    "change_box all xy delta ${delta} remap units box"

# Relax atoms positions

minimize ${etol} ${ftol} ${maxiter} ${maxeval}
minimize 0 ${ftol} ${maxiter} ${maxeval}
minimize 0 1e-10 ${maxiter} ${maxeval}
minimize 0 1e-10 100 ${maxeval}
minimize 0 1e-10 100 1000
Neighbor list info ...
  update: every = 1 steps, delay = 0 steps, check = yes
  max neighbors/atom: 2000, page size: 100000
  master list distance cutoff = 5.6
  ghost atom cutoff = 5.6
  2 neighbor lists, perpetual/occasional/extra = 2 0 0
  (1) pair meam, perpetual
      attributes: full, newton on
      pair build: full/nsq
      stencil: none
      bin: none
  (2) pair meam, perpetual, half/full from (1)
      attributes: half, newton on
      pair build: halffull/newton
      stencil: none
      bin: none
Per MPI rank memory allocation (min/avg/max) = 9.867 | 9.872 | 9.878 Mbytes
   Step          Temp          PotEng         Press           Pxx            Pyy            Pzz            Pxy            Pxz            Pyz             Lx             Ly             Lz           Volume    
       100   0             -859.53398     -150973.85     -150972.15     -150974.7      -150974.7       1.2634062e-06 -1.7019408e-05  6.7659305e-06  8.4219889      12.632996      16.843995      1792.116     
       101   0             -859.53398     -150973.85     -150972.15     -150974.7      -150974.7      -4.3989803e-07  9.9130088e-07  1.5495713e-05  8.4219889      12.632996      16.843995      1792.116     
       102   0             -859.53398     -150973.85     -150972.15     -150974.7      -150974.7       4.2367381e-06  1.1865461e-06  1.4698054e-05  8.4219889      12.632996      16.843995      1792.116     
       103   0             -859.53398     -150973.85     -150972.15     -150974.7      -150974.7       1.042687e-05   3.1997494e-06  1.327395e-05   8.4219889      12.632996      16.843995      1792.116     
       104   0             -859.53398     -150973.85     -150972.15     -150974.7      -150974.7       0.00011780029  0.00017201216 -8.0319161e-05  8.4219889      12.632996      16.843995      1792.116     
       105   0             -859.534       -150973.75     -150971.97     -150974.62     -150974.66      0.023040501    0.049254639   -0.040100574    8.4219889      12.632996      16.843995      1792.116     
       106   0             -859.53813     -150951.26     -150931.23     -150957.21     -150965.35      5.1367348      11.016615     -9.354458       8.4219889      12.632996      16.843995      1792.116     
       107   0             -859.5488      -150888.12     -150818.37     -150907.78     -150938.21      18.973216      40.289421     -34.817203      8.4219889      12.632996      16.843995      1792.116     
       108   0             -859.56421     -150781.08     -150631.94     -150822.1      -150889.21      40.99849       86.439055     -75.963854      8.4219889      12.632996      16.843995      1792.116     
       109   0             -859.58152     -150625.02     -150369.75     -150693.4      -150811.91      70.384316      147.84992     -132.05291      8.4219889      12.632996      16.843995      1792.116     
       110   0             -859.597       -150413.2      -150028.73     -150512.89     -150697.99      105.9732       222.81075     -201.89502      8.4219889      12.632996      16.843995      1792.116     
       111   0             -859.60682     -150138.38     -149604.2      -150271.87     -150539.09      146.58218      308.77758     -283.11276      8.4219889      12.632996      16.843995      1792.116     
       112   0             -859.6109      -149882.61     -149213.81     -150046.7      -150387.3       176.25333      383.2846      -347.47605      8.4219889      12.632996      16.843995      1792.116     
       113   0             -859.63682     -149544.32     -148629.76     -149783.84     -150219.35      160.26657      491.31091     -382.94118      8.4219889      12.632996      16.843995      1792.116     
       114   0             -859.6907      -149512.15     -148420.22     -149838.04     -150278.2       69.052204      445.57552     -311.20587      8.4219889      12.632996      16.843995      1792.116     
       115   0             -859.72726     -149429.13     -148189.39     -149809.73     -150288.27      90.422348      354.92196     -300.22232      8.4219889      12.632996      16.843995      1792.116     
       116   0             -859.75698     -149309.43     -147953.27     -149726.86     -150248.16      136.44619      296.93752     -269.94578      8.4219889      12.632996      16.843995      1792.116     
       117   0             -859.78536     -149161.81     -147708.05     -149610.41     -150166.98      197.6307       253.89945     -242.58969      8.4219889      12.632996      16.843995      1792.116     
       118   0             -859.81562     -148993.44     -147459.33     -149471.34     -150049.64      259.53196      225.69423     -213.56091      8.4219889      12.632996      16.843995      1792.116     
       119   0             -859.85004     -148804.38     -147208.02     -149310.26     -149894.87      303.37999      208.94192     -190.22677      8.4219889      12.632996      16.843995      1792.116     
       120   0             -859.89044     -148589.45     -146950.55     -149121.26     -149696.54      311.81321      204.6746      -169.3895       8.4219889      12.632996      16.843995      1792.116     
       121   0             -859.93803     -148339.85     -146680.23     -148893.18     -149446.15      271.2437       213.38278     -150.24471      8.4219889      12.632996      16.843995      1792.116     
       122   0             -859.99022     -148061.67     -146404.6      -148627.78     -149152.63      182.13883      233.71994     -130.95402      8.4219889      12.632996      16.843995      1792.116     
       123   0             -860.04422     -147761.45     -146126.74     -148329.35     -148828.24      59.452791      261.73042     -110.01431      8.4219889      12.632996      16.843995      1792.116     
       124   0             -860.10098     -147427.12     -145831.34     -147985.39     -148464.62     -86.872032      295.98818     -84.088926      8.4219889      12.632996      16.843995      1792.116     
       125   0             -860.15944     -147060.5      -145516.64     -147597.9      -148066.96     -244.93686      335.8859      -52.215551      8.4219889      12.632996      16.843995      1792.116     
       126   0             -860.2179      -146671.76     -145187.87     -147178.94     -147648.48     -402.262        381.00751     -15.02523       8.4219889      12.632996      16.843995      1792.116     
       127   0             -860.27688     -146258.15     -144839.46     -146727.56     -147207.44     -554.12428      432.01547      27.755561      8.4219889      12.632996      16.843995      1792.116     
       128   0             -860.33715     -145813.07     -144463.15     -146238.62     -146737.45     -697.82768      488.95674      76.866506      8.4219889      12.632996      16.843995      1792.116     
       129   0             -860.39956     -145324.58     -144046.58     -145701.13     -146226.02     -832.67078      550.91305      132.13225      8.4219889      12.632996      16.843995      1792.116     
       130   0             -860.4651      -144773.1      -143571.57     -145095.52     -145652.2      -957.039        615.69838      193.39207      8.4219889      12.632996      16.843995      1792.116     
       131   0             -860.5316      -144160.25     -143039        -144425.66     -145016.09     -1064.9209      675.23973      257.24988      8.4219889      12.632996      16.843995      1792.116     
       132   0             -860.59694     -143490.33     -142454.03     -143697.82     -144319.13     -1153.5772      720.12552      319.76933      8.4219889      12.632996      16.843995      1792.116     
       133   0             -860.65881     -142780.3      -141834.55     -142931.28     -143575.06     -1223.1705      740.2454       376.04527      8.4219889      12.632996      16.843995      1792.116     
       134   0             -860.71482     -142068.96     -141218.27     -142168.01     -142820.61     -1274.2368      729.83916      419.97457      8.4219889      12.632996      16.843995      1792.116     
       135   0             -860.76255     -141417.84     -140660.68     -141473.4      -142119.43     -1308.7387      692.00523      445.90378      8.4219889      12.632996      16.843995      1792.116     
       136   0             -860.80521     -140808.88     -140145.81     -140827.66     -141453.17     -1329.7402      633.58621      458.31568      8.4219889      12.632996      16.843995      1792.116     
       137   0             -860.8452      -140222.19     -139655.18     -140209.43     -140801.94     -1337.5632      559.70928      462.7163       8.4219889      12.632996      16.843995      1792.116     
       138   0             -860.88452     -139636.09     -139168.51     -139595.57     -140144.19     -1330.7669      474.54662      463.92857      8.4219889      12.632996      16.843995      1792.116     
       139   0             -860.92537     -139023.28     -138660.32     -138956.99     -139452.52     -1307.7558      380.52331      467.01795      8.4219889      12.632996      16.843995      1792.116     
       140   0             -860.96695     -138408.34     -138147.68     -138318.01     -138759.34     -1265.9859      286.92207      476.45631      8.4219889      12.632996      16.843995      1792.116     
       141   0             -861.00464     -137877.4      -137701.57     -137763.98     -138166.66     -1212.6943      206.46176      491.74687      8.4219889      12.632996      16.843995      1792.116     
       142   0             -861.0403      -137403.3      -137301.55     -137262.55     -137645.79     -1153.1323      126.31077      511.47451      8.4219889      12.632996      16.843995      1792.116     
       143   0             -861.07537     -136964.75     -136933.32     -136788        -137172.92     -1092.4093      33.703282      527.67146      8.4219889      12.632996      16.843995      1792.116     
       144   0             -861.10659     -136601.81     -136636.87     -136380.94     -136787.61     -1042.9746     -60.552556      535.52715      8.4219889      12.632996      16.843995      1792.116     
       145   0             -861.13453     -136296.63     -136399.56     -136024.56     -136465.77     -1005.1398     -153.4543       534.0455       8.4219889      12.632996      16.843995      1792.116     
       146   0             -861.16054     -136025.6      -136202.85     -135696.14     -136177.8      -983.18168     -231.91852      529.58505      8.4219889      12.632996      16.843995      1792.116     
       147   0             -861.18546     -135773.43     -136033.6      -135380.34     -135906.36     -973.1496      -305.49162      525.19501      8.4219889      12.632996      16.843995      1792.116     
       148   0             -861.2097      -135531.3      -135882.48     -135071.51     -135639.9      -974.86271     -352.03899      523.87786      8.4219889      12.632996      16.843995      1792.116     
       149   0             -861.2336      -135290.49     -135741.54     -134761.84     -135368.08     -987.47257     -391.33776      520.53252      8.4219889      12.632996      16.843995      1792.116     
       150   0             -861.25733     -135043.28     -135601.44     -134447        -135081.39     -1012.6956     -385.52501      524.36196      8.4219889      12.632996      16.843995      1792.116     
       151   0             -861.28113     -134778.81     -135455.46     -134114.19     -134766.77     -1051.8695     -368.77517      527.15861      8.4219889      12.632996      16.843995      1792.116     
       152   0             -861.30498     -134487.29     -135291.76     -133759.36     -134410.77     -1097.1228     -280.82009      537.91447      8.4219889      12.632996      16.843995      1792.116     
       153   0             -861.32554     -134204.93     -135138.17     -133421.36     -134055.28     -1139.1063     -223.96704      537.4988       8.4219889      12.632996      16.843995      1792.116     
       154   0             -861.34281     -133922.91     -134972.36     -133104.98     -133691.38     -1140.6149     -35.323135      565.42728      8.4219889      12.632996      16.843995      1792.116     
       155   0             -861.35985     -133626.11     -134803.34     -132774.7      -133300.29     -1114.5766      5.7542948      570.35467      8.4219889      12.632996      16.843995      1792.116     
       156   0             -861.37541     -133312.45     -134600.76     -132460.69     -132875.91     -1006.8644      180.16779      614.23053      8.4219889      12.632996      16.843995      1792.116     
       157   0             -861.3878      -133071.53     -134454.89     -132230.56     -132529.14     -849.30592      152.15112      656.94697      8.4219889      12.632996      16.843995      1792.116     
       158   0             -861.40012     -132848.46     -134293.98     -132026.76     -132224.63     -675.34975      166.71099      731.02886      8.4219889      12.632996      16.843995      1792.116     
       159   0             -861.40966     -132718.64     -134182.31     -131878.53     -132095.07     -610.55881     -40.940844      797.21352      8.4219889      12.632996      16.843995      1792.116     
       160   0             -861.41694     -132567.38     -134038.48     -131670.17     -131993.49     -573.73917     -169.41186      877.66771      8.4219889      12.632996      16.843995      1792.116     
       161   0             -861.42595     -132412.36     -133902.4      -131440.19     -131894.49     -538.72534     -377.40674      934.22592      8.4219889      12.632996      16.843995      1792.116     
       162   0             -861.42911     -132322.27     -133844.63     -131277.4      -131844.78     -520.30737     -537.83483      945.95141      8.4219889      12.632996      16.843995      1792.116     
       163   0             -861.43578     -132180.2      -133744.82     -131024.95     -131770.83     -468.91715     -652.08638      989.20048      8.4219889      12.632996      16.843995      1792.116     
       164   0             -861.43865     -132153.05     -133725.72     -130972.53     -131760.9      -432.47926     -601.20456      1016.2085      8.4219889      12.632996      16.843995      1792.116     
       165   0             -861.44479     -132042.14     -133659.86     -130759.95     -131706.6      -375.42491     -714.61337      1067.7465      8.4219889      12.632996      16.843995      1792.116     
       166   0             -861.44766     -131978.43     -133625.68     -130618.24     -131691.35     -379.33575     -856.75489      1063.9225      8.4219889      12.632996      16.843995      1792.116     
       167   0             -861.45443     -131845.75     -133546.34     -130338.83     -131652.09     -326.80878     -973.82549      1096.3692      8.4219889      12.632996      16.843995      1792.116     
       168   0             -861.45712     -131822.45     -133538.47     -130292.99     -131635.89     -281.20487     -923.55958      1127.14        8.4219889      12.632996      16.843995      1792.116     
       169   0             -861.46386     -131703.23     -133487.46     -130052.14     -131570.1      -248.14439     -1068.1634      1174.1108      8.4219889      12.632996      16.843995      1792.116     
       170   0             -861.47042     -131593.68     -133410.17     -129799.75     -131571.1      -254.69376     -1229.9591      1183.3765      8.4219889      12.632996      16.843995      1792.116     
       171   0             -861.47673     -131476.72     -133323.56     -129574.54     -131532.07     -210.77693     -1286.0251      1212.0675      8.4219889      12.632996      16.843995      1792.116     
       172   0             -861.48002     -131452.19     -133320.4      -129558.8      -131477.37     -190.12002     -1263.5505      1223.0255      8.4219889      12.632996      16.843995      1792.116     
       173   0             -861.48509     -131392.62     -133277.79     -129468.53     -131431.54     -189.37774     -1308.7568      1228.9255      8.4219889      12.632996      16.843995      1792.116     
       174   0             -861.48962     -131327.22     -133193.52     -129348.75     -131439.4      -167.08093     -1296.3879      1245.4216      8.4219889      12.632996      16.843995      1792.116     
       175   0             -861.49422     -131228.91     -133096.01     -129211.3      -131379.41     -126.7381      -1225.7154      1236.2374      8.4219889      12.632996      16.843995      1792.116     
       176   0             -861.49844     -131171.51     -133062.98     -129161.54     -131290        -118.75366     -1197.004       1210.7818      8.4219889      12.632996      16.843995      1792.116     
       177   0             -861.50258     -131065.74     -132962.71     -129028.54     -131205.97     -111.91389     -1152.3414      1216.8096      8.4219889      12.632996      16.843995      1792.116     
       178   0             -861.50629     -130977.29     -132862.87     -128889.82     -131179.17     -73.917906     -982.09812      1200.9704      8.4219889      12.632996      16.843995      1792.116     
       179   0             -861.51016     -130850.81     -132733.72     -128734.46     -131084.25     -43.255313     -861.62821      1142.6836      8.4219889      12.632996      16.843995      1792.116     
       180   0             -861.51335     -130797.26     -132692.99     -128690.12     -131008.66     -64.544791     -894.12869      1118.0302      8.4219889      12.632996      16.843995      1792.116     
       181   0             -861.51713     -130671.47     -132591.06     -128528.44     -130894.9      -62.715365     -746.11371      1076.9123      8.4219889      12.632996      16.843995      1792.116     
       182   0             -861.52055     -130556.81     -132501.64     -128359.49     -130809.29     -20.330842     -584.6506       947.9331       8.4219889      12.632996      16.843995      1792.116     
       183   0             -861.52348     -130402.61     -132416.58     -128116.78     -130674.46      16.033812     -531.22108      801.71402      8.4219889      12.632996      16.843995      1792.116     
       184   0             -861.52618     -130350.17     -132429.87     -128017.95     -130602.7      -4.8424366     -578.61423      784.4635       8.4219889      12.632996      16.843995      1792.116     
       185   0             -861.52861     -130275.44     -132516.15     -127802.63     -130507.56     -24.787903     -497.6564       659.11399      8.4219889      12.632996      16.843995      1792.116     
       186   0             -861.53189     -130189.19     -132611.42     -127516.85     -130439.29      46.028265     -472.21672      433.99729      8.4219889      12.632996      16.843995      1792.116     
       187   0             -861.53483     -130087.04     -132708.31     -127190.23     -130362.57      80.294191     -528.48893      289.19476      8.4219889      12.632996      16.843995      1792.116     
       188   0             -861.53737     -129999.94     -132823.38     -126903.33     -130273.1       72.674369     -505.44076      195.55439      8.4219889      12.632996      16.843995      1792.116     
       189   0             -861.53944     -129872.23     -132951.52     -126492.49     -130172.69      58.157529     -461.17353     -2.156073       8.4219889      12.632996      16.843995      1792.116     
       190   0             -861.54341     -129743.96     -133040.45     -126080.47     -130110.95      114.84947     -483.15869     -257.73469      8.4219889      12.632996      16.843995      1792.116     
       191   0             -861.54491     -129667.69     -133078.87     -125848.44     -130075.77      230.53441     -511.41028     -341.4132       8.4219889      12.632996      16.843995      1792.116     
       192   0             -861.54707     -129591.48     -133132.29     -125583.68     -130058.48      279.0274      -469.66376     -456.44294      8.4219889      12.632996      16.843995      1792.116     
       193   0             -861.54806     -129606.34     -133159.51     -125565.09     -130094.42      210.19253     -425.48426     -506.16471      8.4219889      12.632996      16.843995      1792.116     
       194   0             -861.54864     -129639.2      -133183.95     -125585        -130148.65      219.49105     -396.89678     -512.31488      8.4219889      12.632996      16.843995      1792.116     
       195   0             -861.55024     -129691.74     -133188.9      -125610.56     -130275.78      313.06302     -302.38869     -531.93115      8.4219889      12.632996      16.843995      1792.116     
       196   0             -861.55118     -129689.43     -133155.72     -125580.36     -130332.22      272.10475     -292.616       -557.89998      8.4219889      12.632996      16.843995      1792.116     
       197   0             -861.5522      -129662.44     -133089.3      -125508.12     -130389.89      331.18882     -271.83286     -597.74523      8.4219889      12.632996      16.843995      1792.116     
       198   0             -861.55394     -129630.78     -133050.79     -125427.1      -130414.46      484.19642     -167.50669     -639.14443      8.4219889      12.632996      16.843995      1792.116     
       199   0             -861.55575     -129594.31     -133018.7      -125333.78     -130430.46      475.34188     -44.154414     -678.1773       8.4219889      12.632996      16.843995      1792.116     
       200   0             -861.55651     -129588.6      -133011.54     -125312.14     -130442.13      369.80983     -53.91793      -680.57563      8.4219889      12.632996      16.843995      1792.116     
Loop time of 0.080154 on 4 procs for 100 steps with 192 atoms

53.6% CPU use with 4 MPI tasks x 1 OpenMP threads

Minimization stats:
  Stopping criterion = max iterations
  Energy initial, next-to-last, final = 
     -859.533984791444  -861.555748711598  -861.556508825164
  Force two-norm initial, final = 0.00080339915 0.098724073
  Force max component initial, final = 8.8687525e-05 0.022234542
  Final line search alpha, max atom move = 0.25038294 0.0055671501
  Iterations, force evaluations = 100 121

MPI task timing breakdown:
Section |  min time  |  avg time  |  max time  |%varavg| %total
---------------------------------------------------------------
Pair    | 0.069221   | 0.072023   | 0.075679   |   0.9 | 89.86
Neigh   | 0          | 0          | 0          |   0.0 |  0.00
Comm    | 0.002331   | 0.0059248  | 0.008671   |   3.1 |  7.39
Output  | 0.001072   | 0.0011285  | 0.001263   |   0.2 |  1.41
Modify  | 0          | 0          | 0          |   0.0 |  0.00
Other   |            | 0.001078   |            |       |  1.34

Nlocal:             48 ave          55 max          43 min
Histogram: 2 0 0 0 0 0 1 0 0 1
Nghost:            600 ave         605 max         593 min
Histogram: 1 0 0 1 0 0 0 0 0 2
Neighs:           1920 ave        2202 max        1690 min
Histogram: 1 1 0 0 0 0 1 0 0 1
FullNghs:         3840 ave        4400 max        3440 min
Histogram: 2 0 0 0 0 0 1 0 0 1

Total # of neighbors = 15360
Ave neighs/atom = 80
Neighbor list builds = 0
Dangerous builds = 0

# Obtain new stress tensor

variable tmp equal pxx
variable pxx1 equal ${tmp}
variable pxx1 equal -133011.5374356
variable tmp equal pyy
variable pyy1 equal ${tmp}
variable pyy1 equal -125312.142965778
variable tmp equal pzz
variable pzz1 equal ${tmp}
variable pzz1 equal -130442.134394331
variable tmp equal pxy
variable pxy1 equal ${tmp}
variable pxy1 equal 369.809834506743
variable tmp equal pxz
variable pxz1 equal ${tmp}
variable pxz1 equal -53.9179301570248
variable tmp equal pyz
variable pyz1 equal ${tmp}
variable pyz1 equal -680.575633587958

# Compute elastic constant from pressure tensor

variable C1neg equal ${d1}
variable C1neg equal 1796357.8765318
variable C2neg equal ${d2}
variable C2neg equal 2566297.3235175
variable C3neg equal ${d3}
variable C3neg equal 2053298.1806587
variable C4neg equal ${d4}
variable C4neg equal -68057.5633588013
variable C5neg equal ${d5}
variable C5neg equal -5391.7930157047
variable C6neg equal ${d6}
variable C6neg equal 36980.9834506759

# Reset box and simulation parameters

clear
  using 1 OpenMP thread(s) per MPI task
Loaded 1 plugins from C:\Program Files\LAMMPS 64-bit 23Jun2022\plugins
Loaded 0 plugins from C:\Program Files\LAMMPS 64-bit 23Jun2022-MPI\plugins
Loaded 1 plugins from C:\Program Files\LAMMPS 64-bit 22Dec2022-MSMPI\plugins
Loaded 1 plugins from C:\Program Files\LAMMPS 64-bit 28Mar2023-MPI\plugins
box tilt large

The 'box' command has been removed and will be ignored

read_restart restart.equil
Reading restart file ...
  restart file = 22 Dec 2022, LAMMPS = 22 Dec 2022
  restoring atom style atomic from restart
  triclinic box = (0.04253534 0.06380301 0.08507068) to (8.4645327 12.696799 16.929065) with tilt (0 0 0)
  1 by 2 by 2 MPI processor grid
  pair style meam stores no restart info
  192 atoms
  read_restart CPU = 0.000 seconds
include potential.mod
# NOTE: This script can be modified for different pair styles
# See in.elastic for more info.

# Choose potential
#-----------------------
#pair_style	sw
#pair_coeff * * Si.sw Si
#-----------------------
#pair_style morse	2.83994742	# D0[eV] a[1/A] r0[A] rc[A], 1NN for BCC
#pair_coeff 1 1	2.1173	1.0202	2.4595	2.6497	#	Fe-Fe
#-----------------------
#pair_style smatb # R0(A)   p       q     A(eV)   xi(eV)  Rcs(A)   Rc(A), 4NN: Rcs=4NN, Rc=(4NN+5NN)/2
#pair_coeff 1 1	2.4802	7.0149	2.3779	0.3144	3.0551	4.033	4.176	#	Co	Co
#-----------------------
#pair_style eam/alloy
#pair_coeff * * AlCrFeCoNi_Zhou04.eam.alloy Fe
#-----------------------
pair_style meam
#pair_coeff * * ./../../library.meam Ti V Cr Fe N ./../../TiVCrFeN.meam Ti N
#pair_coeff * * ./../../library.meam Ti V Cr Fe N ./../../TiVCrFeN.meam V N
#pair_coeff * * ./../../library.meam Ti V Cr Fe N ./../../TiVCrFeN.meam Cr N
pair_coeff * * ./../../library.meam Ti V Cr Fe N ./../../TiVCrFeN.meam Fe N
#-----------------------

# Setup neighbor style
neighbor 1.0 nsq
neigh_modify once no every 1 delay 0 check yes

# Setup minimization style
min_style	     cg
min_modify	     dmax ${dmax} line quadratic
min_modify	     dmax 0.01 line quadratic

# Setup output
thermo		1
thermo_style custom step temp pe press pxx pyy pzz pxy pxz pyz lx ly lz vol
thermo_modify norm no

# Positive deformation

variable delta equal ${up}*${len0}
variable delta equal 1e-06*${len0}
variable delta equal 1e-06*8.42199731999993
variable deltaxy equal ${up}*xy
variable deltaxy equal 1e-06*xy
variable deltaxz equal ${up}*xz
variable deltaxz equal 1e-06*xz
variable deltayz equal ${up}*yz
variable deltayz equal 1e-06*yz
if "${dir} == 1" then    "change_box all x delta 0 ${delta} xy delta ${deltaxy} xz delta ${deltaxz} remap units box"
change_box all x delta 0 ${delta} xy delta ${deltaxy} xz delta ${deltaxz} remap units box
change_box all x delta 0 8.42199731999993e-06 xy delta ${deltaxy} xz delta ${deltaxz} remap units box
change_box all x delta 0 8.42199731999993e-06 xy delta 0 xz delta ${deltaxz} remap units box
change_box all x delta 0 8.42199731999993e-06 xy delta 0 xz delta 0 remap units box
Changing box ...
  triclinic box = (0.04253534 0.06380301 0.08507068) to (8.4645411 12.696799 16.929065) with tilt (0 0 0)
  triclinic box = (0.04253534 0.06380301 0.08507068) to (8.4645411 12.696799 16.929065) with tilt (0 0 0)
  triclinic box = (0.04253534 0.06380301 0.08507068) to (8.4645411 12.696799 16.929065) with tilt (0 0 0)
if "${dir} == 2" then    "change_box all y delta 0 ${delta} yz delta ${deltayz} remap units box"
if "${dir} == 3" then    "change_box all z delta 0 ${delta} remap units box"
if "${dir} == 4" then    "change_box all yz delta ${delta} remap units box"
if "${dir} == 5" then    "change_box all xz delta ${delta} remap units box"
if "${dir} == 6" then    "change_box all xy delta ${delta} remap units box"

# Relax atoms positions

minimize ${etol} ${ftol} ${maxiter} ${maxeval}
minimize 0 ${ftol} ${maxiter} ${maxeval}
minimize 0 1e-10 ${maxiter} ${maxeval}
minimize 0 1e-10 100 ${maxeval}
minimize 0 1e-10 100 1000
Neighbor list info ...
  update: every = 1 steps, delay = 0 steps, check = yes
  max neighbors/atom: 2000, page size: 100000
  master list distance cutoff = 5.6
  ghost atom cutoff = 5.6
  2 neighbor lists, perpetual/occasional/extra = 2 0 0
  (1) pair meam, perpetual
      attributes: full, newton on
      pair build: full/nsq
      stencil: none
      bin: none
  (2) pair meam, perpetual, half/full from (1)
      attributes: half, newton on
      pair build: halffull/newton
      stencil: none
      bin: none
Per MPI rank memory allocation (min/avg/max) = 9.867 | 9.872 | 9.878 Mbytes
   Step          Temp          PotEng         Press           Pxx            Pyy            Pzz            Pxy            Pxz            Pyz             Lx             Ly             Lz           Volume    
       100   0             -859.53365     -150976.38     -150978.08     -150975.53     -150975.53      1.2633769e-06 -1.7019376e-05  6.7659608e-06  8.4220057      12.632996      16.843995      1792.1196    
       101   0             -859.53365     -150976.38     -150978.08     -150975.53     -150975.53     -4.3999963e-07  9.9158266e-07  1.5495834e-05  8.4220057      12.632996      16.843995      1792.1196    
       102   0             -859.53365     -150976.38     -150978.08     -150975.53     -150975.53      4.2370134e-06  1.1867626e-06  1.4697799e-05  8.4220057      12.632996      16.843995      1792.1196    
       103   0             -859.53365     -150976.38     -150978.08     -150975.53     -150975.53      1.042788e-05   3.2002298e-06  1.3273708e-05  8.4220057      12.632996      16.843995      1792.1196    
       104   0             -859.53365     -150976.38     -150978.08     -150975.53     -150975.53      0.00011783117  0.0001720609  -8.0348081e-05  8.4220057      12.632996      16.843995      1792.1196    
       105   0             -859.53367     -150976.28     -150977.91     -150975.45     -150975.49      0.023055314    0.049286809   -0.040124788    8.4220057      12.632996      16.843995      1792.1196    
       106   0             -859.53779     -150953.79     -150937.17     -150958.04     -150966.18      5.136779       11.016787     -9.3540646      8.4220057      12.632996      16.843995      1792.1196    
       107   0             -859.54846     -150890.65     -150824.3      -150908.61     -150939.04      18.972986      40.289166     -34.815032      8.4220057      12.632996      16.843995      1792.1196    
       108   0             -859.56387     -150783.62     -150637.87     -150822.94     -150890.04      40.997734      86.437831     -75.958668      8.4220057      12.632996      16.843995      1792.1196    
       109   0             -859.58118     -150627.56     -150375.68     -150694.25     -150812.75      70.382834      147.8472      -132.04362      8.4220057      12.632996      16.843995      1792.1196    
       110   0             -859.59666     -150415.75     -150034.67     -150513.75     -150698.84      105.97084      222.80611     -201.88078      8.4220057      12.632996      16.843995      1792.1196    
       111   0             -859.60647     -150140.95     -149610.14     -150272.74     -150539.95      146.57835      308.77078     -283.0929       8.4220057      12.632996      16.843995      1792.1196    
       112   0             -859.61056     -149885.11     -149219.66     -150047.54     -150388.13      176.25563      383.29539     -347.46902      8.4220057      12.632996      16.843995      1792.1196    
       113   0             -859.63648     -149546.82     -148635.61     -149784.68     -150220.18      160.27466      491.31863     -382.94137      8.4220057      12.632996      16.843995      1792.1196    
       114   0             -859.69036     -149514.65     -148426.04     -149838.88     -150279.03      69.060219      445.59008     -311.21073      8.4220057      12.632996      16.843995      1792.1196    
       115   0             -859.72693     -149431.62     -148195.18     -149810.58     -150289.1       90.431355      354.93249     -300.22866      8.4220057      12.632996      16.843995      1792.1196    
       116   0             -859.75665     -149311.92     -147959.04     -149727.72     -150249.01      136.45685      296.94625     -269.95319      8.4220057      12.632996      16.843995      1792.1196    
       117   0             -859.78503     -149164.31     -147713.81     -149611.28     -150167.84      197.64115      253.90685     -242.5956       8.4220057      12.632996      16.843995      1792.1196    
       118   0             -859.81529     -148995.93     -147465.07     -149472.23     -150050.49      259.54383      225.69884     -213.56553      8.4220057      12.632996      16.843995      1792.1196    
       119   0             -859.84971     -148806.88     -147213.74     -149311.15     -149895.74      303.39648      208.94124     -190.22951      8.4220057      12.632996      16.843995      1792.1196    
       120   0             -859.8901      -148591.95     -146956.26     -149122.17     -149697.43      311.83877      204.66525     -169.39114      8.4220057      12.632996      16.843995      1792.1196    
       121   0             -859.93769     -148342.36     -146685.91     -148894.12     -149447.06      271.28277      213.36139     -150.24653      8.4220057      12.632996      16.843995      1792.1196    
       122   0             -859.98988     -148064.18     -146410.27     -148628.73     -149153.55      182.18905      233.68568     -130.95658      8.4220057      12.632996      16.843995      1792.1196    
       123   0             -860.04388     -147763.96     -146132.38     -148330.31     -148829.18      59.512421      261.68336     -110.01949      8.4220057      12.632996      16.843995      1792.1196    
       124   0             -860.10064     -147429.63     -145836.96     -147986.37     -148465.57     -86.803684      295.92794     -84.097986      8.4220057      12.632996      16.843995      1792.1196    
       125   0             -860.1591      -147063.01     -145522.22     -147598.89     -148067.93     -244.8648       335.81484     -52.228949      8.4220057      12.632996      16.843995      1792.1196    
       126   0             -860.21756     -146674.28     -145193.43     -147179.95     -147649.47     -402.18674      380.92589     -15.043426      8.4220057      12.632996      16.843995      1792.1196    
       127   0             -860.27655     -146260.67     -144844.99     -146728.59     -147208.45     -554.04585      431.92508      27.7318        8.4220057      12.632996      16.843995      1792.1196    
       128   0             -860.33682     -145815.59     -144468.65     -146239.66     -146738.48     -697.74615      488.86067      76.836938      8.4220057      12.632996      16.843995      1792.1196    
       129   0             -860.39923     -145327.11     -144052.05     -145702.21     -146227.09     -832.59015      550.81623      132.09728      8.4220057      12.632996      16.843995      1792.1196    
       130   0             -860.46476     -144775.65     -143577        -145096.63     -145653.32     -956.95598      615.60772      193.35246      8.4220057      12.632996      16.843995      1792.1196    
       131   0             -860.53127     -144162.82     -143044.38     -144426.81     -145017.27     -1064.8365      675.16002      257.20706      8.4220057      12.632996      16.843995      1792.1196    
       132   0             -860.59661     -143492.91     -142459.34     -143699.02     -144320.38     -1153.489       720.06323      319.72608      8.4220057      12.632996      16.843995      1792.1196    
       133   0             -860.65848     -142782.89     -141839.76     -142932.53     -143576.39     -1223.0747      740.20459      376.00674      8.4220057      12.632996      16.843995      1792.1196    
       134   0             -860.7145      -142071.4      -141223.21     -142169.14     -142821.84     -1274.1348      729.81098      419.954        8.4220057      12.632996      16.843995      1792.1196    
       135   0             -860.76224     -141420.11     -140665.34     -141474.42     -142120.57     -1308.6272      691.96791      445.90454      8.4220057      12.632996      16.843995      1792.1196    
       136   0             -860.80491     -140810.99     -140150.18     -140828.57     -141454.23     -1329.6125      633.51437      458.33437      8.4220057      12.632996      16.843995      1792.1196    
       137   0             -860.84491     -140224.13     -139659.23     -140210.24     -140802.92     -1337.4102      559.57518      462.75756      8.4220057      12.632996      16.843995      1792.1196    
       138   0             -860.88424     -139637.87     -139172.22     -139596.28     -140145.09     -1330.5806      474.31243      463.99339      8.4220057      12.632996      16.843995      1792.1196    
       139   0             -860.92511     -139024.87     -138663.64     -138957.62     -139453.36     -1307.5304      380.13696      467.10703      8.4220057      12.632996      16.843995      1792.1196    
       140   0             -860.96668     -138410.05     -138150.82     -138318.87     -138760.46     -1265.7391      286.35214      476.5759       8.4220057      12.632996      16.843995      1792.1196    
       141   0             -861.00438     -137879.11     -137704.43     -137764.96     -138167.94     -1212.414       205.62373      491.88961      8.4220057      12.632996      16.843995      1792.1196    
       142   0             -861.04005     -137404.91     -137304.03     -137263.58     -137647.12     -1152.8118      125.1444       511.62743      8.4220057      12.632996      16.843995      1792.1196    
       143   0             -861.07512     -136966.19     -136935.31     -136789.04     -137174.23     -1092.0209      32.161044      527.83692      8.4220057      12.632996      16.843995      1792.1196    
       144   0             -861.10635     -136603.08     -136638.37     -136381.98     -136788.88     -1042.4928     -62.419354      535.70121      8.4220057      12.632996      16.843995      1792.1196    
       145   0             -861.13429     -136297.74     -136400.59     -136025.63     -136466.99     -1004.5828     -155.62813      534.21708      8.4220057      12.632996      16.843995      1792.1196    
       146   0             -861.1603      -136026.54     -136203.42     -135697.25     -136178.94     -982.53264     -234.28981      529.80095      8.4220057      12.632996      16.843995      1792.1196    
       147   0             -861.18523     -135774.21     -136033.73     -135381.5      -135907.41     -972.42324     -308.08675      525.4201       8.4220057      12.632996      16.843995      1792.1196    
       148   0             -861.20947     -135531.93     -135882.17     -135072.76     -135640.85     -974.13239     -354.69412      524.14435      8.4220057      12.632996      16.843995      1792.1196    
       149   0             -861.23337     -135290.97     -135740.8      -134763.2      -135368.92     -986.78097     -394.14866      520.79296      8.4220057      12.632996      16.843995      1792.1196    
       150   0             -861.25709     -135043.62     -135600.27     -134448.49     -135082.1      -1012.0809     -388.18958      524.6466       8.4220057      12.632996      16.843995      1792.1196    
       151   0             -861.28088     -134779        -135453.88     -134115.8      -134767.31     -1051.4179     -371.55761      527.37983      8.4220057      12.632996      16.843995      1792.1196    
       152   0             -861.30471     -134487.54     -135289.85     -133761.41     -134411.37     -1096.7553     -283.25016      538.1859       8.4220057      12.632996      16.843995      1792.1196    
       153   0             -861.32525     -134205.2      -135136.09     -133423.67     -134055.83     -1139.1776     -226.92329      537.71297      8.4220057      12.632996      16.843995      1792.1196    
       154   0             -861.34251     -133923.06     -134969.98     -133107.47     -133691.74     -1141.09       -37.437703      565.73035      8.4220057      12.632996      16.843995      1792.1196    
       155   0             -861.35959     -133626.29     -134801.01     -132777.38     -133300.49     -1115.6734      4.3866306      570.75413      8.4220057      12.632996      16.843995      1792.1196    
       156   0             -861.37514     -133312.82     -134598.98     -132463.87     -132875.6      -1008.1168      179.52376      615.20128      8.4220057      12.632996      16.843995      1792.1196    
       157   0             -861.38757     -133067.29     -134449.88     -132229.01     -132522.97     -850.23114      152.53511      657.65517      8.4220057      12.632996      16.843995      1792.1196    
       158   0             -861.39986     -132841.58     -134287.75     -132022.66     -132214.32     -676.36562      167.18034      730.55424      8.4220057      12.632996      16.843995      1792.1196    
       159   0             -861.40948     -132728.97     -134186.54     -131889.65     -132110.74     -621.09845     -53.68818       799.04478      8.4220057      12.632996      16.843995      1792.1196    
       160   0             -861.41696     -132575        -134043.02     -131672.42     -132009.57     -578.97352     -183.32488      881.64799      8.4220057      12.632996      16.843995      1792.1196    
       161   0             -861.42575     -132418.66     -133910.87     -131436.54     -131908.58     -546.38161     -406.64253      928.24153      8.4220057      12.632996      16.843995      1792.1196    
       162   0             -861.43254     -132273.59     -133802.37     -131190.32     -131828.09     -504.31727     -524.16971      963.26833      8.4220057      12.632996      16.843995      1792.1196    
       163   0             -861.43821     -132149.85     -133726.83     -130974.37     -131748.34     -410.42671     -663.92743      1042.4126      8.4220057      12.632996      16.843995      1792.1196    
       164   0             -861.44508     -132015.39     -133628.24     -130727.59     -131690.35     -395.37067     -733.02231      1055.505       8.4220057      12.632996      16.843995      1792.1196    
       165   0             -861.45138     -131891.45     -133556.48     -130474.34     -131643.54     -331.06802     -890.26388      1101.8835      8.4220057      12.632996      16.843995      1792.1196    
       166   0             -861.45797     -131761.42     -133481.51     -130207.08     -131595.67     -298.31316     -939.53357      1136.9288      8.4220057      12.632996      16.843995      1792.1196    
       167   0             -861.46534     -131624.27     -133404.94     -129926.14     -131541.73     -263.23387     -1111.0775      1176.5881      8.4220057      12.632996      16.843995      1792.1196    
       168   0             -861.47127     -131553.76     -133369.76     -129745.4      -131546.12     -246.13111     -1178.195       1206.7819      8.4220057      12.632996      16.843995      1792.1196    
[...]
       162   0             -861.42858     -132331.46     -133853.83     -131297.21     -131843.34     -529.83414     -512.53564      946.29737      8.4219973      12.632996      16.843995      1792.1178    
       163   0             -861.43524     -132190.81     -133754.94     -131045.63     -131771.85     -479.22671     -625.86016      989.13338      8.4219973      12.632996      16.843995      1792.1178    
       164   0             -861.43792     -132160.46     -133733.43     -130988.04     -131759.91     -445.13174     -580.53278      1015.2784      8.4219973      12.632996      16.843995      1792.1178    
       165   0             -861.44403     -132048.21     -133665.73     -130774        -131704.9      -389.84461     -691.58553      1066.3151      8.4219973      12.632996      16.843995      1792.1178    
       166   0             -861.44662     -131994.7      -133638.09     -130654.76     -131691.25     -390.99792     -820.21046      1065.0178      8.4219973      12.632996      16.843995      1792.1178    
       167   0             -861.45341     -131864.54     -133559.87     -130381.09     -131652.65     -337.71906     -933.73247      1097.6573      8.4219973      12.632996      16.843995      1792.1178    
       168   0             -861.45573     -131840.3      -133550.25     -130333.5      -131637.14     -298.77308     -887.91753      1124.5567      8.4219973      12.632996      16.843995      1792.1178    
       169   0             -861.46273     -131717.57     -133494.89     -130083.51     -131574.3      -263.35605     -1029.5405      1174.2247      8.4219973      12.632996      16.843995      1792.1178    
       170   0             -861.46758     -131623.71     -133426.25     -129862.17     -131582.7      -270.5672      -1190.5579      1177.3197      8.4219973      12.632996      16.843995      1792.1178    
       171   0             -861.47269     -131505.39     -133336.57     -129628.24     -131551.36     -236.43254     -1271.864       1200.6524      8.4219973      12.632996      16.843995      1792.1178    
       172   0             -861.47858     -131453.31     -133309.21     -129565.32     -131485.4      -189.86505     -1221.4093      1231.0386      8.4219973      12.632996      16.843995      1792.1178    
       173   0             -861.48328     -131381.13     -133263.73     -129456.49     -131423.17     -199.71032     -1299.1822      1243.213       8.4219973      12.632996      16.843995      1792.1178    
       174   0             -861.48905     -131307.28     -133174.25     -129323.48     -131424.12     -206.53973     -1357.2898      1262.7899      8.4219973      12.632996      16.843995      1792.1178    
       175   0             -861.49403     -131215.56     -133071.24     -129202.52     -131372.92     -167.28686     -1275.8833      1266.9787      8.4219973      12.632996      16.843995      1792.1178    
       176   0             -861.49746     -131170.87     -133043.88     -129170.06     -131298.68     -142.31708     -1194.1621      1240.8422      8.4219973      12.632996      16.843995      1792.1178    
       177   0             -861.50145     -131078.49     -132954.46     -129061.17     -131219.84     -131.92775     -1158.9899      1221.8199      8.4219973      12.632996      16.843995      1792.1178    
       178   0             -861.50522     -130996.16     -132842.42     -128945.2      -131200.85     -109.00177     -1047.1865      1239.2461      8.4219973      12.632996      16.843995      1792.1178    
       179   0             -861.50896     -130879.7      -132716.03     -128806.74     -131116.33     -74.6835       -896.62175      1203.5477      8.4219973      12.632996      16.843995      1792.1178    
       180   0             -861.51227     -130824.16     -132679.45     -128761.8      -131031.23     -74.341439     -880.72287      1142.3977      8.4219973      12.632996      16.843995      1792.1178    
       181   0             -861.51574     -130705.99     -132568.77     -128626.29     -130922.9      -78.294447     -808.04953      1088.2809      8.4219973      12.632996      16.843995      1792.1178    
       182   0             -861.51924     -130592.62     -132472.47     -128459.05     -130846.33     -27.788338     -590.27319      1018.5562      8.4219973      12.632996      16.843995      1792.1178    
       183   0             -861.52211     -130439.32     -132371.84     -128248.27     -130697.84      7.1386291     -494.19353      891.78078      8.4219973      12.632996      16.843995      1792.1178    
       184   0             -861.52474     -130381.75     -132379.51     -128148.13     -130617.63     -11.3811       -583.97826      813.86687      8.4219973      12.632996      16.843995      1792.1178    
       185   0             -861.52707     -130312.59     -132460.96     -127945.34     -130531.47      7.6527246     -538.92609      686.34271      8.4219973      12.632996      16.843995      1792.1178    
       186   0             -861.53052     -130239.27     -132547.27     -127713.43     -130457.1       36.682649     -464.34358      533.39125      8.4219973      12.632996      16.843995      1792.1178    
       187   0             -861.53229     -130164.46     -132653.37     -127437.12     -130402.89      74.464157     -542.76976      372.85178      8.4219973      12.632996      16.843995      1792.1178    
       188   0             -861.5345      -130058.22     -132777.94     -127078.03     -130318.68      125.86312     -588.59116      209.59789      8.4219973      12.632996      16.843995      1792.1178    
       189   0             -861.53835     -129981.45     -132874.51     -126814.35     -130255.49      147.1997      -480.23101      125.58939      8.4219973      12.632996      16.843995      1792.1178    
       190   0             -861.54055     -129867.11     -133011.3      -126422.36     -130167.66      135.53415     -401.99688     -105.09639      8.4219973      12.632996      16.843995      1792.1178    
       191   0             -861.54389     -129743.49     -133102.21     -126046.6      -130081.65      159.34301     -482.9352      -304.4842       8.4219973      12.632996      16.843995      1792.1178    
       192   0             -861.5458      -129670.04     -133122.41     -125802.29     -130085.42      253.46074     -500.95473     -345.01703      8.4219973      12.632996      16.843995      1792.1178    
       193   0             -861.5474      -129605.89     -133159.97     -125565.06     -130092.64      307.2822      -434.00956     -465.4623       8.4219973      12.632996      16.843995      1792.1178    
       194   0             -861.5493      -129595.09     -133211.67     -125459.19     -130114.39      269.83751     -359.58035     -603.99465      8.4219973      12.632996      16.843995      1792.1178    
       195   0             -861.55049     -129593.24     -133251.08     -125344.34     -130184.3       299.81563     -267.61408     -637.13755      8.4219973      12.632996      16.843995      1792.1178    
       196   0             -861.55236     -129579.78     -133248.17     -125259.75     -130231.41      372.57043     -199.52818     -655.69202      8.4219973      12.632996      16.843995      1792.1178    
       197   0             -861.55315     -129575.16     -133227.33     -125252.92     -130245.24      369.75142     -213.20577     -693.99056      8.4219973      12.632996      16.843995      1792.1178    
       198   0             -861.55396     -129580.68     -133200.17     -125210.14     -130331.71      394.77367     -156.72328     -666.71284      8.4219973      12.632996      16.843995      1792.1178    
       199   0             -861.5556      -129590.31     -133170.06     -125207.8      -130393.06      436.1012      -73.279623     -655.26662      8.4219973      12.632996      16.843995      1792.1178    
       200   0             -861.55664     -129599.79     -133181.84     -125231.49     -130386.04      400.17513     -44.49098      -708.62218      8.4219973      12.632996      16.843995      1792.1178    
Loop time of 0.079101 on 4 procs for 100 steps with 192 atoms

74.1% CPU use with 4 MPI tasks x 1 OpenMP threads

Minimization stats:
  Stopping criterion = max iterations
  Energy initial, next-to-last, final = 
     -859.533815919518  -861.555601279646  -861.556644470272
  Force two-norm initial, final = 0.00080339537 0.093371635
  Force max component initial, final = 8.8687927e-05 0.023603443
  Final line search alpha, max atom move = 0.36454442 0.0086045034
  Iterations, force evaluations = 100 122

MPI task timing breakdown:
Section |  min time  |  avg time  |  max time  |%varavg| %total
---------------------------------------------------------------
Pair    | 0.069475   | 0.071706   | 0.074929   |   0.9 | 90.65
Neigh   | 0          | 0          | 0          |   0.0 |  0.00
Comm    | 0.002304   | 0.0054692  | 0.007634   |   3.0 |  6.91
Output  | 0.000991   | 0.0010338  | 0.00113    |   0.2 |  1.31
Modify  | 0          | 0          | 0          |   0.0 |  0.00
Other   |            | 0.0008918  |            |       |  1.13

Nlocal:             48 ave          55 max          43 min
Histogram: 2 0 0 0 0 0 1 0 0 1
Nghost:            600 ave         605 max         593 min
Histogram: 1 0 0 1 0 0 0 0 0 2
Neighs:           1920 ave        2202 max        1690 min
Histogram: 1 1 0 0 0 0 1 0 0 1
FullNghs:         3840 ave        4400 max        3440 min
Histogram: 2 0 0 0 0 0 1 0 0 1

Total # of neighbors = 15360
Ave neighs/atom = 80
Neighbor list builds = 0
Dangerous builds = 0

# Obtain new stress tensor

variable tmp equal pe
variable e1 equal ${tmp}
variable e1 equal -861.556644470272
variable tmp equal press
variable p1 equal ${tmp}
variable p1 equal -129599.791903593
variable tmp equal pxx
variable pxx1 equal ${tmp}
variable pxx1 equal -133181.839547126
variable tmp equal pyy
variable pyy1 equal ${tmp}
variable pyy1 equal -125231.494547234
variable tmp equal pzz
variable pzz1 equal ${tmp}
variable pzz1 equal -130386.041616418
variable tmp equal pxy
variable pxy1 equal ${tmp}
variable pxy1 equal 400.17512843049
variable tmp equal pxz
variable pxz1 equal ${tmp}
variable pxz1 equal -44.4909800660228
variable tmp equal pyz
variable pyz1 equal ${tmp}
variable pyz1 equal -708.622180712302

# Compute elastic constant from pressure tensor

variable C1pos equal ${d1}
variable C1pos equal -1779327.6653792
variable C2pos equal ${d2}
variable C2pos equal -2574362.1653719
variable C3pos equal ${d3}
variable C3pos equal -2058907.45845
variable C4pos equal ${d4}
variable C4pos equal 70862.2180712357
variable C5pos equal ${d5}
variable C5pos equal 4449.0980066045
variable C6pos equal ${d6}
variable C6pos equal -40017.5128430506

# Combine positive and negative

variable C1${dir} equal 0.5*(${C1neg}+${C1pos})
variable C16 equal 0.5*(${C1neg}+${C1pos})
variable C16 equal 0.5*(1793368.3445531+${C1pos})
variable C16 equal 0.5*(1793368.3445531+-1779327.6653792)
variable C2${dir} equal 0.5*(${C2neg}+${C2pos})
variable C26 equal 0.5*(${C2neg}+${C2pos})
variable C26 equal 0.5*(2584916.9879854+${C2pos})
variable C26 equal 0.5*(2584916.9879854+-2574362.1653719)
variable C3${dir} equal 0.5*(${C3neg}+${C3pos})
variable C36 equal 0.5*(${C3neg}+${C3pos})
variable C36 equal 0.5*(2051875.7584955+${C3pos})
variable C36 equal 0.5*(2051875.7584955+-2058907.45845)
variable C4${dir} equal 0.5*(${C4neg}+${C4pos})
variable C46 equal 0.5*(${C4neg}+${C4pos})
variable C46 equal 0.5*(-66672.2751317937+${C4pos})
variable C46 equal 0.5*(-66672.2751317937+70862.2180712357)
variable C5${dir} equal 0.5*(${C5neg}+${C5pos})
variable C56 equal 0.5*(${C5neg}+${C5pos})
variable C56 equal 0.5*(7481.70654239393+${C5pos})
variable C56 equal 0.5*(7481.70654239393+4449.0980066045)
variable C6${dir} equal 0.5*(${C6neg}+${C6pos})
variable C66 equal 0.5*(${C6neg}+${C6pos})
variable C66 equal 0.5*(42022.8747554171+${C6pos})
variable C66 equal 0.5*(42022.8747554171+-40017.5128430506)

# Delete dir to make sure it is not reused

variable dir delete

# Output final values

variable C11all equal ${C11}
variable C11all equal 3758.34987160005
variable C22all equal ${C22}
variable C22all equal 13886.2252545001
variable C33all equal ${C33}
variable C33all equal 1524.0781866

variable C12all equal 0.5*(${C12}+${C21})
variable C12all equal 0.5*(2185.79515040002+${C21})
variable C12all equal 0.5*(2185.79515040002+-1765.51391925011)
variable C13all equal 0.5*(${C13}+${C31})
variable C13all equal 0.5*(-6092.67579190002+${C31})
variable C13all equal 0.5*(-6092.67579190002+-422.802543550031)
variable C23all equal 0.5*(${C23}+${C32})
variable C23all equal 0.5*(8300.92030390003+${C32})
variable C23all equal 0.5*(8300.92030390003+-37.0983493999811)

variable C44all equal ${C44}
variable C44all equal -3300.13108500815
variable C55all equal ${C55}
variable C55all equal 7839.59710312737
variable C66all equal ${C66}
variable C66all equal 1002.68095618325

variable C14all equal 0.5*(${C14}+${C41})
variable C14all equal 0.5*(521.946446749964+${C41})
variable C14all equal 0.5*(521.946446749964+1677.8331484613)
variable C15all equal 0.5*(${C15}+${C51})
variable C15all equal 0.5*(-3193.42847199994+${C51})
variable C15all equal 0.5*(-3193.42847199994+2467.1262032039)
variable C16all equal 0.5*(${C16}+${C61})
variable C16all equal 0.5*(7020.33958695002+${C61})
variable C16all equal 0.5*(7020.33958695002+-503.6141830587)

variable C24all equal 0.5*(${C24}+${C42})
variable C24all equal 0.5*(890.593361500185+${C42})
variable C24all equal 0.5*(890.593361500185+-2154.2064598011)
variable C25all equal 0.5*(${C25}+${C52})
variable C25all equal 0.5*(12791.32994195+${C52})
variable C25all equal 0.5*(12791.32994195+9694.64808795794)
variable C26all equal 0.5*(${C26}+${C62})
variable C26all equal 0.5*(5277.41130675003+${C62})
variable C26all equal 0.5*(5277.41130675003+-4062.56335528265)

variable C34all equal 0.5*(${C34}+${C43})
variable C34all equal 0.5*(1083.45236915001+${C43})
variable C34all equal 0.5*(1083.45236915001+596.039646904199)
variable C35all equal 0.5*(${C35}+${C53})
variable C35all equal 0.5*(-4173.34748895001+${C53})
variable C35all equal 0.5*(-4173.34748895001+14437.9143381976)
variable C36all equal 0.5*(${C36}+${C63})
variable C36all equal 0.5*(-3515.84997724998+${C63})
variable C36all equal 0.5*(-3515.84997724998+-832.438722584298)

variable C45all equal 0.5*(${C45}+${C54})
variable C45all equal 0.5*(-512.565988856353+${C54})
variable C45all equal 0.5*(-512.565988856353+2121.86307721812)
variable C46all equal 0.5*(${C46}+${C64})
variable C46all equal 0.5*(2094.97146972099+${C64})
variable C46all equal 0.5*(2094.97146972099+516.239163465299)
variable C56all equal 0.5*(${C56}+${C65})
variable C56all equal 0.5*(5965.40227449922+${C65})
variable C56all equal 0.5*(5965.40227449922+4754.0214976902)

# Average moduli for cubic crystals

variable C11cubic equal (${C11all}+${C22all}+${C33all})/3.0
variable C11cubic equal (3758.34987160005+${C22all}+${C33all})/3.0
variable C11cubic equal (3758.34987160005+13886.2252545001+${C33all})/3.0
variable C11cubic equal (3758.34987160005+13886.2252545001+1524.0781866)/3.0
variable C12cubic equal (${C12all}+${C13all}+${C23all})/3.0
variable C12cubic equal (210.140615574955+${C13all}+${C23all})/3.0
variable C12cubic equal (210.140615574955+-3257.73916772503+${C23all})/3.0
variable C12cubic equal (210.140615574955+-3257.73916772503+4131.91097725002)/3.0
variable C44cubic equal (${C44all}+${C55all}+${C66all})/3.0
variable C44cubic equal (-3300.13108500815+${C55all}+${C66all})/3.0
variable C44cubic equal (-3300.13108500815+7839.59710312737+${C66all})/3.0
variable C44cubic equal (-3300.13108500815+7839.59710312737+1002.68095618325)/3.0

variable bulkmodulus equal (${C11cubic}+2*${C12cubic})/3.0
variable bulkmodulus equal (6389.55110423338+2*${C12cubic})/3.0
variable bulkmodulus equal (6389.55110423338+2*361.437475033315)/3.0
variable shearmodulus1 equal ${C44cubic}
variable shearmodulus1 equal 1847.38232476749
variable shearmodulus2 equal (${C11cubic}-${C12cubic})/2.0
variable shearmodulus2 equal (6389.55110423338-${C12cubic})/2.0
variable shearmodulus2 equal (6389.55110423338-361.437475033315)/2.0
variable poissonratio equal 1.0/(1.0+${C11cubic}/${C12cubic})
variable poissonratio equal 1.0/(1.0+6389.55110423338/${C12cubic})
variable poissonratio equal 1.0/(1.0+6389.55110423338/361.437475033315)

# For Stillinger-Weber silicon, the analytical results
# are known to be (E. R. Cowley, 1988):
#               C11 = 151.4 GPa
#               C12 = 76.4 GPa
#               C44 = 56.4 GPa

print "========================================="
=========================================
print "Components of the Elastic Constant Tensor"
Components of the Elastic Constant Tensor
print "========================================="
=========================================

print "Elastic Constant C11all = ${C11all} ${cunits}"
Elastic Constant C11all = 3758.34987160005 GPa
print "Elastic Constant C22all = ${C22all} ${cunits}"
Elastic Constant C22all = 13886.2252545001 GPa
print "Elastic Constant C33all = ${C33all} ${cunits}"
Elastic Constant C33all = 1524.0781866 GPa

print "Elastic Constant C12all = ${C12all} ${cunits}"
Elastic Constant C12all = 210.140615574955 GPa
print "Elastic Constant C13all = ${C13all} ${cunits}"
Elastic Constant C13all = -3257.73916772503 GPa
print "Elastic Constant C23all = ${C23all} ${cunits}"
Elastic Constant C23all = 4131.91097725002 GPa

print "Elastic Constant C44all = ${C44all} ${cunits}"
Elastic Constant C44all = -3300.13108500815 GPa
print "Elastic Constant C55all = ${C55all} ${cunits}"
Elastic Constant C55all = 7839.59710312737 GPa
print "Elastic Constant C66all = ${C66all} ${cunits}"
Elastic Constant C66all = 1002.68095618325 GPa

print "Elastic Constant C14all = ${C14all} ${cunits}"
Elastic Constant C14all = 1099.88979760563 GPa
print "Elastic Constant C15all = ${C15all} ${cunits}"
Elastic Constant C15all = -363.15113439802 GPa
print "Elastic Constant C16all = ${C16all} ${cunits}"
Elastic Constant C16all = 3258.36270194566 GPa

print "Elastic Constant C24all = ${C24all} ${cunits}"
Elastic Constant C24all = -631.806549150458 GPa
print "Elastic Constant C25all = ${C25all} ${cunits}"
Elastic Constant C25all = 11242.989014954 GPa
print "Elastic Constant C26all = ${C26all} ${cunits}"
Elastic Constant C26all = 607.42397573369 GPa

print "Elastic Constant C34all = ${C34all} ${cunits}"
Elastic Constant C34all = 839.746008027105 GPa
print "Elastic Constant C35all = ${C35all} ${cunits}"
Elastic Constant C35all = 5132.28342462379 GPa
print "Elastic Constant C36all = ${C36all} ${cunits}"
Elastic Constant C36all = -2174.14434991714 GPa

print "Elastic Constant C45all = ${C45all} ${cunits}"
Elastic Constant C45all = 804.648544180884 GPa
print "Elastic Constant C46all = ${C46all} ${cunits}"
Elastic Constant C46all = 1305.60531659314 GPa
print "Elastic Constant C56all = ${C56all} ${cunits}"
Elastic Constant C56all = 5359.71188609471 GPa

print "========================================="
=========================================
print "Average properties for a cubic crystal"
Average properties for a cubic crystal
print "========================================="
=========================================

print "Bulk Modulus = ${bulkmodulus} ${cunits}"
Bulk Modulus = 2370.80868476667 GPa
print "Shear Modulus 1 = ${shearmodulus1} ${cunits}"
Shear Modulus 1 = 1847.38232476749 GPa
print "Shear Modulus 2 = ${shearmodulus2} ${cunits}"
Shear Modulus 2 = 3014.05681460003 GPa
print "Poisson Ratio = ${poissonratio}"
Poisson Ratio = 0.0535384515600195
Total wall time: 0:00:01
