LAMMPS data file via write_data, version 22 Dec 2022, timestep = 100000

6249 atoms
5 atom types

0 100 xlo xhi
0 100 ylo yhi
0 10 zlo zhi

Masses

1 26.9815
2 28.086
3 24.305
4 63.54
5 55.847

Atoms # atomic

2 1 2.6993849730715804 2.801661752889424 1.9581381133416595 0 0 0
5 1 0.9436706389771785 0.6828175673790949 1.5204372205411056 0 0 0
8 1 2.291938643261276 0.8426248679881132 3.743343463888201 0 0 0
3649 1 0.8087477658436713 2.7447662828106294 9.917075919757815 1 0 0
254 1 6.45008185349247 2.7524623501122374 2.5594155627654813 0 0 0
378 1 6.265411343425723 0.36338526522838277 4.100560711029535 0 0 0
252 1 4.003501757294463 2.607425592282923 4.3726421971458365 0 0 0
7 1 4.5632990455948885 0.6626013395525185 1.945171354514962 0 0 0
55 1 5.02678339485053 2.7388354233177576 0.1693023865426937 0 0 0
6 1 6.93166963540326 0.4346720423237593 0.23987617236114175 0 0 0
12 1 8.734856115660923 2.5390330827429914 0.8210346995150687 0 0 0
255 1 8.52456543553529 0.5745904511538306 2.5706391388249346 0 0 0
256 1 10.353147765327568 2.615640830461502 3.213436154065801 0 0 0
381 1 8.04234716310595 2.6497856578700665 4.674120060351728 0 0 0
11 1 10.777304590329566 0.5389615866535945 1.2273940963891155 0 0 0
16 1 12.786235083748496 2.6106960184335533 1.6238137739070462 0 0 0
257 1 12.387351658679703 0.4925810179778485 3.4391174702994456 0 0 0
258 1 14.50469823938442 2.452170110226965 4.078904955259935 0 0 0
15 1 14.849220057529307 0.459793437833739 2.1650043629345097 0 0 0
20 1 16.649223768562457 2.5510622720519716 2.442798277082451 0 0 0
259 1 16.36825230153831 0.40894726186896707 4.277977100750161 0 0 0
17 1 17.0810403548687 0.7388084257025568 0.6073564692817776 0 0 0
14 1 14.861579440808569 2.6460323768551315 0.18252216395225968 0 0 0
19 1 18.881224035657322 0.6988324945847351 2.6955994436826765 0 0 0
24 1 20.87315448103082 2.5995655660499204 3.2611233725327535 0 0 0
18 1 19.24907576480967 2.337190118635055 0.9206780470409637 0 0 0
260 1 18.4157297887135 2.309134687387064 4.635803673688872 0 0 0
21 1 21.29961382499302 0.31454862632825226 1.17707047860705 0 0 0
22 1 23.153376721307502 2.5157928014624487 1.6785061759973678 0 0 0
23 1 22.769531899306937 0.6967021437850333 3.69215610545655 0 0 0
28 1 24.777877377983632 2.439668669359812 3.8409954041900876 0 0 0
25 1 24.946447905712795 0.3844539498413704 1.88045317097809 0 0 0
26 1 27.151374244223742 2.4123051728095355 2.2597103507120284 0 0 0
27 1 26.82375465015548 0.4548362360934895 4.028416899819979 0 0 0
515 1 27.548173365109715 0.4125678217559936 0.16020497926550506 0 0 1
32 1 28.717443676255602 2.404529390633635 4.555129168622758 0 0 0
29 1 29.216390550908898 0.5323182016281057 2.573824803128408 0 0 0
30 1 31.140551057288647 2.306503659945521 2.855090983589194 0 0 0
517 1 31.52120853927805 0.3961388296185701 0.9469402532362982 0 0 1
516 1 29.43599015399261 2.36970669951681 0.6651202432993273 0 0 1
33 1 33.17405742760732 0.45560111617754634 3.1850075437968157 0 0 0
34 1 33.71963779864752 2.3590720543675707 1.288072655503592 0 0 0
40 1 35.29911623024076 2.4089007857718547 3.614716606143522 0 0 0
38 1 37.548342122819484 2.734267041006154 2.063245703696816 0 0 0
269 1 37.31171465226668 0.47932636995549355 3.7860999908357975 0 0 0
501 1 0.3828745097957426 0.808676533560806 8.579386610961285 0 0 0
270 1 39.30469769317009 2.1901246203653213 4.31335596054736 0 0 0
519 1 38.161309072458515 0.4676192712639991 0.2521465593280237 0 0 1
44 1 39.75592167158803 2.4522427606934967 0.45239366100378786 0 0 0
272 1 41.56512994703345 2.4672827302169003 2.7061261686953593 0 0 0
43 1 41.96563524997943 0.5352771876290502 0.6636179544362018 0 0 0
271 1 41.42239629977173 0.2528624358478707 4.483466068855337 0 0 0
39 1 39.92499783688097 0.5367044405778305 2.202932424977712 0 0 0
48 1 44.0311799658807 2.382087895714885 1.1927867989322487 0 0 0
274 1 45.86214182666987 2.4354572064448563 3.2592762112544 0 0 0
398 1 43.69181316997696 0.3703407899542445 2.845542668162544 0 0 0
273 1 46.18810105748431 0.4516299918011552 1.3594572917476981 0 0 0
399 1 43.482247105906694 2.3872450332320096 4.746197747541845 0 0 0
50 1 48.35867094122906 2.4852448469411152 1.6883165897088115 0 0 0
3500 1 47.72323652677413 0.5621529935346371 3.514381710091458 0 0 0
3375 1 49.637814406854396 2.5160541933898912 4.092616379457015 0 0 0
625 1 49.497013789872085 16.188207369535114 6.0113999630676505 0 0 0
53 1 1.866167268771138 4.833106886415941 4.045859544391567 0 0 0
103 1 2.3047567637012247 6.647468594119616 2.3411193217726103 0 0 0
52 1 2.5568729262799845 4.5675043592128 9.983034490787514 0 0 -1
101 1 0.7880352632903621 6.4760711457269995 0.06566534679604931 0 0 0
404 1 3.660640326867065 6.677513211311334 4.548152930267192 0 0 0
278 1 4.367178531698662 4.643248629294708 2.5165500553080893 0 0 0
58 1 4.593843312097632 6.479523785620064 0.3396307958611052 0 0 0
279 1 6.124975584755381 6.649175816746822 2.7356707643698055 0 0 0
403 1 6.069603361932059 4.638176698246451 4.696872692444435 0 0 0
57 1 6.931641487908874 4.802810400851393 0.9573857916512188 0 0 0
62 1 8.728167415236358 6.823560551900478 1.1388561176964866 0 0 0
280 1 8.57146563847418 4.555350921678106 2.814279127234796 0 0 0
281 1 10.361070721866822 6.634624223754457 3.3862508298244163 0 0 0
61 1 10.745753874481943 4.800254490177838 1.309226177635417 0 0 0
406 1 8.009935293553063 6.462778527217882 4.720668843356444 0 0 0
66 1 12.845484400300505 6.679408798386457 1.795758769075687 0 0 0
282 1 12.34720301593688 4.456100664526009 3.5422470456399795 0 0 0
283 1 14.284140261136042 6.563938066306511 4.102791437407611 0 0 0
65 1 14.78234714432035 4.552424743282931 2.127057130497413 0 0 0
70 1 16.735119103177446 6.487906222255845 2.488662643692562 0 0 0
284 1 16.299279884131124 4.55486898358965 4.434732733895851 0 0 0
67 1 16.93909140219168 4.438777432280201 0.5984333632979062 0 0 0
64 1 15.03306627303836 6.471584455409904 0.15582127884113325 0 0 0
68 1 19.178412695436247 6.173200286649874 0.9706539780167217 0 0 0
69 1 18.684825661910253 4.408439091182015 2.7953969268403047 0 0 0
74 1 20.683327311926647 6.485018686847991 3.15156394557251 0 0 0
285 1 18.290133592809045 6.412499798922748 4.764598876212363 0 0 0
71 1 21.139896281017077 4.425186328617503 1.2489135542522745 0 0 0
72 1 23.11818680237422 6.544655717197262 1.7165990085836023 0 0 0
73 1 22.68965740406859 4.59793453210123 3.645599582443491 0 0 0
78 1 24.686921312646646 6.688883194791581 3.725968439109 0 0 0
75 1 25.318225340576173 4.390168338231894 1.9303614288250133 0 0 0
76 1 27.250980734958155 6.286962455950092 2.3628257866879108 0 0 0
77 1 26.676329554225397 4.527992743080084 4.2139007275540745 0 0 0
540 1 27.77186336750256 4.368836413528796 0.228713249594695 0 0 1
539 1 25.563069501987627 6.289849420847136 9.850976413812441 0 0 0
79 1 29.25447603682654 4.33170991528882 2.465058371190736 0 0 0
83 1 31.56409955353379 4.465508574665275 0.9582818588339024 0 0 0
541 1 29.582474784188893 6.384649702423295 0.6993128282730717 0 0 1
86 1 31.2334872776931 6.366245060248812 2.7244166387421984 0 0 0
82 1 28.969670652227016 6.284206704236291 4.426392620916664 0 0 0
81 1 30.855017954442296 4.445719542738397 4.836107171071108 0 0 0
84 1 33.66774983621456 6.56971783050566 1.2909668509103576 0 0 0
85 1 33.265824606670115 4.375854884087649 3.1426736750733877 0 0 0
90 1 35.2081261080792 6.358592946574619 3.6893713060167332 0 0 0
87 1 35.55405444490648 4.661763639023195 1.6462583694598696 0 0 0
89 1 37.19756737536382 4.450547570461875 4.083334427251153 0 0 0
88 1 37.70057672235788 6.527117502254137 2.0498336697734074 0 0 0
295 1 39.18950737668128 6.47961141287722 4.313795264919411 0 0 0
93 1 42.14255668749105 4.473071449502711 0.7159437109497604 0 0 0
296 1 39.81355767909092 4.371288915913843 2.2680856721018268 0 0 0
94 1 40.01006259003167 6.410468385275365 0.5075436573799939 0 0 0
297 1 41.648701685822815 6.48009717745178 2.571958087419076 0 0 0
421 1 41.32164172451873 4.375552325613038 4.456089631044403 0 0 0
98 1 43.93476645815182 6.565464138373165 0.950228422847124 0 0 0
298 1 43.615157256363716 4.409200366564035 2.9022150949347263 0 0 0
299 1 45.682878213738626 6.3667995717565145 3.105951673702667 0 0 0
97 1 46.16221714942992 4.5801474436140355 1.2612858191554293 0 0 0
424 1 43.33063924017504 6.5451458221325325 4.794786247641207 0 0 0
100 1 48.14494425398774 6.434944008363334 1.327083224534827 0 0 0
300 1 47.78113024962493 4.5406400289894675 3.319327669326782 0 0 0
425 1 49.680914857232644 6.582229356141999 3.6776464566077784 0 0 0
277 1 1.7081197865359796 8.54411439814561 4.303206982685813 0 0 0
302 1 2.2771808507382887 10.59483830433768 2.2127952574228673 0 0 0
102 1 2.6013954505667223 8.8251928915255 0.4282040407476479 0 0 0
551 1 0.6296733962852188 10.653104602653794 9.95279050784723 0 0 0
666 1 39.40911591810471 19.63723586838407 0.88478457250122 0 0 0
429 1 3.6796253717819356 10.647000564252869 4.624055265820834 0 0 0
303 1 4.192140130352234 8.526441096771256 2.569227244526723 0 0 0
108 1 4.533028640563737 10.55131600198254 0.5877256666832961 0 0 0
304 1 6.124272049253936 10.438411058519916 2.8877437514953526 0 0 0
107 1 6.519343036616355 8.478830993520356 0.9963859820714096 0 0 0
428 1 5.59007420548075 8.60294990906541 4.70364809912854 0 0 0
112 1 8.653794955877203 10.543491200041668 1.1696018506134542 0 0 0
305 1 8.460515291880768 8.799226235155496 3.1403762642245763 0 0 0
306 1 10.470962540174039 10.65432349687646 3.50221257962977 0 0 0
111 1 10.655394684757459 8.715254511531235 1.4373837275168728 0 0 0
116 1 12.828861830930311 10.541755793843908 1.9484879450188295 0 0 0
307 1 12.30500450841587 8.586310924218877 3.745775912233761 0 0 0
113 1 13.068737018945338 8.657115112149341 9.964383172957373 0 0 -1
308 1 14.260057288183898 10.497802617651686 4.295629893908676 0 0 0
115 1 14.867304038144507 8.708035387001846 2.296048387057234 0 0 0
120 1 16.923043921701147 10.37612557810118 2.4943891285527986 0 0 0
309 1 16.386225695012122 8.50560279060479 4.519463978324319 0 0 0
114 1 15.270995695151234 10.299524510795802 0.21632365897573747 0 0 0
117 1 17.218175929762957 8.344821014699757 0.4919445041483829 0 0 0
119 1 18.871730391097305 8.559800880885165 2.7613243261193294 0 0 0
124 1 20.97691628465034 10.407868153132707 3.1627983956887826 0 0 0
118 1 19.254699147022777 10.398324300494043 0.9645413492831608 0 0 0
310 1 18.584466677608592 10.551114092327674 4.7002256179888136 0 0 0
121 1 21.088048308518832 8.373173806008111 1.1898954843914824 0 0 0
122 1 23.44638975258024 10.545899985366837 1.581475207740837 0 0 0
123 1 22.76339233443286 8.614412529511272 3.3458436859265785 0 0 0
128 1 24.771641781783273 10.333305134009088 3.9786157467278565 0 0 0
125 1 25.325964430266787 8.246858308857748 1.8362895932445236 0 0 0
127 1 27.06080783447366 8.555985212356655 4.201272450601641 0 0 0
129 1 27.224018929393836 10.548469672708867 2.21125558384786 0 0 0
565 1 27.731600714358407 8.100194949072334 0.24389581464360285 0 0 1
564 1 25.626891276816618 10.220252708834447 0.1793659262012915 0 0 1
80 1 29.279659191545786 8.35374020302677 2.7480342998283693 0 0 0
133 1 31.5492098142678 8.52707895000632 1.035943602366557 0 0 0
566 1 29.68986292927769 10.229404944823424 0.7919345114139431 0 0 1
136 1 31.26133676045181 10.435759340067744 3.1653862183810006 0 0 0
132 1 28.99833609554789 10.504934585999795 4.772636412009495 0 0 0
131 1 30.643499322815675 8.386596406199628 5.07030941951663 0 0 0
135 1 33.180210192074426 8.47946297493352 3.315321013452384 0 0 0
134 1 33.69019857769842 10.41125889990078 1.5004045422665309 0 0 0
140 1 35.242118383496674 10.431618932174858 3.760811106044448 0 0 0
137 1 35.72153780440339 8.323107075711762 1.8107421538604485 0 0 0
138 1 37.64595771979474 10.324793177022679 2.0727392072450335 0 0 0
139 1 37.3506473066806 8.528908055500848 4.196877877664431 0 0 0
141 1 38.16902205144731 8.48131105838391 0.08706622874550388 0 0 0
320 1 39.18510393436807 10.388981465952742 4.352590145332188 0 0 0
143 1 41.969845954587825 8.607917734306948 0.7425928107799172 0 0 0
144 1 41.70867722592312 10.437589138654111 2.6993342925674177 0 0 0
321 1 39.742398189156894 8.59040706259392 2.6220090850891618 0 0 0
322 1 41.271634226173035 8.361710206809542 4.781319886216555 0 0 0
191 1 40.284993125586745 10.529445945540994 0.6174852515897226 0 0 0
148 1 43.98486072151752 10.442313591071068 1.1861948241678506 0 0 0
323 1 43.836078278591586 8.371666028565532 2.943390760440504 0 0 0
147 1 46.076112004395604 8.42148712106717 0.9211439225727601 0 0 0
324 1 45.930943209782384 10.193033355075785 2.9438655219318353 0 0 0
449 1 43.36891484458819 10.466881332115637 4.6974623543526794 0 0 0
150 1 48.077283825335314 10.392548439868994 1.5698896470892816 0 0 0
325 1 47.84253998204074 8.55763014019667 3.595536011743388 0 0 0
3425 1 49.71225677607003 10.441595801414502 3.6809098941266662 0 0 0
153 1 2.6861656159265754 12.694270445128113 0.43177781242630814 0 0 0
451 1 1.7111622908016786 12.509424880253341 4.304783202091415 0 0 0
327 1 2.2231914607082897 14.44508473851049 2.3456498870790776 0 0 0
154 1 0.6129308853401817 14.504968480348174 0.11321334728106411 0 0 0
151 1 0.12774658520751134 12.629645407299806 2.1042886207735085 0 0 0
454 1 3.5841032094684913 14.730721387617857 4.885964706337921 0 0 0
158 1 4.755018199659532 14.607654490200083 0.8045359230864846 0 0 0
328 1 4.2660300249549525 12.56230014572796 2.5799209573745516 0 0 0
329 1 6.237121115135239 14.275505748575176 2.972613289876712 0 0 0
157 1 6.65775344672843 12.631956660235142 0.9293376236482941 0 0 0
453 1 5.555619489580407 12.68664963415388 4.870183978890223 0 0 0
162 1 8.71819001911673 14.323199388987648 1.4443956572349663 0 0 0
330 1 8.118932774477202 12.372110764571424 3.163398018390332 0 0 0
331 1 10.32493581227789 14.444396801693037 3.6699303417169507 0 0 0
161 1 10.836149895589045 12.541571533200223 1.6054094471294602 0 0 0
166 1 12.805705779130877 14.427290066203375 2.0285332275130212 0 0 0
332 1 12.321123809857923 12.464363633114434 3.9437888308452345 0 0 0
333 1 14.309572580881946 14.618928799101491 4.31478098035001 0 0 0
164 1 13.055566274749047 12.435747039952807 0.10562947483567127 0 0 0
165 1 14.77964301341059 12.301516100348914 2.3129610520287573 0 0 0
170 1 16.784614598749016 14.488821884829624 2.7247202945752584 0 0 0
334 1 16.24566572396327 12.399706364466654 4.601922177084332 0 0 0
167 1 17.284380146856805 12.304684783903268 0.6788233730414958 0 0 0
217 1 15.081203064216256 14.439635685955013 0.4962527737362412 0 0 0
169 1 18.815754745017536 12.383369346174783 3.065947555145786 0 0 0
174 1 20.931322826852686 14.430355920003814 3.4805154940592513 0 0 0
168 1 19.064867176217074 14.48681994655391 1.1288876029930464 0 0 0
171 1 21.06954377032958 12.432853067296929 1.4588192591781992 0 0 0
335 1 18.573453169295835 14.4613353560636 4.902042786016093 0 0 0
173 1 22.7789257246164 12.406684111155892 3.6631333220125137 0 0 0
175 1 23.192729267094833 14.422920877244364 1.8377205033096462 0 0 0
178 1 25.064389193105246 14.496035652564474 4.067531840544963 0 0 0
126 1 25.008331333516324 12.648483464558636 2.1638023298333966 0 0 0
177 1 26.823516402134302 12.27863784438202 4.294266492056149 0 0 0
179 1 27.106997981027327 14.30619388394484 2.5669497090356814 0 0 0
590 1 27.473810409263027 12.428438838487772 0.3910360097044565 0 0 1
227 1 26.79292040421234 16.409397153776187 4.14522583103539 0 0 0
130 1 29.142412738836292 12.34726057975907 2.619765403442032 0 0 0
591 1 29.452645736596754 14.410982168038371 0.8545887164809262 0 0 1
183 1 31.554883818972492 12.435682034873501 1.094099664315169 0 0 0
186 1 31.32342596061726 14.232626754050795 2.999691527996845 0 0 0
182 1 28.973296523473675 14.285135629069163 4.517378470548876 0 0 0
181 1 31.014258697422765 12.545300178597918 5.119098838830183 0 0 0
185 1 33.23395533218433 12.518763641021911 3.388501034091379 0 0 0
184 1 33.687295116966524 14.450126501427674 1.5326281009601033 0 0 0
190 1 35.53427168965398 14.530056415091211 3.607522591861807 0 0 0
187 1 35.5804136444139 12.43009433133361 1.9184182503610419 0 0 0
188 1 37.70314437861828 14.362194371468794 1.8137297587291255 0 0 0
344 1 37.295597147934615 12.383409036376294 4.096928625102568 0 0 0
594 1 38.075531419939786 12.40036934614526 0.24823945471791745 0 0 1
345 1 39.194729140963524 14.387703072114427 4.348786778456101 0 0 0
189 1 39.56274139431737 12.47184259250803 2.4253520211801836 0 0 0
346 1 41.22592767295629 12.291875619349437 4.6715985632677315 0 0 0
193 1 42.04348852690241 12.527413435922204 0.7498154238684662 0 0 0
194 1 41.57258313406679 14.219927095283952 2.8408337868020253 0 0 0
192 1 40.18065862753824 14.44818854662808 0.40719665072099687 0 0 0
198 1 44.07236136286904 14.392209934975398 1.3327470505360386 0 0 0
348 1 43.72058128439024 12.436965305307803 3.1824713980655157 0 0 0
197 1 46.05832932729979 12.211037008118979 1.2075488116290365 0 0 0
349 1 45.72104169134341 14.351317258849399 3.2707086929503526 0 0 0
347 1 43.203543365403874 14.347889553273914 5.05376243233088 0 0 0
200 1 47.82500916963267 14.560211062715009 1.4059177835938779 0 0 0
350 1 47.73984611953676 12.429776307410107 3.2725273084666147 0 0 0
476 1 1.5506798628295735 16.505172326422006 4.305043122550468 0 0 0
352 1 2.0549588294936743 18.659833483503753 2.449204528009557 0 0 0
203 1 2.5923807184421346 16.431541168487723 0.5552464851242461 0 0 0
204 1 0.502309290687425 18.570954786892056 0.25778039485690946 0 0 0
37 1 35.890313159155575 0.15321880284806544 1.6889503083306932 0 0 0
208 1 4.64524758290044 18.41070166058642 0.832060964255953 0 0 0
353 1 4.261698252529574 16.3504054478074 2.888163384353007 0 0 0
479 1 3.920774830990023 18.37220642550054 4.548868601324382 0 0 0
354 1 6.387500734650754 18.329706370161365 2.9561175389885923 0 0 0
207 1 6.8102656696618595 16.435299345556263 1.1434870652282543 0 0 0
478 1 6.0460704862868555 16.346732417326383 5.022610271400427 0 0 0
212 1 8.775122945601886 18.385131483805313 1.3679346070294962 0 0 0
355 1 8.305220977090826 16.308161122616774 3.5102323137776694 0 0 0
356 1 10.390617350114072 18.338564043817044 3.6838763203024425 0 0 0
211 1 10.763300113560215 16.486974349115556 1.7588131113313503 0 0 0
216 1 12.87095995298929 18.555535899389085 2.0562404986313068 0 0 0
357 1 12.46848432702279 16.481578852697446 4.0147878760652995 0 0 0
358 1 14.499747558729744 18.473488896355743 4.5296991167540295 0 0 0
215 1 14.758582546438294 16.49995641024974 2.6075649535607277 0 0 0
220 1 16.73262327944817 18.516684563736085 2.793653857306286 0 0 0
359 1 16.647256711554927 16.36861966400264 4.794653375687446 0 0 0
214 1 15.193275784213283 18.294416811375292 0.6155597866733888 0 0 0
218 1 17.178798142680694 16.627985321391723 0.8304769687933112 0 0 0
219 1 18.972364298043704 16.462780845262248 3.048191242195869 0 0 0
221 1 19.220906161112055 18.559377962570302 1.1661352189071863 0 0 0
224 1 20.97550053421894 18.49797153647719 3.4380600312288916 0 0 0
172 1 21.233911338688127 16.446148606783513 1.432922899149983 0 0 0
500 1 48.63360457188925 18.704292762882805 5.311522608959911 0 0 0
223 1 22.805582030660737 16.322361669061767 3.822806859570761 0 0 0
225 1 23.19362737024096 18.316845238198642 1.94419042302869 0 0 0
228 1 24.868024406685528 18.37718849147774 4.125092567027379 0 0 0
176 1 25.168474627892355 16.35449139767113 2.0374653333285213 0 0 0
226 1 27.208683655661776 18.41387949288472 2.384122994447294 0 0 0
615 1 27.53208313465198 16.430715376356858 0.5904905164104574 0 0 1
614 1 25.431151719394457 18.47260519240119 0.27664716006504786 0 0 1
180 1 31.659150678188062 16.291343077256116 1.02050792591223 0 0 0
229 1 29.07488388244735 16.19523019257479 2.6669473536284967 0 0 0
233 1 29.901471105183703 18.362032464138004 1.0506462521828885 0 0 0
232 1 28.853258672982246 18.37687086643995 4.558136569109229 0 0 0
234 2 32.369362052647965 18.335409862792904 2.115631304184044 0 0 0
235 1 33.26960804881545 16.39300250124235 3.2091784702816333 0 0 0
240 1 34.953800010033774 18.317819330319754 3.091663742301373 0 0 0
237 1 35.62202958954298 16.261657893802575 1.6400519742546633 0 0 0
236 1 32.499809068593564 18.210469798900238 4.906188314010242 0 0 0
238 1 37.31971210989932 18.441623787222042 1.9643225836397125 0 0 0
239 1 37.44541443758788 16.24885002841702 3.9611449309250153 0 0 0
370 1 39.015568232139614 18.454920416460926 4.293962956731275 0 0 0
618 1 35.584372588126406 18.438076100231907 9.85162923878536 0 0 0
241 1 37.99681089427765 16.34285771365604 0.06105817132592388 0 0 0
371 1 41.25846549968704 16.293846946017997 4.521949498496689 0 0 0
243 1 41.96647607527901 16.532043858474605 1.7224393214712983 0 0 0
244 1 39.62178217569763 16.749198637339507 2.0806248959245752 0 0 0
372 1 42.16365156386135 18.766992293245238 3.9548212302318704 0 0 0
242 1 41.59166045237139 18.385087481603243 0.18622916106171278 0 0 0
248 1 43.97213800815732 18.498889909419134 1.778506185412968 0 0 0
373 1 43.88181674440379 16.60428982878393 3.74323217772709 0 0 0
247 1 46.133442125024736 16.541070908069987 1.326430797901502 0 0 0
374 1 46.282411773612516 18.568628352178408 3.306776684145431 0 0 0
250 1 48.22378232221488 18.506190987192454 1.1300025634047608 0 0 0
375 1 47.90609047809268 16.63289831071901 3.4778719351309406 0 0 0
351 1 0.23034518920432978 16.605190823701456 2.04415337468465 0 0 0
377 1 1.4579027351370484 2.6913744070972885 6.0251271346063655 0 0 0
502 1 3.215940493329574 2.6263186287814264 8.02947378366954 0 0 0
3102 1 3.030231534419663 0.5038441860238562 9.518690974647942 0 1 0
624 1 47.16598239151797 18.756729163799033 7.670618134258044 0 0 0
251 1 3.6750276627993426 0.4184473865693957 5.87455085972767 0 0 0
379 1 5.7141566376707775 2.421151494025318 6.3291693965407685 0 0 0
503 1 5.345217919487546 0.6601215795896511 8.03871031570143 0 0 0
504 1 7.310925076978759 2.6671574437522145 8.50295225711402 0 0 0
380 1 9.956691950677394 0.5551661607208473 4.9681705067226964 0 0 0
9 1 9.006152708823327 0.6285190149189822 8.85816454695459 0 0 -1
505 1 7.551615526592872 0.5561084342343595 6.502909027334973 0 0 0
506 1 9.611038901973044 2.6350708196868275 6.858244501256811 0 0 0
10 1 10.973111182000888 2.7222897517586757 9.224127398811374 0 0 -1
13 1 13.085778658911797 0.6702648050573276 9.754561852630204 0 0 -1
383 1 12.178836341393726 2.6022942785661254 5.376258621291005 0 0 0
507 1 11.444115904734312 0.4972891739533563 7.257761403723506 0 0 0
508 1 13.54020203972903 2.4858049133809907 7.824502713605718 0 0 0
382 1 13.859717155458432 0.5225741408793764 5.837918661691584 0 0 0
385 1 15.941588842216971 2.168904140244222 6.244170324367791 0 0 0
509 1 15.603416332253516 0.4067304831510404 8.399822622063846 0 0 0
510 1 17.43806173581113 2.3977943949815854 8.606555530540478 0 0 0
384 1 18.09237890137836 0.3986842466828907 6.540381396171536 0 0 0
261 1 20.459563727895777 0.4988646346505622 4.811527625839063 0 0 0
387 1 19.92914668834884 2.5118673059254597 7.13464620342101 0 0 0
511 1 19.667981796883378 0.6070662507382418 8.932077139457613 0 0 0
512 1 21.701094094577208 2.4361108750171985 9.353517671424513 0 0 0
262 1 22.14450992773945 2.3654146299192953 5.616914832222214 0 0 0
263 1 24.464932241439605 0.496648103275742 5.7256280651747415 0 0 0
386 1 22.115863759884178 0.41543476607334856 7.3506049791566355 0 0 0
389 1 24.029830827709443 2.673860451437839 7.511875312602446 0 0 0
513 1 23.581685205932732 0.48264994499830705 9.610572861756848 0 0 0
514 1 25.444851786752718 2.3561253628869037 9.965164625358437 0 0 0
264 1 26.399593624980827 2.375371718669588 6.008418231135054 0 0 0
388 1 25.82304636247194 0.4205023896400021 7.803175114546187 0 0 0
391 1 27.971692506672078 2.316969122989543 8.214488356652243 0 0 0
265 1 28.3424504653018 0.5247494845943591 6.5024237338493025 0 0 0
31 1 30.915681881309958 0.3463437424066754 4.918071120185692 0 0 0
266 1 30.397763424224046 2.2372684973500663 6.62854561284386 0 0 0
390 1 29.94141461873888 0.2808829672213696 8.819453475605275 0 0 0
393 1 32.15292642800649 2.6340300671020347 9.061711387085357 0 0 0
36 1 32.705270843030384 2.4663982445504455 5.200821868178642 0 0 0
267 1 32.497115636969845 0.43314205075137385 7.270771445756788 0 0 0
3118 1 34.05630972373433 0.2575197595415012 9.326734007515455 0 1 0
268 1 34.553492243399674 2.4097905479653776 7.6150647164774306 0 0 0
35 1 34.82480954684956 0.2820518472907628 5.4187343888581525 0 0 0
518 1 36.06847453796946 2.406848541326688 9.933081277754406 0 0 0
392 1 36.485990026798916 0.4036732788558227 7.687955178344373 0 0 0
395 1 37.03095122260734 2.4060077420165946 5.716089141122051 0 0 0
520 1 38.400479593171 2.207491468990398 8.071155023969247 0 0 0
394 1 39.1223857696289 0.33829957311089737 6.136950443833995 0 0 0
397 1 41.124678766948186 2.1718649234355736 6.433183753150008 0 0 0
41 1 40.37322012890015 0.5855980385345315 8.507745044279995 0 0 -1
42 1 42.62632755103244 2.504800914223037 8.837067512806108 0 0 -1
396 1 42.99396304717088 0.3994319384017809 6.89897097171616 0 0 0
525 1 45.330836039022486 0.6387982734812913 5.4183490546580915 0 0 0
45 1 44.388184696217 0.40637794086794493 9.0429250191077 0 0 -1
522 1 44.85604217735334 2.5320679360924694 7.165456650517845 0 0 0
46 1 46.47846483868253 2.4457569199572085 9.503026600510747 0 0 -1
47 1 48.35449132486737 0.4755171642854388 9.66930649931846 0 0 -1
49 1 49.20267798486301 0.4107366415576808 6.033131589425493 0 0 -1
400 1 47.40644480623742 2.4163580069082125 5.657729909672133 0 0 0
524 1 48.77029907691331 2.4022058785882066 7.853925841761697 0 0 0
401 1 1.30765006969465 6.393940977354223 6.179327402422172 0 0 0
526 1 0.8974677239562463 4.599365435545965 7.817148048487498 0 0 0
527 1 2.853576483512921 6.752686927505576 8.323228743984906 0 0 0
528 1 3.58949518523355 4.560499571712188 6.3041316538689856 0 0 0
56 1 5.30223750074921 4.459569722436629 8.569446604723664 0 0 -1
529 1 5.342935368101992 6.53457285094725 6.665626358591456 0 0 0
109 1 7.1368229417268605 6.539304415449919 8.7828307167071 0 0 -1
530 1 7.714880776879968 4.65754677663777 6.83187473107109 0 0 0
59 1 9.052502434172647 4.683844554722986 9.053721880340259 0 0 -1
405 1 10.081559611204435 4.736862860144629 5.066813706568227 0 0 0
531 1 9.526189477898177 6.675924045827014 7.345758837086479 0 0 0
63 1 12.898549227425217 4.437840624188249 9.806447830760066 0 0 -1
60 1 11.124032542797872 6.716664577612974 9.507897412026182 0 0 -1
408 1 11.89490351390182 6.580555391846468 5.640149276908712 0 0 0
532 1 11.36047676955419 4.6769330461197764 7.443050984385158 0 0 0
533 1 13.517391928364347 6.682724757367912 7.854212189695356 0 0 0
407 1 13.848318549646612 4.460438106172301 5.887960792586313 0 0 0
410 1 15.906821549245787 6.461884789287446 6.585480694438234 0 0 0
534 1 15.426187691897617 4.346269255137552 8.135509213936105 0 0 0
535 1 17.57167744882746 6.330757826914293 8.721228470767697 0 0 0
409 1 17.764953707957517 4.189362076447663 6.531190799115053 0 0 0
286 1 20.23063557059591 4.391228058524976 5.0133999695639755 0 0 0
412 1 20.05271058308162 6.319599006335194 6.969244917532686 0 0 0
536 1 19.458594518763352 4.373507271436122 9.064811171226681 0 0 0
537 1 21.647570119350828 6.425033659139989 9.254412989507538 0 0 0
288 1 24.309870180692364 4.534041223202895 5.812902869516949 0 0 0
538 1 23.631227665662124 4.459487332908637 9.748313892313806 0 0 0
287 1 22.29539372557733 6.46291967443206 5.290219382572688 0 0 0
411 1 22.02887185735699 4.471602876503359 7.38388798511163 0 0 0
414 1 24.119646872396736 6.464159213610435 7.6559568667637885 0 0 0
289 1 26.5799185297811 6.5071901199015345 6.055113166403185 0 0 0
413 1 25.95616475753533 4.195237147280618 7.968725840212174 0 0 0
416 1 28.080485533204467 6.258836602271696 8.329828636237313 0 0 0
290 1 28.44659877929172 4.420276937284675 6.399607824788864 0 0 0
291 1 30.377043396025375 6.391715965952782 6.869789208858032 0 0 0
415 1 29.986812980878078 4.263555972198163 8.86899514354411 0 0 0
418 1 32.081185865818576 6.380265182377707 9.003631615217962 0 0 0
293 1 32.70012041636625 6.512725952757112 5.061498973594524 0 0 0
292 1 32.52877444676167 4.266346698040404 6.873872458691976 0 0 0
542 1 34.22747160798727 4.49143580457998 9.43140427389565 0 0 0
417 1 34.513026045073 6.543042583833929 7.3562321753384445 0 0 0
294 1 34.74764685005414 4.316999001233919 5.504992231611978 0 0 0
91 1 38.09570583316972 4.505620959553243 0.14905105213700232 0 0 0
543 1 36.02911717868656 6.548877701595189 9.740446879560585 0 0 0
544 1 36.47298238950112 4.33731135765509 7.850634484731049 0 0 0
420 1 36.71640126547257 6.3996527588743 5.926209826358709 0 0 0
545 1 38.32673973235105 6.329303586624357 8.126175718006365 0 0 0
419 1 38.942530772850944 4.438082556591388 6.139830923291799 0 0 0
422 1 41.030190133426274 6.466351754243143 6.554190851668936 0 0 0
546 1 40.479488351513055 4.2484617472247335 8.347797224925037 0 0 0
92 1 42.54454991124849 6.535663269616798 8.772896866200623 0 0 -1
547 1 42.804141520318254 4.558569892675112 6.910601138027477 0 0 0
423 1 45.40507437315605 4.446237431528807 5.265460264256142 0 0 0
95 1 44.422373735362214 4.488270012761981 9.185638397955826 0 0 -1
573 1 44.81754048734185 6.36496200982472 7.084173500451838 0 0 0
96 1 46.43084682522177 6.450450395689524 9.229279743482586 0 0 -1
99 1 48.58266769312788 4.417864427158862 9.37103363685119 0 0 -1
548 1 46.80426161834073 4.4759705160335095 7.437237560058839 0 0 0
550 1 49.26071101597496 4.403671395167596 5.828705779283493 0 0 0
549 1 47.42012375106562 6.5542975352777235 5.269422335488651 0 0 0
3175 1 48.827843840378726 6.364590410202003 7.629099491621621 0 0 -1
402 1 0.8318146185585324 8.420372030240063 8.137578160511628 0 0 0