LAMMPS data file via write_data, version 22 Dec 2022, timestep = 10

8 atoms
2 atom types

3.049349993192212e-09 4.079999996950651 xlo xhi
3.049349993192212e-09 4.079999996950651 ylo yhi
3.049349993192212e-09 4.079999996950651 zlo zhi

Masses

1 58.69
2 12.011

Atoms # atomic

1 1 3.049350058258892e-09 3.049350058020321e-09 3.049350058264118e-09 0 0 0
7 2 3.04935007684625e-09 3.0493500767920864e-09 2.0400000000000005 0 0 0
8 2 3.0493500808329837e-09 2.0400000000000005 3.0493500767971025e-09 0 0 0
2 1 3.0493500581377847e-09 2.0400000000000005 2.0400000000000005 0 0 0
5 2 2.0400000000000005 3.0493500806525135e-09 3.0493500766726382e-09 0 0 0
3 1 2.0400000000000005 3.0493500579525484e-09 2.0400000000000005 0 0 0
4 1 2.0400000000000005 2.0400000000000005 3.049350063307485e-09 0 0 0
6 2 2.0400000000000005 2.0400000000000005 2.0400000000000005 0 0 0

Velocities

1 0 0 0
7 0 0 0
8 0 0 0
2 0 0 0
5 0 0 0
3 0 0 0
4 0 0 0
6 0 0 0
