LAMMPS (22 Dec 2022)
  using 1 OpenMP thread(s) per MPI task
Loaded 1 plugins from C:\Program Files\LAMMPS 64-bit 23Jun2022\plugins
Loaded 0 plugins from C:\Program Files\LAMMPS 64-bit 23Jun2022-MPI\plugins
Loaded 1 plugins from C:\Program Files\LAMMPS 64-bit 22Dec2022-MSMPI\plugins
Loaded 1 plugins from C:\Program Files\LAMMPS 64-bit 28Mar2023-MPI\plugins
# Compute elastic constant tensor for a crystal
#
# Written by Aidan Thompson (Sandia, athomps@sandia.gov)
#
#  This script uses the following three include files.
#
#   init.mod      (must be modified for different crystal structures)
# 	       	  Define units, deformation parameters and initial
#		  configuration of the atoms and simulation cell.
#
#
#   potential.mod    (must be modified for different pair styles)
# 		     Define pair style and other attributes
#		     not stored in restart file
#
#
#   displace.mod    (displace.mod should not need to be modified)
# 		    Perform positive and negative box displacements
# 		    in direction ${dir} and size ${up}.
# 		    It uses the resultant changes
#		    in stress to compute one
# 		    row of the elastic stiffness tensor
#
#		    Inputs variables:
#		    	   dir = the Voigt deformation component
#		    		    (1,2,3,4,5,6)
#		    Global constants:
#       	    	   up = the deformation magnitude (strain units)
#       		   cfac = conversion from LAMMPS pressure units to
#               	   output units for elastic constants
#
#
#  To run this on a different system, it should only be necessary to
#  modify the files init.mod and potential.mod. In order to calculate
#  the elastic constants correctly, care must be taken to specify
#  the correct units in init.mod (units, cfac and cunits). It is also
#  important to verify that the minimization of energy w.r.t atom
#  positions in the deformed cell is fully converged.
#  One indication of this is that the elastic constants are insensitive
#  to the choice of the variable ${up} in init.mod. Another is to check
#  the final max and two-norm forces reported in the log file. If you know
#  that minimization is not required, you can set maxiter = 0.0 in
#  init.mod.
#

include init.mod
# NOTE: This script can be modified for different atomic structures,
# units, etc. See in.elastic for more info.
#

# Define the finite deformation size. Try several values of this
# variable to verify that results do not depend on it.
variable up equal 1.0e-6

# Define the amount of random jiggle for atoms
# This prevents atoms from staying on saddle points
variable atomjiggle equal 1.0e-5

# Uncomment one of these blocks, depending on what units
# you are using in LAMMPS and for output

# metal units, elastic constants in eV/A^3
#units		metal
#variable cfac equal 6.2414e-7
#variable cunits string eV/A^3

# metal units, elastic constants in GPa
units		metal
variable cfac equal 1.0e-4
variable cunits string GPa

# real units, elastic constants in GPa
#units		real
#variable cfac equal 1.01325e-4
#variable cunits string GPa

# Define minimization parameters
variable etol equal 0.0
variable ftol equal 1.0e-10
variable maxiter equal 1000
variable maxeval equal 100000
variable dmax equal 1.0e-2

# generate the box and atom positions using a diamond lattice

dimension    3
boundary     p p p
read_data    data.in
Reading data file ...
  orthogonal box = (3.04935e-09 3.04935e-09 3.04935e-09) to (4.08 4.08 4.08)
  1 by 2 by 2 MPI processor grid
  reading atoms ...
  8 atoms
  reading velocities ...
  8 velocities
  read_data CPU = 0.001 seconds
#replicate    2 3 4
replicate    2 3 4
Replication is creating a 2x3x4 = 24 times larger system...
  orthogonal box = (3.04935e-09 3.04935e-09 3.04935e-09) to (8.16 12.24 16.32)
  1 by 2 by 2 MPI processor grid
  192 atoms
  replicate CPU = 0.000 seconds
change_box   all triclinic
Changing box ...
  triclinic box = (3.04935e-09 3.04935e-09 3.04935e-09) to (8.16 12.24 16.32) with tilt (0 0 0)

# Need to set mass to something, just to satisfy LAMMPS
mass 1 1.0e-20

include potential.mod
# NOTE: This script can be modified for different pair styles
# See in.elastic for more info.

# Choose potential
#-----------------------
#pair_style	sw
#pair_coeff * * Si.sw Si
#-----------------------
#pair_style morse	2.83994742	# D0[eV] a[1/A] r0[A] rc[A], 1NN for BCC
#pair_coeff 1 1	2.1173	1.0202	2.4595	2.6497	#	Fe-Fe
#-----------------------
#pair_style smatb # R0(A)   p       q     A(eV)   xi(eV)  Rcs(A)   Rc(A), 4NN: Rcs=4NN, Rc=(4NN+5NN)/2
#pair_coeff 1 1	2.4802	7.0149	2.3779	0.3144	3.0551	4.033	4.176	#	Co	Co
#-----------------------
#pair_style eam/alloy
#pair_coeff * * AlCrFeCoNi_Zhou04.eam.alloy Fe
#-----------------------
pair_style meam
pair_coeff * * ./../../library.meam Ni C ./../../NiC.meam Ni C
#-----------------------

# Setup neighbor style
neighbor 1.0 nsq
neigh_modify once no every 1 delay 0 check yes

# Setup minimization style
min_style	     cg
min_modify	     dmax ${dmax} line quadratic
min_modify	     dmax 0.01 line quadratic

# Setup output
thermo		1
thermo_style custom step temp pe press pxx pyy pzz pxy pxz pyz lx ly lz vol
thermo_modify norm no

# Compute initial state
fix 3 all box/relax  aniso 0.0
minimize ${etol} ${ftol} ${maxiter} ${maxeval}
minimize 0 ${ftol} ${maxiter} ${maxeval}
minimize 0 1e-10 ${maxiter} ${maxeval}
minimize 0 1e-10 1000 ${maxeval}
minimize 0 1e-10 1000 100000
Neighbor list info ...
  update: every = 1 steps, delay = 0 steps, check = yes
  max neighbors/atom: 2000, page size: 100000
  master list distance cutoff = 5
  ghost atom cutoff = 5
  2 neighbor lists, perpetual/occasional/extra = 2 0 0
  (1) pair meam, perpetual
      attributes: full, newton on
      pair build: full/nsq
      stencil: none
      bin: none
  (2) pair meam, perpetual, half/full from (1)
      attributes: half, newton on
      pair build: halffull/newton
      stencil: none
      bin: none
Per MPI rank memory allocation (min/avg/max) = 9.886 | 9.901 | 9.916 Mbytes
   Step          Temp          PotEng         Press           Pxx            Pyy            Pzz            Pxy            Pxz            Pyz             Lx             Ly             Lz           Volume    
         0   0             -949.2096      -3.7121445e-11  4.0299307e-10 -1.6529339e-10 -3.4906402e-10 -2.2796406e-25 -8.2578819e-26 -5.8929486e-26  8.16           12.24          16.32          1630.0155    
         1   0             -949.2096      -1.2316305e-10 -9.6615934e-11 -1.0017781e-11 -2.6285545e-10 -1.9481623e-25  4.7143589e-25  6.6993521e-25  8.16           12.24          16.32          1630.0155    
Loop time of 0.000784 on 4 procs for 1 steps with 192 atoms

0.0% CPU use with 4 MPI tasks x 1 OpenMP threads

Minimization stats:
  Stopping criterion = force tolerance
  Energy initial, next-to-last, final = 
     -949.209600033465  -949.209600033465  -949.209600033464
  Force two-norm initial, final = 6.568222e-13 6.4485481e-13
  Force max component initial, final = 4.0999537e-13 2.6742275e-13
  Final line search alpha, max atom move = 1 2.6742275e-13
  Iterations, force evaluations = 1 2

MPI task timing breakdown:
Section |  min time  |  avg time  |  max time  |%varavg| %total
---------------------------------------------------------------
Pair    | 0.000567   | 0.0005865  | 0.000606   |   0.0 | 74.81
Neigh   | 0          | 0          | 0          |   0.0 |  0.00
Comm    | 7.6e-05    | 9.4e-05    | 0.000112   |   0.0 | 11.99
Output  | 0          | 0          | 0          |   0.0 |  0.00
Modify  | 0          | 0          | 0          |   0.0 |  0.00
Other   |            | 0.0001035  |            |       | 13.20

Nlocal:             48 ave          64 max          32 min
Histogram: 2 0 0 0 0 0 0 0 0 2
Nghost:            600 ave         616 max         584 min
Histogram: 2 0 0 0 0 0 0 0 0 2
Neighs:           1920 ave        2560 max        1280 min
Histogram: 2 0 0 0 0 0 0 0 0 2
FullNghs:         3840 ave        5120 max        2560 min
Histogram: 2 0 0 0 0 0 0 0 0 2

Total # of neighbors = 15360
Ave neighs/atom = 80
Neighbor list builds = 0
Dangerous builds = 0

variable tmp equal pxx
variable pxx0 equal ${tmp}
variable pxx0 equal -9.66159335235315e-11
variable tmp equal pyy
variable pyy0 equal ${tmp}
variable pyy0 equal -1.00177811257118e-11
variable tmp equal pzz
variable pzz0 equal ${tmp}
variable pzz0 equal -2.62855445870753e-10
variable tmp equal pyz
variable pyz0 equal ${tmp}
variable pyz0 equal 6.69935211101055e-25
variable tmp equal pxz
variable pxz0 equal ${tmp}
variable pxz0 equal 4.71435889293335e-25
variable tmp equal pxy
variable pxy0 equal ${tmp}
variable pxy0 equal -1.94816228922616e-25

variable tmp equal lx
variable lx0 equal ${tmp}
variable lx0 equal 8.1599999878026
variable tmp equal ly
variable ly0 equal ${tmp}
variable ly0 equal 12.2399999817039
variable tmp equal lz
variable lz0 equal ${tmp}
variable lz0 equal 16.3199999756052

# These formulas define the derivatives w.r.t. strain components
# Constants uses $, variables use v_
variable d1 equal -(v_pxx1-${pxx0})/(v_delta/v_len0)*${cfac}
variable d1 equal -(v_pxx1--9.66159335235315e-11)/(v_delta/v_len0)*${cfac}
variable d1 equal -(v_pxx1--9.66159335235315e-11)/(v_delta/v_len0)*0.0001
variable d2 equal -(v_pyy1-${pyy0})/(v_delta/v_len0)*${cfac}
variable d2 equal -(v_pyy1--1.00177811257118e-11)/(v_delta/v_len0)*${cfac}
variable d2 equal -(v_pyy1--1.00177811257118e-11)/(v_delta/v_len0)*0.0001
variable d3 equal -(v_pzz1-${pzz0})/(v_delta/v_len0)*${cfac}
variable d3 equal -(v_pzz1--2.62855445870753e-10)/(v_delta/v_len0)*${cfac}
variable d3 equal -(v_pzz1--2.62855445870753e-10)/(v_delta/v_len0)*0.0001
variable d4 equal -(v_pyz1-${pyz0})/(v_delta/v_len0)*${cfac}
variable d4 equal -(v_pyz1-6.69935211101055e-25)/(v_delta/v_len0)*${cfac}
variable d4 equal -(v_pyz1-6.69935211101055e-25)/(v_delta/v_len0)*0.0001
variable d5 equal -(v_pxz1-${pxz0})/(v_delta/v_len0)*${cfac}
variable d5 equal -(v_pxz1-4.71435889293335e-25)/(v_delta/v_len0)*${cfac}
variable d5 equal -(v_pxz1-4.71435889293335e-25)/(v_delta/v_len0)*0.0001
variable d6 equal -(v_pxy1-${pxy0})/(v_delta/v_len0)*${cfac}
variable d6 equal -(v_pxy1--1.94816228922616e-25)/(v_delta/v_len0)*${cfac}
variable d6 equal -(v_pxy1--1.94816228922616e-25)/(v_delta/v_len0)*0.0001

displace_atoms all random ${atomjiggle} ${atomjiggle} ${atomjiggle} 87287 units box
displace_atoms all random 1e-05 ${atomjiggle} ${atomjiggle} 87287 units box
displace_atoms all random 1e-05 1e-05 ${atomjiggle} 87287 units box
displace_atoms all random 1e-05 1e-05 1e-05 87287 units box
Displacing atoms ...

# Write restart
unfix 3
write_restart restart.equil
System init for write_restart ...

# uxx Perturbation

variable dir equal 1
include displace.mod
# NOTE: This script should not need to be
# modified. See in.elastic for more info.
#
# Find which reference length to use

if "${dir} == 1" then    "variable len0 equal ${lx0}"
variable len0 equal ${lx0}
variable len0 equal 8.1599999878026
if "${dir} == 2" then    "variable len0 equal ${ly0}"
if "${dir} == 3" then    "variable len0 equal ${lz0}"
if "${dir} == 4" then    "variable len0 equal ${lz0}"
if "${dir} == 5" then    "variable len0 equal ${lz0}"
if "${dir} == 6" then    "variable len0 equal ${ly0}"

# Reset box and simulation parameters

clear
  using 1 OpenMP thread(s) per MPI task
Loaded 1 plugins from C:\Program Files\LAMMPS 64-bit 23Jun2022\plugins
Loaded 0 plugins from C:\Program Files\LAMMPS 64-bit 23Jun2022-MPI\plugins
Loaded 1 plugins from C:\Program Files\LAMMPS 64-bit 22Dec2022-MSMPI\plugins
Loaded 1 plugins from C:\Program Files\LAMMPS 64-bit 28Mar2023-MPI\plugins
box tilt large

The 'box' command has been removed and will be ignored

read_restart restart.equil
Reading restart file ...
  restart file = 22 Dec 2022, LAMMPS = 22 Dec 2022
  restoring atom style atomic from restart
  triclinic box = (3.0493495e-09 3.0493503e-09 3.0493508e-09) to (8.16 12.24 16.32) with tilt (0 0 0)
  1 by 2 by 2 MPI processor grid
  pair style meam stores no restart info
  192 atoms
  read_restart CPU = 0.000 seconds
include potential.mod
# NOTE: This script can be modified for different pair styles
# See in.elastic for more info.

# Choose potential
#-----------------------
#pair_style	sw
#pair_coeff * * Si.sw Si
#-----------------------
#pair_style morse	2.83994742	# D0[eV] a[1/A] r0[A] rc[A], 1NN for BCC
#pair_coeff 1 1	2.1173	1.0202	2.4595	2.6497	#	Fe-Fe
#-----------------------
#pair_style smatb # R0(A)   p       q     A(eV)   xi(eV)  Rcs(A)   Rc(A), 4NN: Rcs=4NN, Rc=(4NN+5NN)/2
#pair_coeff 1 1	2.4802	7.0149	2.3779	0.3144	3.0551	4.033	4.176	#	Co	Co
#-----------------------
#pair_style eam/alloy
#pair_coeff * * AlCrFeCoNi_Zhou04.eam.alloy Fe
#-----------------------
pair_style meam
pair_coeff * * ./../../library.meam Ni C ./../../NiC.meam Ni C
#-----------------------

# Setup neighbor style
neighbor 1.0 nsq
neigh_modify once no every 1 delay 0 check yes

# Setup minimization style
min_style	     cg
min_modify	     dmax ${dmax} line quadratic
min_modify	     dmax 0.01 line quadratic

# Setup output
thermo		1
thermo_style custom step temp pe press pxx pyy pzz pxy pxz pyz lx ly lz vol
thermo_modify norm no

# Negative deformation

variable delta equal -${up}*${len0}
variable delta equal -1e-06*${len0}
variable delta equal -1e-06*8.1599999878026
variable deltaxy equal -${up}*xy
variable deltaxy equal -1e-06*xy
variable deltaxz equal -${up}*xz
variable deltaxz equal -1e-06*xz
variable deltayz equal -${up}*yz
variable deltayz equal -1e-06*yz
if "${dir} == 1" then    "change_box all x delta 0 ${delta} xy delta ${deltaxy} xz delta ${deltaxz} remap units box"
change_box all x delta 0 ${delta} xy delta ${deltaxy} xz delta ${deltaxz} remap units box
change_box all x delta 0 -8.1599999878026e-06 xy delta ${deltaxy} xz delta ${deltaxz} remap units box
change_box all x delta 0 -8.1599999878026e-06 xy delta -0 xz delta ${deltaxz} remap units box
change_box all x delta 0 -8.1599999878026e-06 xy delta -0 xz delta -0 remap units box
Changing box ...
  triclinic box = (3.0493495e-09 3.0493503e-09 3.0493508e-09) to (8.1599918 12.24 16.32) with tilt (0 0 0)
  triclinic box = (3.0493495e-09 3.0493503e-09 3.0493508e-09) to (8.1599918 12.24 16.32) with tilt (0 0 0)
  triclinic box = (3.0493495e-09 3.0493503e-09 3.0493508e-09) to (8.1599918 12.24 16.32) with tilt (0 0 0)
if "${dir} == 2" then    "change_box all y delta 0 ${delta} yz delta ${deltayz} remap units box"
if "${dir} == 3" then    "change_box all z delta 0 ${delta} remap units box"
if "${dir} == 4" then    "change_box all yz delta ${delta} remap units box"
if "${dir} == 5" then    "change_box all xz delta ${delta} remap units box"
if "${dir} == 6" then    "change_box all xy delta ${delta} remap units box"

# Relax atoms positions

minimize ${etol} ${ftol} ${maxiter} ${maxeval}
minimize 0 ${ftol} ${maxiter} ${maxeval}
minimize 0 1e-10 ${maxiter} ${maxeval}
minimize 0 1e-10 1000 ${maxeval}
minimize 0 1e-10 1000 100000
Neighbor list info ...
  update: every = 1 steps, delay = 0 steps, check = yes
  max neighbors/atom: 2000, page size: 100000
  master list distance cutoff = 5
  ghost atom cutoff = 5
  2 neighbor lists, perpetual/occasional/extra = 2 0 0
  (1) pair meam, perpetual
      attributes: full, newton on
      pair build: full/nsq
      stencil: none
      bin: none
  (2) pair meam, perpetual, half/full from (1)
      attributes: half, newton on
      pair build: halffull/newton
      stencil: none
      bin: none
Per MPI rank memory allocation (min/avg/max) = 9.874 | 9.882 | 9.886 Mbytes
   Step          Temp          PotEng         Press           Pxx            Pyy            Pzz            Pxy            Pxz            Pyz             Lx             Ly             Lz           Volume    
         1   0             -949.2096       2.5111681      5.4528978      1.040267       1.0403394     -1.6679248e-05  2.6460689e-05 -1.5308362e-06  8.1599918      12.24          16.32          1630.0139    
         2   0             -949.2096       2.5105134      5.4522377      1.039649       1.0396536     -7.8971117e-07 -1.9866713e-06 -1.1725383e-06  8.1599918      12.24          16.32          1630.0139    
         3   0             -949.2096       2.5104513      5.4521386      1.0396078      1.0396077     -1.4535285e-08  3.5841238e-07 -4.520222e-07   8.1599918      12.24          16.32          1630.0139    
         4   0             -949.2096       2.5104399      5.452134       1.0395901      1.0395956      1.2092433e-07 -7.2369397e-08 -3.0525518e-07  8.1599918      12.24          16.32          1630.0139    
         5   0             -949.2096       2.5104374      5.4521339      1.0395879      1.0395902      2.1145838e-07  4.7408122e-07  3.2906738e-07  8.1599918      12.24          16.32          1630.0139    
         6   0             -949.2096       2.5104368      5.452134       1.039588       1.0395884     -1.2943949e-07 -1.3438671e-07  7.7084454e-08  8.1599918      12.24          16.32          1630.0139    
         7   0             -949.2096       2.5104369      5.4521339      1.0395887      1.039588      -3.8257518e-08  7.7324848e-08  8.2606185e-09  8.1599918      12.24          16.32          1630.0139    
         8   0             -949.2096       2.510437       5.4521344      1.0395886      1.0395882     -2.2855606e-08 -6.6604021e-08 -7.7683118e-10  8.1599918      12.24          16.32          1630.0139    
         9   0             -949.2096       2.5104372      5.4521345      1.0395887      1.0395885      6.3734479e-09  4.624359e-08   1.0926148e-08  8.1599918      12.24          16.32          1630.0139    
        10   0             -949.2096       2.5104373      5.4521346      1.0395888      1.0395885     -1.2014702e-09  4.8982868e-09 -2.0824548e-08  8.1599918      12.24          16.32          1630.0139    
        11   0             -949.2096       2.5104374      5.4521348      1.0395889      1.0395886      2.5364906e-09  4.2300743e-09 -9.3171702e-09  8.1599918      12.24          16.32          1630.0139    
        12   0             -949.2096       2.5104375      5.4521349      1.0395889      1.0395886      3.9811923e-09 -4.4666637e-09 -7.1122625e-09  8.1599918      12.24          16.32          1630.0139    
        13   0             -949.2096       2.5104375      5.4521349      1.039589       1.0395887      1.2410434e-09 -3.1709309e-09  1.0125476e-09  8.1599918      12.24          16.32          1630.0139    
        14   0             -949.2096       2.5104376      5.452135       1.039589       1.0395887      2.7087799e-10  1.0561351e-09  5.8129247e-09  8.1599918      12.24          16.32          1630.0139    
        15   0             -949.2096       2.5104376      5.452135       1.039589       1.0395888      2.8528531e-09 -3.2355439e-10  6.0726298e-09  8.1599918      12.24          16.32          1630.0139    
        16   0             -949.2096       2.5104376      5.452135       1.039589       1.0395888      3.6576015e-09 -1.5017529e-09  5.1573841e-09  8.1599918      12.24          16.32          1630.0139    
        17   0             -949.2096       2.5104376      5.452135       1.039589       1.0395888      3.3410914e-09 -1.6178699e-09  1.8935408e-10  8.1599918      12.24          16.32          1630.0139    
        18   0             -949.2096       2.5104376      5.4521351      1.039589       1.0395888      3.3950287e-09 -6.0412024e-10 -1.257572e-10   8.1599918      12.24          16.32          1630.0139    
        19   0             -949.2096       2.5104377      5.4521351      1.039589       1.0395888      3.1079811e-09 -6.6091843e-10 -1.0269831e-10  8.1599918      12.24          16.32          1630.0139    
        20   0             -949.2096       2.5104377      5.4521351      1.0395891      1.0395889      2.8655189e-09 -3.3742651e-10 -2.4862669e-10  8.1599918      12.24          16.32          1630.0139    
        21   0             -949.2096       2.5104377      5.4521351      1.0395891      1.0395889      2.8926539e-09 -4.8621518e-10 -1.6921502e-10  8.1599918      12.24          16.32          1630.0139    
        22   0             -949.2096       2.5104377      5.4521351      1.0395891      1.0395889      2.9976907e-09 -5.1116816e-10  6.2221006e-11  8.1599918      12.24          16.32          1630.0139    
        23   0             -949.2096       2.5104377      5.4521351      1.0395891      1.0395889      2.8203754e-09 -2.5424995e-10  1.6505515e-10  8.1599918      12.24          16.32          1630.0139    
        24   0             -949.2096       2.5104377      5.4521351      1.0395891      1.0395889      2.5701822e-09 -1.4220965e-10 -3.4799379e-10  8.1599918      12.24          16.32          1630.0139    
        25   0             -949.2096       2.5104377      5.4521351      1.0395891      1.039589       1.8160392e-09 -2.5982812e-10 -7.2742715e-11  8.1599918      12.24          16.32          1630.0139    
        26   0             -949.2096       2.5104377      5.4521351      1.0395891      1.039589       1.6820387e-09 -1.3109451e-10 -1.3047614e-10  8.1599918      12.24          16.32          1630.0139    
        27   0             -949.2096       2.5104377      5.4521351      1.0395891      1.039589       1.4971183e-09  2.472198e-10   2.2994882e-11  8.1599918      12.24          16.32          1630.0139    
        28   0             -949.2096       2.5104377      5.4521351      1.0395891      1.039589       1.1522383e-09  2.9094519e-10  5.8354814e-10  8.1599918      12.24          16.32          1630.0139    
        29   0             -949.2096       2.5104377      5.4521351      1.0395891      1.039589       9.6480691e-10 -3.1709695e-11 -4.3190273e-12  8.1599918      12.24          16.32          1630.0139    
        30   0             -949.2096       2.5104378      5.4521351      1.0395891      1.039589       7.7979434e-10 -3.5305725e-11  3.2021161e-11  8.1599918      12.24          16.32          1630.0139    
        31   0             -949.2096       2.5104378      5.4521351      1.0395891      1.0395891      4.2753334e-10  5.3439147e-11  1.5473903e-10  8.1599918      12.24          16.32          1630.0139    
        32   0             -949.2096       2.5104378      5.4521351      1.0395891      1.0395891      2.0663915e-10 -5.5493989e-11  2.8051056e-10  8.1599918      12.24          16.32          1630.0139    
        33   0             -949.2096       2.5104378      5.4521351      1.0395891      1.0395891      8.0115606e-12 -7.60905e-11    5.4524596e-11  8.1599918      12.24          16.32          1630.0139    
        34   0             -949.2096       2.5104378      5.4521351      1.0395891      1.0395891      7.0537816e-11 -1.6992953e-10 -3.0088217e-11  8.1599918      12.24          16.32          1630.0139    
        35   0             -949.2096       2.5104378      5.4521351      1.0395891      1.0395891      1.9711698e-10 -9.4902568e-11  9.9787355e-11  8.1599918      12.24          16.32          1630.0139    
        36   0             -949.2096       2.5104378      5.4521351      1.0395891      1.0395891      2.6977827e-10 -6.4273247e-11 -2.6154382e-11  8.1599918      12.24          16.32          1630.0139    
        37   0             -949.2096       2.5104378      5.4521351      1.0395891      1.0395891      8.3148957e-11 -4.9884372e-11 -1.3859746e-10  8.1599918      12.24          16.32          1630.0139    
        38   0             -949.2096       2.5104378      5.4521351      1.0395891      1.0395891     -2.2801106e-11  9.8000295e-12 -1.214606e-10   8.1599918      12.24          16.32          1630.0139    
        39   0             -949.2096       2.5104378      5.4521351      1.0395891      1.0395891     -1.2721944e-11 -6.9633045e-11 -9.1298684e-12  8.1599918      12.24          16.32          1630.0139    
        40   0             -949.2096       2.5104378      5.4521351      1.0395891      1.0395891      5.1817509e-11 -5.2329742e-11  4.0940777e-11  8.1599918      12.24          16.32          1630.0139    
        41   0             -949.2096       2.5104378      5.4521351      1.0395891      1.0395891      5.645923e-11  -8.7905415e-11  1.0781999e-11  8.1599918      12.24          16.32          1630.0139    
        42   0             -949.2096       2.5104378      5.4521351      1.0395891      1.0395891      1.2690358e-13 -9.3898762e-11 -9.6340812e-12  8.1599918      12.24          16.32          1630.0139    
        43   0             -949.2096       2.5104378      5.4521351      1.0395891      1.0395891     -6.7100171e-12 -8.2424291e-11 -3.4935195e-11  8.1599918      12.24          16.32          1630.0139    
        44   0             -949.2096       2.5104378      5.4521351      1.0395891      1.0395891     -6.7696842e-12 -5.5676544e-11 -1.9461737e-11  8.1599918      12.24          16.32          1630.0139    
        45   0             -949.2096       2.5104378      5.4521351      1.0395891      1.0395891     -2.2429308e-11 -4.2346057e-11  7.2507456e-14  8.1599918      12.24          16.32          1630.0139    
        46   0             -949.2096       2.5104378      5.4521351      1.0395891      1.0395891     -2.6641862e-12 -4.3758864e-11  2.2644181e-12  8.1599918      12.24          16.32          1630.0139    
        47   0             -949.2096       2.5104378      5.4521351      1.0395891      1.0395891      1.6137414e-11 -4.3734514e-11  1.8023974e-11  8.1599918      12.24          16.32          1630.0139    
        48   0             -949.2096       2.5104378      5.4521351      1.0395891      1.0395891      9.1456142e-12 -2.5271496e-11  2.2880004e-11  8.1599918      12.24          16.32          1630.0139    
        49   0             -949.2096       2.5104378      5.4521351      1.0395891      1.0395891     -6.918011e-13  -1.5977834e-11  1.1890707e-11  8.1599918      12.24          16.32          1630.0139    
        50   0             -949.2096       2.5104378      5.4521351      1.0395891      1.0395891     -6.9994735e-12 -1.2325332e-11 -5.4868003e-12  8.1599918      12.24          16.32          1630.0139    
        51   0             -949.2096       2.5104378      5.4521351      1.0395891      1.0395891     -7.7263785e-12 -1.174155e-11  -4.043998e-12   8.1599918      12.24          16.32          1630.0139    
        52   0             -949.2096       2.5104378      5.4521351      1.0395891      1.0395891     -1.0372233e-12 -9.2724717e-12 -2.2787419e-12  8.1599918      12.24          16.32          1630.0139    
        53   0             -949.2096       2.5104378      5.4521351      1.0395891      1.0395891      8.6570693e-13 -8.2889875e-12 -5.4621532e-13  8.1599918      12.24          16.32          1630.0139    
        54   0             -949.2096       2.5104378      5.4521351      1.0395891      1.0395891      3.0353504e-12 -7.9459888e-12  2.4041089e-12  8.1599918      12.24          16.32          1630.0139    
        55   0             -949.2096       2.5104378      5.4521351      1.0395891      1.0395891      1.6933385e-12 -5.4963241e-12  3.362783e-12   8.1599918      12.24          16.32          1630.0139    
        56   0             -949.2096       2.5104378      5.4521351      1.0395891      1.0395891      4.6055335e-13 -3.6534528e-12  1.3368557e-12  8.1599918      12.24          16.32          1630.0139    
        57   0             -949.2096       2.5104378      5.4521351      1.0395891      1.0395891      2.7311161e-13 -3.6337467e-12 -2.4056736e-13  8.1599918      12.24          16.32          1630.0139    
        58   0             -949.2096       2.5104378      5.4521351      1.0395891      1.0395891     -7.4887213e-13 -3.52241e-12   -9.5578584e-13  8.1599918      12.24          16.32          1630.0139    
        59   0             -949.2096       2.5104378      5.4521351      1.0395891      1.0395891     -1.0175481e-12 -1.6346382e-12 -1.2827587e-12  8.1599918      12.24          16.32          1630.0139    
        60   0             -949.2096       2.5104378      5.4521351      1.0395891      1.0395891     -8.7373403e-13 -3.1619221e-12 -1.5554604e-12  8.1599918      12.24          16.32          1630.0139    
        61   0             -949.2096       2.5104378      5.4521351      1.0395891      1.0395891      6.3779213e-13 -1.0448686e-12  1.2587401e-13  8.1599918      12.24          16.32          1630.0139    
        62   0             -949.2096       2.5104378      5.4521351      1.0395891      1.0395891      1.3508609e-12 -5.4315039e-13  8.437554e-13   8.1599918      12.24          16.32          1630.0139    
        63   0             -949.2096       2.5104378      5.4521351      1.0395891      1.0395891      7.9727279e-13 -7.8165262e-13  1.4224533e-12  8.1599918      12.24          16.32          1630.0139    
        64   0             -949.2096       2.5104378      5.4521351      1.0395891      1.0395891      7.5745181e-14  5.441587e-13   4.7012371e-13  8.1599918      12.24          16.32          1630.0139    
        65   0             -949.2096       2.5104378      5.4521351      1.0395891      1.0395891     -2.1818572e-13 -9.48196e-13   -1.0111338e-12  8.1599918      12.24          16.32          1630.0139    
        66   0             -949.2096       2.5104378      5.4521351      1.0395891      1.0395891     -2.8625123e-13 -1.2591324e-13 -3.5587056e-13  8.1599918      12.24          16.32          1630.0139    
        67   0             -949.2096       2.5104378      5.4521351      1.0395891      1.0395891     -9.601633e-13  -6.3793722e-13  6.5287632e-13  8.1599918      12.24          16.32          1630.0139    
        68   0             -949.2096       2.5104378      5.4521351      1.0395891      1.0395891      4.5531007e-13  9.5139586e-13 -5.9700533e-14  8.1599918      12.24          16.32          1630.0139    
        69   0             -949.2096       2.5104378      5.4521351      1.0395891      1.0395891     -1.1406439e-14 -3.0325833e-13 -2.4617338e-14  8.1599918      12.24          16.32          1630.0139    
        70   0             -949.2096       2.5104378      5.4521351      1.0395891      1.0395891     -4.598597e-13  -1.9622065e-13  5.6340913e-13  8.1599918      12.24          16.32          1630.0139    
        71   0             -949.2096       2.5104378      5.4521351      1.0395891      1.0395891      4.1996479e-13 -5.3585666e-14  8.9344603e-13  8.1599918      12.24          16.32          1630.0139    
        72   0             -949.2096       2.5104378      5.4521351      1.0395891      1.0395891      2.5196858e-13  9.9135939e-13 -4.5345597e-13  8.1599918      12.24          16.32          1630.0139    
        73   0             -949.2096       2.5104378      5.4521351      1.0395891      1.0395891      1.1584451e-13 -1.1162251e-12 -8.893001e-13   8.1599918      12.24          16.32          1630.0139    
        74   0             -949.2096       2.5104378      5.4521351      1.0395891      1.0395891      7.6538697e-13  3.9623131e-13  2.0977615e-13  8.1599918      12.24          16.32          1630.0139    
        75   0             -949.2096       2.5104378      5.4521351      1.0395891      1.0395891      3.8350015e-13  1.0192525e-14  4.7183433e-13  8.1599918      12.24          16.32          1630.0139    
        76   0             -949.2096       2.5104378      5.4521351      1.0395891      1.0395891      8.9884668e-13  4.5626032e-13  3.9184309e-13  8.1599918      12.24          16.32          1630.0139    
        77   0             -949.2096       2.5104378      5.4521351      1.0395891      1.0395891     -3.6101505e-13 -6.0568402e-14  3.7110981e-13  8.1599918      12.24          16.32          1630.0139    
        78   0             -949.2096       2.5104378      5.4521351      1.0395891      1.0395891      2.5762004e-13 -1.2745929e-13  3.0966253e-13  8.1599918      12.24          16.32          1630.0139    
        79   0             -949.2096       2.5104378      5.4521351      1.0395891      1.0395891      3.889192e-14  -6.7816923e-14 -2.7469282e-13  8.1599918      12.24          16.32          1630.0139    
        80   0             -949.2096       2.5104378      5.4521351      1.0395891      1.0395891      1.3647163e-13 -9.76341e-14    4.1173786e-13  8.1599918      12.24          16.32          1630.0139    
        81   0             -949.2096       2.5104378      5.4521351      1.0395891      1.0395891     -2.9756309e-13  2.4506961e-13  2.5001098e-13  8.1599918      12.24          16.32          1630.0139    
        82   0             -949.2096       2.5104378      5.4521351      1.0395891      1.0395891     -1.1798049e-14 -7.2396267e-13 -4.4787084e-13  8.1599918      12.24          16.32          1630.0139    
        83   0             -949.2096       2.5104378      5.4521351      1.0395891      1.0395891     -3.2103027e-13 -3.4022235e-13 -1.4870113e-13  8.1599918      12.24          16.32          1630.0139    
        84   0             -949.2096       2.5104378      5.4521351      1.0395891      1.0395891      3.9528715e-13  3.2957118e-13  1.0949131e-12  8.1599918      12.24          16.32          1630.0139    
        85   0             -949.2096       2.5104378      5.4521351      1.0395891      1.0395891      7.016469e-13  -6.6850507e-15  4.1680929e-14  8.1599918      12.24          16.32          1630.0139    
        86   0             -949.2096       2.5104378      5.4521351      1.0395891      1.0395891     -2.5292632e-13 -3.2250201e-14  9.590566e-13   8.1599918      12.24          16.32          1630.0139    
        87   0             -949.2096       2.5104378      5.4521351      1.0395891      1.0395891      2.1456009e-14 -1.0026699e-12 -6.0990101e-14  8.1599918      12.24          16.32          1630.0139    
Loop time of 0.0440965 on 4 procs for 86 steps with 192 atoms

62.0% CPU use with 4 MPI tasks x 1 OpenMP threads

Minimization stats:
  Stopping criterion = force tolerance
  Energy initial, next-to-last, final = 
     -949.209599835113  -949.209600030694  -949.209600030694
  Force two-norm initial, final = 0.0035515978 9.1398517e-11
  Force max component initial, final = 0.00038858654 1.2902975e-11
  Final line search alpha, max atom move = 1 1.2902975e-11
  Iterations, force evaluations = 86 172

MPI task timing breakdown:
Section |  min time  |  avg time  |  max time  |%varavg| %total
---------------------------------------------------------------
Pair    | 0.036464   | 0.037371   | 0.037765   |   0.3 | 84.75
Neigh   | 0          | 0          | 0          |   0.0 |  0.00
Comm    | 0.003665   | 0.004086   | 0.004944   |   0.8 |  9.27
Output  | 0.001125   | 0.0012692  | 0.001521   |   0.4 |  2.88
Modify  | 0          | 0          | 0          |   0.0 |  0.00
Other   |            | 0.001371   |            |       |  3.11

Nlocal:             48 ave          51 max          43 min
Histogram: 1 0 0 0 0 0 1 0 1 1
Nghost:            600 ave         605 max         597 min
Histogram: 1 1 0 1 0 0 0 0 0 1
Neighs:           1920 ave        2021 max        1728 min
Histogram: 1 0 0 0 0 0 0 1 1 1
FullNghs:         3840 ave        4080 max        3440 min
Histogram: 1 0 0 0 0 0 1 0 1 1

Total # of neighbors = 15360
Ave neighs/atom = 80
Neighbor list builds = 0
Dangerous builds = 0

# Obtain new stress tensor

variable tmp equal pxx
variable pxx1 equal ${tmp}
variable pxx1 equal 5.45213512192152
variable tmp equal pyy
variable pyy1 equal ${tmp}
variable pyy1 equal 1.03958911209122
variable tmp equal pzz
variable pzz1 equal ${tmp}
variable pzz1 equal 1.03958911177293
variable tmp equal pxy
variable pxy1 equal ${tmp}
variable pxy1 equal 2.14560087530249e-14
variable tmp equal pxz
variable pxz1 equal ${tmp}
variable pxz1 equal -1.00266987868273e-12
variable tmp equal pyz
variable pyz1 equal ${tmp}
variable pyz1 equal -6.09901008064673e-14

# Compute elastic constant from pressure tensor

variable C1neg equal ${d1}
variable C1neg equal 545.213512201814
variable C2neg equal ${d2}
variable C2neg equal 103.958911210124
variable C3neg equal ${d3}
variable C3neg equal 103.958911203579
variable C4neg equal ${d4}
variable C4neg equal -6.09901008071372e-12
variable C5neg equal ${d5}
variable C5neg equal -1.0026698786832e-10
variable C6neg equal ${d6}
variable C6neg equal 2.14560087532197e-12

# Reset box and simulation parameters

clear
  using 1 OpenMP thread(s) per MPI task
Loaded 1 plugins from C:\Program Files\LAMMPS 64-bit 23Jun2022\plugins
Loaded 0 plugins from C:\Program Files\LAMMPS 64-bit 23Jun2022-MPI\plugins
Loaded 1 plugins from C:\Program Files\LAMMPS 64-bit 22Dec2022-MSMPI\plugins
Loaded 1 plugins from C:\Program Files\LAMMPS 64-bit 28Mar2023-MPI\plugins
box tilt large

The 'box' command has been removed and will be ignored

read_restart restart.equil
Reading restart file ...
  restart file = 22 Dec 2022, LAMMPS = 22 Dec 2022
  restoring atom style atomic from restart
  triclinic box = (3.0493495e-09 3.0493503e-09 3.0493508e-09) to (8.16 12.24 16.32) with tilt (0 0 0)
  1 by 2 by 2 MPI processor grid
  pair style meam stores no restart info
  192 atoms
  read_restart CPU = 0.000 seconds
include potential.mod
# NOTE: This script can be modified for different pair styles
# See in.elastic for more info.

# Choose potential
#-----------------------
#pair_style	sw
#pair_coeff * * Si.sw Si
#-----------------------
#pair_style morse	2.83994742	# D0[eV] a[1/A] r0[A] rc[A], 1NN for BCC
#pair_coeff 1 1	2.1173	1.0202	2.4595	2.6497	#	Fe-Fe
#-----------------------
#pair_style smatb # R0(A)   p       q     A(eV)   xi(eV)  Rcs(A)   Rc(A), 4NN: Rcs=4NN, Rc=(4NN+5NN)/2
#pair_coeff 1 1	2.4802	7.0149	2.3779	0.3144	3.0551	4.033	4.176	#	Co	Co
#-----------------------
#pair_style eam/alloy
#pair_coeff * * AlCrFeCoNi_Zhou04.eam.alloy Fe
#-----------------------
pair_style meam
pair_coeff * * ./../../library.meam Ni C ./../../NiC.meam Ni C
#-----------------------

# Setup neighbor style
neighbor 1.0 nsq
neigh_modify once no every 1 delay 0 check yes

# Setup minimization style
min_style	     cg
min_modify	     dmax ${dmax} line quadratic
min_modify	     dmax 0.01 line quadratic

# Setup output
thermo		1
thermo_style custom step temp pe press pxx pyy pzz pxy pxz pyz lx ly lz vol
thermo_modify norm no

# Positive deformation

variable delta equal ${up}*${len0}
variable delta equal 1e-06*${len0}
variable delta equal 1e-06*8.1599999878026
variable deltaxy equal ${up}*xy
variable deltaxy equal 1e-06*xy
variable deltaxz equal ${up}*xz
variable deltaxz equal 1e-06*xz
variable deltayz equal ${up}*yz
variable deltayz equal 1e-06*yz
if "${dir} == 1" then    "change_box all x delta 0 ${delta} xy delta ${deltaxy} xz delta ${deltaxz} remap units box"
change_box all x delta 0 ${delta} xy delta ${deltaxy} xz delta ${deltaxz} remap units box
change_box all x delta 0 8.1599999878026e-06 xy delta ${deltaxy} xz delta ${deltaxz} remap units box
change_box all x delta 0 8.1599999878026e-06 xy delta 0 xz delta ${deltaxz} remap units box
change_box all x delta 0 8.1599999878026e-06 xy delta 0 xz delta 0 remap units box
Changing box ...
  triclinic box = (3.0493495e-09 3.0493503e-09 3.0493508e-09) to (8.1600082 12.24 16.32) with tilt (0 0 0)
  triclinic box = (3.0493495e-09 3.0493503e-09 3.0493508e-09) to (8.1600082 12.24 16.32) with tilt (0 0 0)
  triclinic box = (3.0493495e-09 3.0493503e-09 3.0493508e-09) to (8.1600082 12.24 16.32) with tilt (0 0 0)
if "${dir} == 2" then    "change_box all y delta 0 ${delta} yz delta ${deltayz} remap units box"
if "${dir} == 3" then    "change_box all z delta 0 ${delta} remap units box"
if "${dir} == 4" then    "change_box all yz delta ${delta} remap units box"
if "${dir} == 5" then    "change_box all xz delta ${delta} remap units box"
if "${dir} == 6" then    "change_box all xy delta ${delta} remap units box"

# Relax atoms positions

minimize ${etol} ${ftol} ${maxiter} ${maxeval}
minimize 0 ${ftol} ${maxiter} ${maxeval}
minimize 0 1e-10 ${maxiter} ${maxeval}
minimize 0 1e-10 1000 ${maxeval}
minimize 0 1e-10 1000 100000
Neighbor list info ...
  update: every = 1 steps, delay = 0 steps, check = yes
  max neighbors/atom: 2000, page size: 100000
  master list distance cutoff = 5
  ghost atom cutoff = 5
  2 neighbor lists, perpetual/occasional/extra = 2 0 0
  (1) pair meam, perpetual
      attributes: full, newton on
      pair build: full/nsq
      stencil: none
      bin: none
  (2) pair meam, perpetual, half/full from (1)
      attributes: half, newton on
      pair build: halffull/newton
      stencil: none
      bin: none
Per MPI rank memory allocation (min/avg/max) = 9.874 | 9.882 | 9.886 Mbytes
   Step          Temp          PotEng         Press           Pxx            Pyy            Pzz            Pxy            Pxz            Pyz             Lx             Ly             Lz           Volume    
         1   0             -949.2096      -2.5096787     -5.4512942     -1.0389072     -1.0388348     -1.6678896e-05  2.6460305e-05 -1.5308274e-06  8.1600081      12.24          16.32          1630.0171    
         2   0             -949.2096      -2.5103334     -5.4519543     -1.0395252     -1.0395206     -7.8980708e-07 -1.9866141e-06 -1.1725768e-06  8.1600081      12.24          16.32          1630.0171    
         3   0             -949.2096      -2.5103955     -5.4520534     -1.0395664     -1.0395665     -1.4529635e-08  3.5847069e-07 -4.5196606e-07  8.1600081      12.24          16.32          1630.0171    
         4   0             -949.2096      -2.5104069     -5.452058      -1.0395841     -1.0395786      1.2090728e-07 -7.2472706e-08 -3.0527552e-07  8.1600081      12.24          16.32          1630.0171    
         5   0             -949.2096      -2.5104094     -5.4520581     -1.0395863     -1.0395839      2.1146089e-07  4.7418212e-07  3.2908338e-07  8.1600081      12.24          16.32          1630.0171    
         6   0             -949.2096      -2.51041       -5.452058      -1.0395862     -1.0395858     -1.2943792e-07 -1.3443509e-07  7.706627e-08   8.1600081      12.24          16.32          1630.0171    
         7   0             -949.2096      -2.5104099     -5.4520581     -1.0395855     -1.0395862     -3.8258105e-08  7.7349295e-08  8.2745139e-09  8.1600081      12.24          16.32          1630.0171    
         8   0             -949.2096      -2.5104098     -5.4520576     -1.0395856     -1.039586      -2.2853638e-08 -6.6607505e-08 -7.873953e-10   8.1600081      12.24          16.32          1630.0171    
         9   0             -949.2096      -2.5104095     -5.4520575     -1.0395855     -1.0395857      6.3696629e-09  4.624133e-08   1.092886e-08   8.1600081      12.24          16.32          1630.0171    
        10   0             -949.2096      -2.5104095     -5.4520574     -1.0395854     -1.0395857     -1.1978865e-09  4.9006838e-09 -2.0824809e-08  8.1600081      12.24          16.32          1630.0171    
        11   0             -949.2096      -2.5104094     -5.4520572     -1.0395853     -1.0395856      2.532959e-09   4.2302565e-09 -9.3177524e-09  8.1600081      12.24          16.32          1630.0171    
        12   0             -949.2096      -2.5104093     -5.4520571     -1.0395853     -1.0395855      3.979776e-09  -4.4680899e-09 -7.1091801e-09  8.1600081      12.24          16.32          1630.0171    
        13   0             -949.2096      -2.5104093     -5.4520571     -1.0395852     -1.0395855      1.2425256e-09 -3.1691767e-09  1.0126537e-09  8.1600081      12.24          16.32          1630.0171    
        14   0             -949.2096      -2.5104092     -5.452057      -1.0395852     -1.0395855      2.6958997e-10  1.0556684e-09  5.8124136e-09  8.1600081      12.24          16.32          1630.0171    
        15   0             -949.2096      -2.5104092     -5.452057      -1.0395852     -1.0395854      2.8549567e-09 -3.2261521e-10  6.0710291e-09  8.1600081      12.24          16.32          1630.0171    
        16   0             -949.2096      -2.5104092     -5.452057      -1.0395852     -1.0395854      3.6550638e-09 -1.5027161e-09  5.157708e-09   8.1600081      12.24          16.32          1630.0171    
        17   0             -949.2096      -2.5104092     -5.452057      -1.0395851     -1.0395854      3.34236e-09   -1.6182594e-09  1.8809508e-10  8.1600081      12.24          16.32          1630.0171    
        18   0             -949.2096      -2.5104091     -5.4520569     -1.0395851     -1.0395853      3.3946375e-09 -6.0264456e-10 -1.2610471e-10  8.1600081      12.24          16.32          1630.0171    
        19   0             -949.2096      -2.5104091     -5.4520569     -1.0395851     -1.0395853      3.1093641e-09 -6.6063916e-10 -1.0265859e-10  8.1600081      12.24          16.32          1630.0171    
        20   0             -949.2096      -2.5104091     -5.4520569     -1.0395851     -1.0395853      2.8658561e-09 -3.37199e-10   -2.4874924e-10  8.1600081      12.24          16.32          1630.0171    
        21   0             -949.2096      -2.5104091     -5.4520569     -1.0395851     -1.0395853      2.8921864e-09 -4.8454667e-10 -1.7091894e-10  8.1600081      12.24          16.32          1630.0171    
        22   0             -949.2096      -2.5104091     -5.4520569     -1.0395851     -1.0395853      2.9981469e-09 -5.1092388e-10  6.296764e-11   8.1600081      12.24          16.32          1630.0171    
        23   0             -949.2096      -2.5104091     -5.4520569     -1.0395851     -1.0395853      2.8183843e-09 -2.5474887e-10  1.6485539e-10  8.1600081      12.24          16.32          1630.0171    
        24   0             -949.2096      -2.5104091     -5.4520569     -1.0395851     -1.0395853      2.5718088e-09 -1.4096654e-10 -3.469908e-10   8.1600081      12.24          16.32          1630.0171    
        25   0             -949.2096      -2.5104091     -5.4520569     -1.0395851     -1.0395852      1.8129684e-09 -2.6010328e-10 -7.2290696e-11  8.1600081      12.24          16.32          1630.0171    
        26   0             -949.2096      -2.5104091     -5.4520569     -1.0395851     -1.0395852      1.6845523e-09 -1.311785e-10  -1.3057399e-10  8.1600081      12.24          16.32          1630.0171    
        27   0             -949.2096      -2.5104091     -5.4520569     -1.0395851     -1.0395852      1.4953524e-09  2.4641722e-10  2.4094194e-11  8.1600081      12.24          16.32          1630.0171    
        28   0             -949.2096      -2.5104091     -5.4520569     -1.0395851     -1.0395852      1.1484045e-09  2.9135085e-10  5.8480821e-10  8.1600081      12.24          16.32          1630.0171    
        29   0             -949.2096      -2.510409      -5.4520569     -1.0395851     -1.0395851      9.7481365e-10 -3.2853129e-11 -6.5203228e-12  8.1600081      12.24          16.32          1630.0171    
        30   0             -949.2096      -2.510409      -5.4520569     -1.0395851     -1.0395851      7.5668885e-10 -3.0590619e-11  4.2120753e-11  8.1600081      12.24          16.32          1630.0171    
        31   0             -949.2096      -2.510409      -5.4520569     -1.0395851     -1.0395851      4.5627307e-10  4.8589434e-11  1.4271662e-10  8.1600081      12.24          16.32          1630.0171    
        32   0             -949.2096      -2.510409      -5.4520569     -1.0395851     -1.0395851      1.6425718e-10 -4.9212165e-11  2.9746174e-10  8.1600081      12.24          16.32          1630.0171    
        33   0             -949.2096      -2.510409      -5.4520569     -1.0395851     -1.0395851      3.4754542e-11 -7.986373e-11   4.2501896e-11  8.1600081      12.24          16.32          1630.0171    
        34   0             -949.2096      -2.510409      -5.4520569     -1.0395851     -1.0395851      3.4437521e-11 -1.6395403e-10 -1.6614664e-11  8.1600081      12.24          16.32          1630.0171    
        35   0             -949.2096      -2.510409      -5.4520569     -1.0395851     -1.0395851      2.1104641e-10 -9.7452486e-11  9.4652698e-11  8.1600081      12.24          16.32          1630.0171    
        36   0             -949.2096      -2.510409      -5.4520569     -1.0395851     -1.0395851      2.778633e-10  -6.5791662e-11 -2.8980964e-11  8.1600081      12.24          16.32          1630.0171    
        37   0             -949.2096      -2.510409      -5.4520569     -1.0395851     -1.0395851      6.4627423e-11 -4.7323923e-11 -1.3042027e-10  8.1600081      12.24          16.32          1630.0171    
        38   0             -949.2096      -2.510409      -5.4520569     -1.0395851     -1.0395851      1.4996894e-12  4.6956425e-12 -1.308938e-10   8.1600081      12.24          16.32          1630.0171    
        39   0             -949.2096      -2.510409      -5.4520569     -1.0395851     -1.0395851     -2.0440082e-11 -6.770014e-11  -5.1128813e-12  8.1600081      12.24          16.32          1630.0171    
        40   0             -949.2096      -2.510409      -5.4520569     -1.0395851     -1.0395851      5.7985657e-11 -5.3621654e-11  3.8663766e-11  8.1600081      12.24          16.32          1630.0171    
        41   0             -949.2096      -2.510409      -5.4520569     -1.0395851     -1.0395851      5.4520303e-11 -8.7825506e-11  1.2579958e-11  8.1600081      12.24          16.32          1630.0171    
        42   0             -949.2096      -2.510409      -5.4520569     -1.0395851     -1.0395851      1.9863716e-12 -9.2720634e-11 -8.7264209e-12  8.1600081      12.24          16.32          1630.0171    
        43   0             -949.2096      -2.510409      -5.4520569     -1.0395851     -1.0395851     -7.187997e-12  -8.3532946e-11 -3.5304911e-11  8.1600081      12.24          16.32          1630.0171    
        44   0             -949.2096      -2.510409      -5.4520569     -1.0395851     -1.0395851     -6.0913333e-12 -5.6490767e-11 -1.7712513e-11  8.1600081      12.24          16.32          1630.0171    
        45   0             -949.2096      -2.510409      -5.4520569     -1.0395851     -1.0395851     -2.4517435e-11 -4.0964265e-11 -2.5202439e-13  8.1600081      12.24          16.32          1630.0171    
        46   0             -949.2096      -2.510409      -5.4520569     -1.0395851     -1.0395851     -2.1597894e-12 -4.5766626e-11 -3.8716406e-13  8.1600081      12.24          16.32          1630.0171    
        47   0             -949.2096      -2.510409      -5.4520569     -1.0395851     -1.0395851      1.6268035e-11 -4.2540361e-11  1.875869e-11   8.1600081      12.24          16.32          1630.0171    
        48   0             -949.2096      -2.510409      -5.4520569     -1.0395851     -1.0395851      7.5621578e-12 -2.6183572e-11  2.0751058e-11  8.1600081      12.24          16.32          1630.0171    
        49   0             -949.2096      -2.510409      -5.4520569     -1.0395851     -1.0395851      1.3854561e-12 -1.5579861e-11  1.3376183e-11  8.1600081      12.24          16.32          1630.0171    
        50   0             -949.2096      -2.510409      -5.4520569     -1.0395851     -1.0395851     -7.7393231e-12 -1.2867115e-11 -5.0235609e-12  8.1600081      12.24          16.32          1630.0171    
        51   0             -949.2096      -2.510409      -5.4520569     -1.0395851     -1.0395851     -7.8913829e-12 -1.2493814e-11 -4.810213e-12   8.1600081      12.24          16.32          1630.0171    
        52   0             -949.2096      -2.510409      -5.4520569     -1.0395851     -1.0395851     -1.6032772e-12 -9.7734104e-12 -2.7469692e-12  8.1600081      12.24          16.32          1630.0171    
        53   0             -949.2096      -2.510409      -5.4520569     -1.0395851     -1.0395851      1.3592411e-12 -9.6748364e-12 -2.4118061e-12  8.1600081      12.24          16.32          1630.0171    
        54   0             -949.2096      -2.510409      -5.4520569     -1.0395851     -1.0395851      3.0092851e-12 -6.8967563e-12  1.1531151e-12  8.1600081      12.24          16.32          1630.0171    
        55   0             -949.2096      -2.510409      -5.4520569     -1.0395851     -1.0395851      1.7531465e-12 -5.0325458e-12  2.5318954e-12  8.1600081      12.24          16.32          1630.0171    
        56   0             -949.2096      -2.510409      -5.4520569     -1.0395851     -1.0395851      2.1839267e-14 -3.9147587e-12  8.3259142e-13  8.1600081      12.24          16.32          1630.0171    
        57   0             -949.2096      -2.510409      -5.4520569     -1.0395851     -1.0395851     -7.6709869e-14 -3.5529023e-12 -9.1318373e-13  8.1600081      12.24          16.32          1630.0171    
        58   0             -949.2096      -2.510409      -5.4520569     -1.0395851     -1.0395851     -1.1557653e-12 -3.809843e-12  -1.0713025e-12  8.1600081      12.24          16.32          1630.0171    
        59   0             -949.2096      -2.510409      -5.4520569     -1.0395851     -1.0395851     -1.1463371e-12 -1.1889529e-12 -1.9124289e-12  8.1600081      12.24          16.32          1630.0171    
        60   0             -949.2096      -2.510409      -5.4520569     -1.0395851     -1.0395851     -1.1902812e-12 -1.6274771e-12 -2.4582359e-12  8.1600081      12.24          16.32          1630.0171    
        61   0             -949.2096      -2.510409      -5.4520569     -1.0395851     -1.0395851      9.0990023e-13 -6.4766334e-13  9.0180165e-13  8.1600081      12.24          16.32          1630.0171    
        62   0             -949.2096      -2.510409      -5.4520569     -1.0395851     -1.0395851      8.7096136e-13  3.6032475e-13  6.5230419e-13  8.1600081      12.24          16.32          1630.0171    
        63   0             -949.2096      -2.510409      -5.4520569     -1.0395851     -1.0395851      9.184065e-14   5.6317151e-13 -5.0651201e-14  8.1600081      12.24          16.32          1630.0171    
        64   0             -949.2096      -2.510409      -5.4520569     -1.0395851     -1.0395851      2.5647478e-15 -1.103721e-12   1.5700107e-14  8.1600081      12.24          16.32          1630.0171    
        65   0             -949.2096      -2.510409      -5.4520569     -1.0395851     -1.0395851      6.7381767e-14  9.8390859e-14 -2.9147382e-14  8.1600081      12.24          16.32          1630.0171    
        66   0             -949.2096      -2.510409      -5.4520569     -1.0395851     -1.0395851     -5.481935e-13  -1.2605579e-13 -2.4338127e-13  8.1600081      12.24          16.32          1630.0171    
        67   0             -949.2096      -2.510409      -5.4520569     -1.0395851     -1.0395851     -4.4866252e-13 -1.0953738e-12 -7.8509926e-13  8.1600081      12.24          16.32          1630.0171    
        68   0             -949.2096      -2.510409      -5.4520569     -1.0395851     -1.0395851     -4.3768139e-13 -2.7903506e-13 -1.1816435e-12  8.1600081      12.24          16.32          1630.0171    
        69   0             -949.2096      -2.510409      -5.4520569     -1.0395851     -1.0395851      3.6485767e-13  1.0243305e-13  5.7111115e-13  8.1600081      12.24          16.32          1630.0171    
        70   0             -949.2096      -2.510409      -5.4520569     -1.0395851     -1.0395851     -1.819426e-13   2.6453982e-13 -3.3665385e-14  8.1600081      12.24          16.32          1630.0171    
        71   0             -949.2096      -2.510409      -5.4520569     -1.0395851     -1.0395851      3.1103075e-13  3.5068214e-13 -5.8273704e-13  8.1600081      12.24          16.32          1630.0171    
        72   0             -949.2096      -2.510409      -5.4520569     -1.0395851     -1.0395851      5.6355537e-13  4.4348671e-13  1.3321247e-12  8.1600081      12.24          16.32          1630.0171    
        73   0             -949.2096      -2.510409      -5.4520569     -1.0395851     -1.0395851      3.9714708e-13 -1.6164174e-13 -1.6508758e-13  8.1600081      12.24          16.32          1630.0171    
        74   0             -949.2096      -2.510409      -5.4520569     -1.0395851     -1.0395851      1.7939089e-13 -5.5500083e-13  3.5807598e-13  8.1600081      12.24          16.32          1630.0171    
        75   0             -949.2096      -2.510409      -5.4520569     -1.0395851     -1.0395851     -1.5128359e-13  9.7912362e-13  3.1053616e-13  8.1600081      12.24          16.32          1630.0171    
        76   0             -949.2096      -2.510409      -5.4520569     -1.0395851     -1.0395851     -1.7237367e-13  1.1055504e-12  1.1333628e-12  8.1600081      12.24          16.32          1630.0171    
        77   0             -949.2096      -2.510409      -5.4520569     -1.0395851     -1.0395851     -2.626663e-13   7.0120586e-13  1.0419256e-12  8.1600081      12.24          16.32          1630.0171    
        78   0             -949.2096      -2.510409      -5.4520569     -1.0395851     -1.0395851     -1.0883148e-13 -1.0038961e-12 -1.4478803e-12  8.1600081      12.24          16.32          1630.0171    
        79   0             -949.2096      -2.510409      -5.4520569     -1.0395851     -1.0395851      5.9720877e-13  6.3979985e-14  1.5094319e-12  8.1600081      12.24          16.32          1630.0171    
        80   0             -949.2096      -2.510409      -5.4520569     -1.0395851     -1.0395851      2.5267311e-14 -6.5596699e-13 -9.5340733e-13  8.1600081      12.24          16.32          1630.0171    
        81   0             -949.2096      -2.510409      -5.4520569     -1.0395851     -1.0395851     -2.3993347e-14 -4.0605049e-13  5.9438209e-14  8.1600081      12.24          16.32          1630.0171    
        82   0             -949.2096      -2.510409      -5.4520569     -1.0395851     -1.0395851     -1.3833594e-13  6.2167411e-13 -1.7628017e-13  8.1600081      12.24          16.32          1630.0171    
        83   0             -949.2096      -2.510409      -5.4520569     -1.0395851     -1.0395851      2.129502e-13  -3.0464914e-14 -2.9701418e-13  8.1600081      12.24          16.32          1630.0171    
        84   0             -949.2096      -2.510409      -5.4520569     -1.0395851     -1.0395851      6.352641e-13   1.1127464e-12  1.0773825e-12  8.1600081      12.24          16.32          1630.0171    
        85   0             -949.2096      -2.510409      -5.4520569     -1.0395851     -1.0395851     -1.0440068e-13 -1.4047419e-13  9.9716339e-14  8.1600081      12.24          16.32          1630.0171    
        86   0             -949.2096      -2.510409      -5.4520569     -1.0395851     -1.0395851      3.4965287e-13  1.5487381e-13  2.9362531e-15  8.1600081      12.24          16.32          1630.0171    
        87   0             -949.2096      -2.510409      -5.4520569     -1.0395851     -1.0395851     -8.9025649e-14 -1.098799e-12  -9.6645379e-13  8.1600081      12.24          16.32          1630.0171    
Loop time of 0.041094 on 4 procs for 86 steps with 192 atoms

57.0% CPU use with 4 MPI tasks x 1 OpenMP threads

Minimization stats:
  Stopping criterion = force tolerance
  Energy initial, next-to-last, final = 
     -949.209599835114  -949.209600030695  -949.209600030694
  Force two-norm initial, final = 0.0035515673 9.6343308e-11
  Force max component initial, final = 0.00038858615 1.2407405e-11
  Final line search alpha, max atom move = 1 1.2407405e-11
  Iterations, force evaluations = 86 172

MPI task timing breakdown:
Section |  min time  |  avg time  |  max time  |%varavg| %total
---------------------------------------------------------------
Pair    | 0.033792   | 0.03436    | 0.034786   |   0.2 | 83.61
Neigh   | 0          | 0          | 0          |   0.0 |  0.00
Comm    | 0.004023   | 0.0043063  | 0.004704   |   0.4 | 10.48
Output  | 0.001105   | 0.0011665  | 0.001329   |   0.3 |  2.84
Modify  | 0          | 0          | 0          |   0.0 |  0.00
Other   |            | 0.001261   |            |       |  3.07

Nlocal:             48 ave          51 max          43 min
Histogram: 1 0 0 0 0 0 1 0 1 1
Nghost:            600 ave         605 max         597 min
Histogram: 1 1 0 1 0 0 0 0 0 1
Neighs:           1920 ave        2021 max        1728 min
Histogram: 1 0 0 0 0 0 0 1 1 1
FullNghs:         3840 ave        4080 max        3440 min
Histogram: 1 0 0 0 0 0 1 0 1 1

Total # of neighbors = 15360
Ave neighs/atom = 80
Neighbor list builds = 0
Dangerous builds = 0

# Obtain new stress tensor

variable tmp equal pe
variable e1 equal ${tmp}
variable e1 equal -949.209600030694
variable tmp equal press
variable p1 equal ${tmp}
variable p1 equal -2.51040900589139
variable tmp equal pxx
variable pxx1 equal ${tmp}
variable pxx1 equal -5.4520568790938
variable tmp equal pyy
variable pyy1 equal ${tmp}
variable pyy1 equal -1.03958506911477
variable tmp equal pzz
variable pzz1 equal ${tmp}
variable pzz1 equal -1.03958506946561
variable tmp equal pxy
variable pxy1 equal ${tmp}
variable pxy1 equal -8.90256486366096e-14
variable tmp equal pxz
variable pxz1 equal ${tmp}
variable pxz1 equal -1.09879895630581e-12
variable tmp equal pyz
variable pyz1 equal ${tmp}
variable pyz1 equal -9.6645379092194e-13

# Compute elastic constant from pressure tensor

variable C1pos equal ${d1}
variable C1pos equal 545.205687899718
variable C2pos equal ${d2}
variable C2pos equal 103.958506910475
variable C3pos equal ${d3}
variable C3pos equal 103.958506920275
variable C4pos equal ${d4}
variable C4pos equal 9.6645379092261e-11
variable C5pos equal ${d5}
variable C5pos equal 1.09879895630628e-10
variable C6pos equal ${d6}
variable C6pos equal 8.90256486364148e-12

# Combine positive and negative

variable C1${dir} equal 0.5*(${C1neg}+${C1pos})
variable C11 equal 0.5*(${C1neg}+${C1pos})
variable C11 equal 0.5*(545.213512201814+${C1pos})
variable C11 equal 0.5*(545.213512201814+545.205687899718)
variable C2${dir} equal 0.5*(${C2neg}+${C2pos})
variable C21 equal 0.5*(${C2neg}+${C2pos})
variable C21 equal 0.5*(103.958911210124+${C2pos})
variable C21 equal 0.5*(103.958911210124+103.958506910475)
variable C3${dir} equal 0.5*(${C3neg}+${C3pos})
variable C31 equal 0.5*(${C3neg}+${C3pos})
variable C31 equal 0.5*(103.958911203579+${C3pos})
variable C31 equal 0.5*(103.958911203579+103.958506920275)
variable C4${dir} equal 0.5*(${C4neg}+${C4pos})
variable C41 equal 0.5*(${C4neg}+${C4pos})
variable C41 equal 0.5*(-6.09901008071372e-12+${C4pos})
variable C41 equal 0.5*(-6.09901008071372e-12+9.6645379092261e-11)
variable C5${dir} equal 0.5*(${C5neg}+${C5pos})
variable C51 equal 0.5*(${C5neg}+${C5pos})
variable C51 equal 0.5*(-1.0026698786832e-10+${C5pos})
variable C51 equal 0.5*(-1.0026698786832e-10+1.09879895630628e-10)
variable C6${dir} equal 0.5*(${C6neg}+${C6pos})
variable C61 equal 0.5*(${C6neg}+${C6pos})
variable C61 equal 0.5*(2.14560087532197e-12+${C6pos})
variable C61 equal 0.5*(2.14560087532197e-12+8.90256486364148e-12)

# Delete dir to make sure it is not reused

variable dir delete

# uyy Perturbation

variable dir equal 2
include displace.mod
# NOTE: This script should not need to be
# modified. See in.elastic for more info.
#
# Find which reference length to use

if "${dir} == 1" then    "variable len0 equal ${lx0}"
if "${dir} == 2" then    "variable len0 equal ${ly0}"
variable len0 equal ${ly0}
variable len0 equal 12.2399999817039
if "${dir} == 3" then    "variable len0 equal ${lz0}"
if "${dir} == 4" then    "variable len0 equal ${lz0}"
if "${dir} == 5" then    "variable len0 equal ${lz0}"
if "${dir} == 6" then    "variable len0 equal ${ly0}"

# Reset box and simulation parameters

clear
  using 1 OpenMP thread(s) per MPI task
Loaded 1 plugins from C:\Program Files\LAMMPS 64-bit 23Jun2022\plugins
Loaded 0 plugins from C:\Program Files\LAMMPS 64-bit 23Jun2022-MPI\plugins
Loaded 1 plugins from C:\Program Files\LAMMPS 64-bit 22Dec2022-MSMPI\plugins
Loaded 1 plugins from C:\Program Files\LAMMPS 64-bit 28Mar2023-MPI\plugins
box tilt large

The 'box' command has been removed and will be ignored

read_restart restart.equil
Reading restart file ...
  restart file = 22 Dec 2022, LAMMPS = 22 Dec 2022
  restoring atom style atomic from restart
  triclinic box = (3.0493495e-09 3.0493503e-09 3.0493508e-09) to (8.16 12.24 16.32) with tilt (0 0 0)
  1 by 2 by 2 MPI processor grid
  pair style meam stores no restart info
  192 atoms
  read_restart CPU = 0.000 seconds
include potential.mod
# NOTE: This script can be modified for different pair styles
# See in.elastic for more info.

# Choose potential
#-----------------------
#pair_style	sw
#pair_coeff * * Si.sw Si
#-----------------------
#pair_style morse	2.83994742	# D0[eV] a[1/A] r0[A] rc[A], 1NN for BCC
#pair_coeff 1 1	2.1173	1.0202	2.4595	2.6497	#	Fe-Fe
#-----------------------
#pair_style smatb # R0(A)   p       q     A(eV)   xi(eV)  Rcs(A)   Rc(A), 4NN: Rcs=4NN, Rc=(4NN+5NN)/2
#pair_coeff 1 1	2.4802	7.0149	2.3779	0.3144	3.0551	4.033	4.176	#	Co	Co
#-----------------------
#pair_style eam/alloy
#pair_coeff * * AlCrFeCoNi_Zhou04.eam.alloy Fe
#-----------------------
pair_style meam
pair_coeff * * ./../../library.meam Ni C ./../../NiC.meam Ni C
#-----------------------

# Setup neighbor style
neighbor 1.0 nsq
neigh_modify once no every 1 delay 0 check yes

# Setup minimization style
min_style	     cg
min_modify	     dmax ${dmax} line quadratic
min_modify	     dmax 0.01 line quadratic

# Setup output
thermo		1
thermo_style custom step temp pe press pxx pyy pzz pxy pxz pyz lx ly lz vol
thermo_modify norm no

# Negative deformation

variable delta equal -${up}*${len0}
variable delta equal -1e-06*${len0}
variable delta equal -1e-06*12.2399999817039
variable deltaxy equal -${up}*xy
variable deltaxy equal -1e-06*xy
variable deltaxz equal -${up}*xz
variable deltaxz equal -1e-06*xz
variable deltayz equal -${up}*yz
variable deltayz equal -1e-06*yz
if "${dir} == 1" then    "change_box all x delta 0 ${delta} xy delta ${deltaxy} xz delta ${deltaxz} remap units box"
if "${dir} == 2" then    "change_box all y delta 0 ${delta} yz delta ${deltayz} remap units box"
change_box all y delta 0 ${delta} yz delta ${deltayz} remap units box
change_box all y delta 0 -1.22399999817039e-05 yz delta ${deltayz} remap units box
change_box all y delta 0 -1.22399999817039e-05 yz delta -0 remap units box
Changing box ...
  triclinic box = (3.0493495e-09 3.0493503e-09 3.0493508e-09) to (8.16 12.239988 16.32) with tilt (0 0 0)
  triclinic box = (3.0493495e-09 3.0493503e-09 3.0493508e-09) to (8.16 12.239988 16.32) with tilt (0 0 0)
if "${dir} == 3" then    "change_box all z delta 0 ${delta} remap units box"
if "${dir} == 4" then    "change_box all yz delta ${delta} remap units box"
if "${dir} == 5" then    "change_box all xz delta ${delta} remap units box"
if "${dir} == 6" then    "change_box all xy delta ${delta} remap units box"

# Relax atoms positions

minimize ${etol} ${ftol} ${maxiter} ${maxeval}
minimize 0 ${ftol} ${maxiter} ${maxeval}
minimize 0 1e-10 ${maxiter} ${maxeval}
minimize 0 1e-10 1000 ${maxeval}
minimize 0 1e-10 1000 100000
Neighbor list info ...
  update: every = 1 steps, delay = 0 steps, check = yes
  max neighbors/atom: 2000, page size: 100000
  master list distance cutoff = 5
  ghost atom cutoff = 5
  2 neighbor lists, perpetual/occasional/extra = 2 0 0
  (1) pair meam, perpetual
      attributes: full, newton on
      pair build: full/nsq
      stencil: none
      bin: none
  (2) pair meam, perpetual, half/full from (1)
      attributes: half, newton on
      pair build: halffull/newton
      stencil: none
      bin: none
Per MPI rank memory allocation (min/avg/max) = 9.874 | 9.882 | 9.886 Mbytes
   Step          Temp          PotEng         Press           Pxx            Pyy            Pzz            Pxy            Pxz            Pyz             Lx             Ly             Lz           Volume    
         1   0             -949.2096       2.5111681      1.0403518      5.452813       1.0403394     -1.6679121e-05  2.646054e-05  -1.5308442e-06  8.16           12.239988      16.32          1630.0139    
         2   0             -949.2096       2.5105134      1.0396917      5.452195       1.0396536     -7.897745e-07  -1.9866451e-06 -1.1725674e-06  8.16           12.239988      16.32          1630.0139    
         3   0             -949.2096       2.5104513      1.0395925      5.4521538      1.0396077     -1.4532802e-08  3.5842959e-07 -4.5198259e-07  8.16           12.239988      16.32          1630.0139    
         4   0             -949.2096       2.5104399      1.039588       5.4521361      1.0395956      1.2090737e-07 -7.2405902e-08 -3.0527164e-07  8.16           12.239988      16.32          1630.0139    
         5   0             -949.2096       2.5104374      1.0395879      5.4521339      1.0395902      2.1147381e-07  4.7412924e-07  3.290906e-07   8.16           12.239988      16.32          1630.0139    
         6   0             -949.2096       2.5104368      1.039588       5.452134       1.0395884     -1.2945505e-07 -1.34404e-07    7.7072237e-08  8.16           12.239988      16.32          1630.0139    
         7   0             -949.2096       2.5104369      1.0395879      5.4521347      1.039588      -3.8246579e-08  7.7332846e-08  8.2706516e-09  8.16           12.239988      16.32          1630.0139    
         8   0             -949.2096       2.510437       1.0395884      5.4521346      1.0395882     -2.2861476e-08 -6.6601071e-08 -7.8532034e-10  8.16           12.239988      16.32          1630.0139    
         9   0             -949.2096       2.5104372      1.0395885      5.4521347      1.0395885      6.3742059e-09  4.6239776e-08  1.092675e-08   8.16           12.239988      16.32          1630.0139    
        10   0             -949.2096       2.5104373      1.0395886      5.4521348      1.0395885     -1.2007284e-09  4.9007744e-09 -2.0825482e-08  8.16           12.239988      16.32          1630.0139    
        11   0             -949.2096       2.5104374      1.0395888      5.4521349      1.0395886      2.5357796e-09  4.2290243e-09 -9.3173782e-09  8.16           12.239988      16.32          1630.0139    
        12   0             -949.2096       2.5104375      1.0395889      5.4521349      1.0395886      3.9802645e-09 -4.4665981e-09 -7.1094219e-09  8.16           12.239988      16.32          1630.0139    
        13   0             -949.2096       2.5104375      1.0395889      5.452135       1.0395887      1.2414511e-09 -3.170027e-09   1.011683e-09   8.16           12.239988      16.32          1630.0139    
        14   0             -949.2096       2.5104376      1.039589       5.452135       1.0395887      2.7081578e-10  1.0553825e-09  5.8138488e-09  8.16           12.239988      16.32          1630.0139    
        15   0             -949.2096       2.5104376      1.039589       5.452135       1.0395888      2.8528129e-09 -3.2155724e-10  6.0708296e-09  8.16           12.239988      16.32          1630.0139    
        16   0             -949.2096       2.5104376      1.039589       5.452135       1.0395888      3.6561438e-09 -1.5016157e-09  5.158929e-09   8.16           12.239988      16.32          1630.0139    
        17   0             -949.2096       2.5104376      1.039589       5.452135       1.0395888      3.3413833e-09 -1.6167134e-09  1.882378e-10   8.16           12.239988      16.32          1630.0139    
        18   0             -949.2096       2.5104376      1.039589       5.4521351      1.0395888      3.3950748e-09 -6.0395917e-10 -1.2595179e-10  8.16           12.239988      16.32          1630.0139    
        19   0             -949.2096       2.5104377      1.039589       5.4521351      1.0395888      3.1084832e-09 -6.6121047e-10 -1.0355417e-10  8.16           12.239988      16.32          1630.0139    
        20   0             -949.2096       2.5104377      1.0395891      5.4521351      1.0395889      2.8663909e-09 -3.37563e-10   -2.4953286e-10  8.16           12.239988      16.32          1630.0139    
        21   0             -949.2096       2.5104377      1.0395891      5.4521351      1.0395889      2.8923174e-09 -4.854323e-10  -1.676446e-10   8.16           12.239988      16.32          1630.0139    
        22   0             -949.2096       2.5104377      1.0395891      5.4521351      1.0395889      2.9978965e-09 -5.1132175e-10  6.1716776e-11  8.16           12.239988      16.32          1630.0139    
        23   0             -949.2096       2.5104377      1.0395891      5.4521351      1.0395889      2.819911e-09  -2.5641497e-10  1.6594699e-10  8.16           12.239988      16.32          1630.0139    
        24   0             -949.2096       2.5104377      1.0395891      5.4521351      1.0395889      2.5711833e-09 -1.4193587e-10 -3.4852463e-10  8.16           12.239988      16.32          1630.0139    
        25   0             -949.2096       2.5104377      1.0395891      5.4521351      1.039589       1.8150432e-09 -2.6065866e-10 -7.2643789e-11  8.16           12.239988      16.32          1630.0139    
        26   0             -949.2096       2.5104377      1.0395891      5.4521351      1.039589       1.6827549e-09 -1.3118861e-10 -1.3282118e-10  8.16           12.239988      16.32          1630.0139    
        27   0             -949.2096       2.5104377      1.0395891      5.4521351      1.039589       1.4961107e-09  2.4646522e-10  2.4749953e-11  8.16           12.239988      16.32          1630.0139    
        28   0             -949.2096       2.5104377      1.0395891      5.4521351      1.039589       1.1510942e-09  2.8921344e-10  5.8494611e-10  8.16           12.239988      16.32          1630.0139    
        29   0             -949.2096       2.5104377      1.0395891      5.4521351      1.039589       9.6770897e-10 -2.8439984e-11 -8.2154171e-12  8.16           12.239988      16.32          1630.0139    
        30   0             -949.2096       2.5104378      1.0395891      5.4521351      1.039589       7.7333309e-10 -4.4118722e-11  4.1769829e-11  8.16           12.239988      16.32          1630.0139    
        31   0             -949.2096       2.5104378      1.0395891      5.4521351      1.0395891      4.3377792e-10  6.4013723e-11  1.4166197e-10  8.16           12.239988      16.32          1630.0139    
        32   0             -949.2096       2.5104378      1.0395891      5.4521351      1.0395891      1.9727169e-10 -7.3194801e-11  2.9897818e-10  8.16           12.239988      16.32          1630.0139    
        33   0             -949.2096       2.5104378      1.0395891      5.4521351      1.0395891      1.3210208e-11 -6.4878424e-11  4.204585e-11   8.16           12.239988      16.32          1630.0139    
        34   0             -949.2096       2.5104378      1.0395891      5.4521351      1.0395891      6.4663127e-11 -1.8627306e-10 -1.4660549e-11  8.16           12.239988      16.32          1630.0139    
        35   0             -949.2096       2.5104378      1.0395891      5.4521351      1.0395891      2.0148486e-10 -8.6629755e-11  9.3523553e-11  8.16           12.239988      16.32          1630.0139    
        36   0             -949.2096       2.5104378      1.0395891      5.4521351      1.0395891      2.7088666e-10 -6.0267855e-11 -3.093379e-11   8.16           12.239988      16.32          1630.0139    
        37   0             -949.2096       2.5104378      1.0395891      5.4521351      1.0395891      7.8432384e-11 -6.0731861e-11 -1.2951307e-10  8.16           12.239988      16.32          1630.0139    
        38   0             -949.2096       2.5104378      1.0395891      5.4521351      1.0395891     -1.8178332e-11  2.4773789e-11 -1.2973482e-10  8.16           12.239988      16.32          1630.0139    
        39   0             -949.2096       2.5104378      1.0395891      5.4521351      1.0395891     -1.3505138e-11 -7.5261816e-11 -4.4097826e-12  8.16           12.239988      16.32          1630.0139    
        40   0             -949.2096       2.5104378      1.0395891      5.4521351      1.0395891      5.3376629e-11 -4.8438059e-11  3.953543e-11   8.16           12.239988      16.32          1630.0139    
        41   0             -949.2096       2.5104378      1.0395891      5.4521351      1.0395891      5.5500711e-11 -8.7598408e-11  1.2553434e-11  8.16           12.239988      16.32          1630.0139    
        42   0             -949.2096       2.5104378      1.0395891      5.4521351      1.0395891      1.3378399e-12 -9.2975828e-11 -9.4153262e-12  8.16           12.239988      16.32          1630.0139    
        43   0             -949.2096       2.5104378      1.0395891      5.4521351      1.0395891     -7.3209942e-12 -8.3456649e-11 -3.4816601e-11  8.16           12.239988      16.32          1630.0139    
        44   0             -949.2096       2.5104378      1.0395891      5.4521351      1.0395891     -5.2511963e-12 -5.560318e-11  -1.772351e-11   8.16           12.239988      16.32          1630.0139    
        45   0             -949.2096       2.5104378      1.0395891      5.4521351      1.0395891     -2.4107297e-11 -4.1723726e-11 -5.5456915e-13  8.16           12.239988      16.32          1630.0139    
        46   0             -949.2096       2.5104378      1.0395891      5.4521351      1.0395891     -3.1262435e-12 -4.4454912e-11  1.1384588e-13  8.16           12.239988      16.32          1630.0139    
        47   0             -949.2096       2.5104378      1.0395891      5.4521351      1.0395891      1.55763e-11   -4.3743628e-11  1.8796637e-11  8.16           12.239988      16.32          1630.0139    
        48   0             -949.2096       2.5104378      1.0395891      5.4521351      1.0395891      7.5166187e-12 -2.5561299e-11  2.0704268e-11  8.16           12.239988      16.32          1630.0139    
        49   0             -949.2096       2.5104378      1.0395891      5.4521351      1.0395891      1.1650276e-12 -1.5961067e-11  1.2760151e-11  8.16           12.239988      16.32          1630.0139    
        50   0             -949.2096       2.5104378      1.0395891      5.4521351      1.0395891     -7.601566e-12  -1.2543678e-11 -5.3745703e-12  8.16           12.239988      16.32          1630.0139    
        51   0             -949.2096       2.5104378      1.0395891      5.4521351      1.0395891     -7.76622e-12   -1.2625694e-11 -5.497035e-12   8.16           12.239988      16.32          1630.0139    
        52   0             -949.2096       2.5104378      1.0395891      5.4521351      1.0395891     -1.8217665e-12 -9.9691376e-12 -1.0556034e-12  8.16           12.239988      16.32          1630.0139    
        53   0             -949.2096       2.5104378      1.0395891      5.4521351      1.0395891      9.5013589e-13 -9.0109793e-12 -7.9384936e-13  8.16           12.239988      16.32          1630.0139    
        54   0             -949.2096       2.5104378      1.0395891      5.4521351      1.0395891      3.4372315e-12 -6.7650909e-12  2.087793e-12   8.16           12.239988      16.32          1630.0139    
[...]
        51   0             -949.2096      -1.0033856e-06 -2.6665972e-07 -2.3203669e-06 -4.2313007e-07 -0.076291015   -1.3113394e-11 -4.2254305e-12  8.16           12.24          16.32          1630.0155    
        52   0             -949.2096      -1.0032957e-06 -2.6662372e-07 -2.3202053e-06 -4.2305806e-07 -0.076291015   -1.0584783e-11 -2.4935833e-12  8.16           12.24          16.32          1630.0155    
        53   0             -949.2096      -1.0033279e-06 -2.6659167e-07 -2.320312e-06  -4.2307997e-07 -0.076291015   -8.8334902e-12 -9.7473451e-14  8.16           12.24          16.32          1630.0155    
        54   0             -949.2096      -1.0032419e-06 -2.6663172e-07 -2.3200658e-06 -4.2302815e-07 -0.076291015   -6.9578577e-12  3.5610656e-12  8.16           12.24          16.32          1630.0155    
        55   0             -949.2096      -1.0032216e-06 -2.6662267e-07 -2.3199665e-06 -4.230756e-07  -0.076291015   -4.8119075e-12  2.6290337e-12  8.16           12.24          16.32          1630.0155    
        56   0             -949.2096      -1.0032487e-06 -2.6658791e-07 -2.3199802e-06 -4.2317811e-07 -0.076291015   -2.8502465e-12  1.0784537e-12  8.16           12.24          16.32          1630.0155    
        57   0             -949.2096      -1.0032273e-06 -2.6658637e-07 -2.3199852e-06 -4.2311033e-07 -0.076291015   -2.8979697e-12 -8.0346159e-13  8.16           12.24          16.32          1630.0155    
        58   0             -949.2096      -1.0031878e-06 -2.6660592e-07 -2.3199825e-06 -4.22975e-07   -0.076291015   -4.0571321e-12 -1.3368504e-12  8.16           12.24          16.32          1630.0155    
        59   0             -949.2096      -1.0032838e-06 -2.666047e-07  -2.3200528e-06 -4.2319391e-07 -0.076291015   -2.0483925e-12 -2.0357373e-12  8.16           12.24          16.32          1630.0155    
        60   0             -949.2096      -1.0032265e-06 -2.6661305e-07 -2.3199833e-06 -4.2308301e-07 -0.076291015   -1.2290714e-12 -4.3244899e-13  8.16           12.24          16.32          1630.0155    
        61   0             -949.2096      -1.0032031e-06 -2.6658932e-07 -2.3199517e-06 -4.2306841e-07 -0.076291015    2.6118805e-13  6.6023608e-13  8.16           12.24          16.32          1630.0155    
        62   0             -949.2096      -1.0032058e-06 -2.6659389e-07 -2.3199277e-06 -4.2309593e-07 -0.076291015   -1.4969886e-12  7.2337929e-13  8.16           12.24          16.32          1630.0155    
        63   0             -949.2096      -1.0032441e-06 -2.6667234e-07 -2.3199856e-06 -4.2307426e-07 -0.076291015   -9.5189893e-13  1.4663653e-13  8.16           12.24          16.32          1630.0155    
        64   0             -949.2096      -1.0032637e-06 -2.666349e-07  -2.3200562e-06 -4.2309991e-07 -0.076291015   -1.0815004e-12  3.2765081e-13  8.16           12.24          16.32          1630.0155    
        65   0             -949.2096      -1.0032319e-06 -2.6659059e-07 -2.3200116e-06 -4.2309343e-07 -0.076291015   -3.3262488e-14  3.6005309e-13  8.16           12.24          16.32          1630.0155    
        66   0             -949.2096      -1.0031845e-06 -2.6655403e-07 -2.3199458e-06 -4.2305361e-07 -0.076291015    3.6715469e-13  1.1932466e-12  8.16           12.24          16.32          1630.0155    
        67   0             -949.2096      -1.0032806e-06 -2.666319e-07  -2.3200189e-06 -4.2319115e-07 -0.076291015    6.9124809e-13 -2.5462806e-13  8.16           12.24          16.32          1630.0155    
        68   0             -949.2096      -1.0031965e-06 -2.6661668e-07 -2.3199743e-06 -4.2299852e-07 -0.076291015    4.8871728e-13 -4.0230943e-13  8.16           12.24          16.32          1630.0155    
        69   0             -949.2096      -1.003251e-06  -2.6660801e-07 -2.319993e-06  -4.2315214e-07 -0.076291015    2.8848625e-13  4.5225789e-13  8.16           12.24          16.32          1630.0155    
        70   0             -949.2096      -1.0032097e-06 -2.6657046e-07 -2.3199706e-06 -4.2308809e-07 -0.076291015   -9.088484e-14   7.5637284e-14  8.16           12.24          16.32          1630.0155    
        71   0             -949.2096      -1.0032309e-06 -2.6658694e-07 -2.3199965e-06 -4.231091e-07  -0.076291015   -6.9445298e-13 -9.7910807e-13  8.16           12.24          16.32          1630.0155    
        72   0             -949.2096      -1.0032217e-06 -2.6656967e-07 -2.3199755e-06 -4.2311994e-07 -0.076291015    6.1023343e-13 -3.4091334e-14  8.16           12.24          16.32          1630.0155    
        73   0             -949.2096      -1.003284e-06  -2.6666332e-07 -2.3200955e-06 -4.2309315e-07 -0.076291015   -1.2586486e-14 -7.153903e-13   8.16           12.24          16.32          1630.0155    
        74   0             -949.2096      -1.0032548e-06 -2.6662964e-07 -2.3200403e-06 -4.2309465e-07 -0.076291015   -1.3001112e-13 -1.6162339e-13  8.16           12.24          16.32          1630.0155    
        75   0             -949.2096      -1.0033176e-06 -2.6665641e-07 -2.3200324e-06 -4.2326411e-07 -0.076291015    9.0159145e-13  6.3091362e-13  8.16           12.24          16.32          1630.0155    
        76   0             -949.2096      -1.0032365e-06 -2.666091e-07  -2.3199539e-06 -4.231464e-07  -0.076291015   -3.4502196e-13  1.0061799e-12  8.16           12.24          16.32          1630.0155    
        77   0             -949.2096      -1.0033315e-06 -2.6666748e-07 -2.3200589e-06 -4.2326812e-07 -0.076291015    9.3661678e-14 -3.7970877e-13  8.16           12.24          16.32          1630.0155    
        78   0             -949.2096      -1.0033099e-06 -2.6668952e-07 -2.3200118e-06 -4.2322827e-07 -0.076291015    2.4955034e-14 -2.8983344e-13  8.16           12.24          16.32          1630.0155    
        79   0             -949.2096      -1.0032568e-06 -2.666406e-07  -2.3200464e-06 -4.2308334e-07 -0.076291015    1.3960503e-13 -6.1390917e-15  8.16           12.24          16.32          1630.0155    
        80   0             -949.2096      -1.0033399e-06 -2.6667037e-07 -2.3200779e-06 -4.2327146e-07 -0.076291015    1.1247153e-13 -8.3112451e-14  8.16           12.24          16.32          1630.0155    
        81   0             -949.2096      -1.003224e-06  -2.6661094e-07 -2.3200469e-06 -4.23014e-07   -0.076291015    2.1047169e-13 -8.5102452e-13  8.16           12.24          16.32          1630.0155    
        82   0             -949.2096      -1.0032426e-06 -2.6659457e-07 -2.3200563e-06 -4.23077e-07   -0.076291015   -2.8893493e-13 -6.1328615e-14  8.16           12.24          16.32          1630.0155    
        83   0             -949.2096      -1.0033101e-06 -2.6661555e-07 -2.3201443e-06 -4.2317033e-07 -0.076291015   -1.0889503e-12 -1.3140357e-12  8.16           12.24          16.32          1630.0155    
        84   0             -949.2096      -1.0032722e-06 -2.6659997e-07 -2.3201743e-06 -4.2304238e-07 -0.076291015    3.6675779e-13  8.9618365e-13  8.16           12.24          16.32          1630.0155    
        85   0             -949.2096      -1.0033545e-06 -2.6664422e-07 -2.3202781e-06 -4.2314128e-07 -0.076291015   -5.2404485e-13 -1.9123091e-12  8.16           12.24          16.32          1630.0155    
        86   0             -949.2096      -1.0033096e-06 -2.6662307e-07 -2.3202027e-06 -4.2310299e-07 -0.076291015    7.9663728e-13 -4.6240053e-13  8.16           12.24          16.32          1630.0155    
        87   0             -949.2096      -1.0033553e-06 -2.667174e-07  -2.3202148e-06 -4.231336e-07  -0.076291015   -3.7046659e-14  1.8929776e-13  8.16           12.24          16.32          1630.0155    
Loop time of 0.0340852 on 4 procs for 86 steps with 192 atoms

34.4% CPU use with 4 MPI tasks x 1 OpenMP threads

Minimization stats:
  Stopping criterion = force tolerance
  Energy initial, next-to-last, final = 
     -949.209599837848  -949.209600033429   -949.20960003343
  Force two-norm initial, final = 0.0035515827 8.0455453e-11
  Force max component initial, final = 0.00038858619 1.1502266e-11
  Final line search alpha, max atom move = 1 1.1502266e-11
  Iterations, force evaluations = 86 172

MPI task timing breakdown:
Section |  min time  |  avg time  |  max time  |%varavg| %total
---------------------------------------------------------------
Pair    | 0.028978   | 0.029231   | 0.029372   |   0.1 | 85.76
Neigh   | 0          | 0          | 0          |   0.0 |  0.00
Comm    | 0.002764   | 0.0029855  | 0.003167   |   0.3 |  8.76
Output  | 0.000878   | 0.00091    | 0.000999   |   0.0 |  2.67
Modify  | 0          | 0          | 0          |   0.0 |  0.00
Other   |            | 0.0009587  |            |       |  2.81

Nlocal:             48 ave          51 max          43 min
Histogram: 1 0 0 0 0 0 1 0 1 1
Nghost:            600 ave         605 max         597 min
Histogram: 1 1 0 1 0 0 0 0 0 1
Neighs:           1920 ave        2021 max        1728 min
Histogram: 1 0 0 0 0 0 0 1 1 1
FullNghs:         3840 ave        4080 max        3440 min
Histogram: 1 0 0 0 0 0 1 0 1 1

Total # of neighbors = 15360
Ave neighs/atom = 80
Neighbor list builds = 0
Dangerous builds = 0

# Obtain new stress tensor

variable tmp equal pe
variable e1 equal ${tmp}
variable e1 equal -949.20960003343
variable tmp equal press
variable p1 equal ${tmp}
variable p1 equal -1.00335527912745e-06
variable tmp equal pxx
variable pxx1 equal ${tmp}
variable pxx1 equal -2.66717402142622e-07
variable tmp equal pyy
variable pyy1 equal ${tmp}
variable pyy1 equal -2.3202148359521e-06
variable tmp equal pzz
variable pzz1 equal ${tmp}
variable pzz1 equal -4.23133599287633e-07
variable tmp equal pxy
variable pxy1 equal ${tmp}
variable pxy1 equal -0.0762910146984371
variable tmp equal pxz
variable pxz1 equal ${tmp}
variable pxz1 equal -3.70466588973481e-14
variable tmp equal pyz
variable pyz1 equal ${tmp}
variable pyz1 equal 1.8929776245263e-13

# Compute elastic constant from pressure tensor

variable C1pos equal ${d1}
variable C1pos equal 2.66620786209099e-05
variable C2pos equal ${d2}
variable C2pos equal 0.000232020481817097
variable C3pos equal ${d3}
variable C3pos equal 4.22870743841762e-05
variable C4pos equal ${d4}
variable C4pos equal -1.8929776245196e-11
variable C5pos equal ${d5}
variable C5pos equal 3.70466588978195e-12
variable C6pos equal ${d6}
variable C6pos equal 7.62910146984371

# Combine positive and negative

variable C1${dir} equal 0.5*(${C1neg}+${C1pos})
variable C16 equal 0.5*(${C1neg}+${C1pos})
variable C16 equal 0.5*(-2.66571643428057e-05+${C1pos})
variable C16 equal 0.5*(-2.66571643428057e-05+2.66620786209099e-05)
variable C2${dir} equal 0.5*(${C2neg}+${C2pos})
variable C26 equal 0.5*(${C2neg}+${C2pos})
variable C26 equal 0.5*(-0.000232023565067666+${C2pos})
variable C26 equal 0.5*(-0.000232023565067666+0.000232020481817097)
variable C3${dir} equal 0.5*(${C3neg}+${C3pos})
variable C36 equal 0.5*(${C3neg}+${C3pos})
variable C36 equal 0.5*(-4.22846478549704e-05+${C3pos})
variable C36 equal 0.5*(-4.22846478549704e-05+4.22870743841762e-05)
variable C4${dir} equal 0.5*(${C4neg}+${C4pos})
variable C46 equal 0.5*(${C4neg}+${C4pos})
variable C46 equal 0.5*(2.52409354278692e-11+${C4pos})
variable C46 equal 0.5*(2.52409354278692e-11+-1.8929776245196e-11)
variable C5${dir} equal 0.5*(${C5neg}+${C5pos})
variable C56 equal 0.5*(${C5neg}+${C5pos})
variable C56 equal 0.5*(-4.0546810587267e-11+${C5pos})
variable C56 equal 0.5*(-4.0546810587267e-11+3.70466588978195e-12)
variable C6${dir} equal 0.5*(${C6neg}+${C6pos})
variable C66 equal 0.5*(${C6neg}+${C6pos})
variable C66 equal 0.5*(7.62910146983583+${C6pos})
variable C66 equal 0.5*(7.62910146983583+7.62910146984371)

# Delete dir to make sure it is not reused

variable dir delete

# Output final values

variable C11all equal ${C11}
variable C11all equal 545.209600050766
variable C22all equal ${C22}
variable C22all equal 545.209600088135
variable C33all equal ${C33}
variable C33all equal 545.209600046316

variable C12all equal 0.5*(${C12}+${C21})
variable C12all equal 0.5*(103.958709067891+${C21})
variable C12all equal 0.5*(103.958709067891+103.958709060299)
variable C13all equal 0.5*(${C13}+${C31})
variable C13all equal 0.5*(103.958709062131+${C31})
variable C13all equal 0.5*(103.958709062131+103.958709061927)
variable C23all equal 0.5*(${C23}+${C32})
variable C23all equal 0.5*(103.958709060789+${C32})
variable C23all equal 0.5*(103.958709060789+103.958709073848)

variable C44all equal ${C44}
variable C44all equal 7.62910146977735
variable C55all equal ${C55}
variable C55all equal 7.62910146974835
variable C66all equal ${C66}
variable C66all equal 7.62910146983977

variable C14all equal 0.5*(${C14}+${C41})
variable C14all equal 0.5*(-2.38478845124881e-09+${C41})
variable C14all equal 0.5*(-2.38478845124881e-09+4.52731845057736e-11)
variable C15all equal 0.5*(${C15}+${C51})
variable C15all equal 0.5*(-4.07111341019966e-09+${C51})
variable C15all equal 0.5*(-4.07111341019966e-09+4.80645388115399e-12)
variable C16all equal 0.5*(${C16}+${C61})
variable C16all equal 0.5*(2.45713905209934e-09+${C61})
variable C16all equal 0.5*(2.45713905209934e-09+5.52408286948173e-12)

variable C24all equal 0.5*(${C24}+${C42})
variable C24all equal 0.5*(3.11107656765011e-09+${C42})
variable C24all equal 0.5*(3.11107656765011e-09+-5.08687634888572e-11)
variable C25all equal 0.5*(${C25}+${C52})
variable C25all equal 0.5*(5.39847093999115e-10+${C52})
variable C25all equal 0.5*(5.39847093999115e-10+4.61081470665255e-12)
variable C26all equal 0.5*(${C26}+${C62})
variable C26all equal 0.5*(-1.54162528450102e-09+${C62})
variable C26all equal 0.5*(-1.54162528450102e-09+-5.33382346453396e-11)

variable C34all equal 0.5*(${C34}+${C43})
variable C34all equal 0.5*(1.01569160200488e-09+${C43})
variable C34all equal 0.5*(1.01569160200488e-09+-9.6391866979411e-11)
variable C35all equal 0.5*(${C35}+${C53})
variable C35all equal 0.5*(-1.71137097800867e-09+${C53})
variable C35all equal 0.5*(-1.71137097800867e-09+-3.25627438984505e-12)
variable C36all equal 0.5*(${C36}+${C63})
variable C36all equal 0.5*(1.21326460289934e-09+${C63})
variable C36all equal 0.5*(1.21326460289934e-09+1.64972753089756e-11)

variable C45all equal 0.5*(${C45}+${C54})
variable C45all equal 0.5*(3.00819192652542e-11+${C54})
variable C45all equal 0.5*(3.00819192652542e-11+-7.10817833167948e-11)
variable C46all equal 0.5*(${C46}+${C64})
variable C46all equal 0.5*(3.1555795913366e-12+${C64})
variable C46all equal 0.5*(3.1555795913366e-12+-2.02485696328628e-11)
variable C56all equal 0.5*(${C56}+${C65})
variable C56all equal 0.5*(-1.84210723487425e-11+${C65})
variable C56all equal 0.5*(-1.84210723487425e-11+4.29890234828612e-11)

# Average moduli for cubic crystals

variable C11cubic equal (${C11all}+${C22all}+${C33all})/3.0
variable C11cubic equal (545.209600050766+${C22all}+${C33all})/3.0
variable C11cubic equal (545.209600050766+545.209600088135+${C33all})/3.0
variable C11cubic equal (545.209600050766+545.209600088135+545.209600046316)/3.0
variable C12cubic equal (${C12all}+${C13all}+${C23all})/3.0
variable C12cubic equal (103.958709064095+${C13all}+${C23all})/3.0
variable C12cubic equal (103.958709064095+103.958709062029+${C23all})/3.0
variable C12cubic equal (103.958709064095+103.958709062029+103.958709067318)/3.0
variable C44cubic equal (${C44all}+${C55all}+${C66all})/3.0
variable C44cubic equal (7.62910146977735+${C55all}+${C66all})/3.0
variable C44cubic equal (7.62910146977735+7.62910146974835+${C66all})/3.0
variable C44cubic equal (7.62910146977735+7.62910146974835+7.62910146983977)/3.0

variable bulkmodulus equal (${C11cubic}+2*${C12cubic})/3.0
variable bulkmodulus equal (545.209600061739+2*${C12cubic})/3.0
variable bulkmodulus equal (545.209600061739+2*103.958709064481)/3.0
variable shearmodulus1 equal ${C44cubic}
variable shearmodulus1 equal 7.62910146978849
variable shearmodulus2 equal (${C11cubic}-${C12cubic})/2.0
variable shearmodulus2 equal (545.209600061739-${C12cubic})/2.0
variable shearmodulus2 equal (545.209600061739-103.958709064481)/2.0
variable poissonratio equal 1.0/(1.0+${C11cubic}/${C12cubic})
variable poissonratio equal 1.0/(1.0+545.209600061739/${C12cubic})
variable poissonratio equal 1.0/(1.0+545.209600061739/103.958709064481)

# For Stillinger-Weber silicon, the analytical results
# are known to be (E. R. Cowley, 1988):
#               C11 = 151.4 GPa
#               C12 = 76.4 GPa
#               C44 = 56.4 GPa

print "========================================="
=========================================
print "Components of the Elastic Constant Tensor"
Components of the Elastic Constant Tensor
print "========================================="
=========================================

print "Elastic Constant C11all = ${C11all} ${cunits}"
Elastic Constant C11all = 545.209600050766 GPa
print "Elastic Constant C22all = ${C22all} ${cunits}"
Elastic Constant C22all = 545.209600088135 GPa
print "Elastic Constant C33all = ${C33all} ${cunits}"
Elastic Constant C33all = 545.209600046316 GPa

print "Elastic Constant C12all = ${C12all} ${cunits}"
Elastic Constant C12all = 103.958709064095 GPa
print "Elastic Constant C13all = ${C13all} ${cunits}"
Elastic Constant C13all = 103.958709062029 GPa
print "Elastic Constant C23all = ${C23all} ${cunits}"
Elastic Constant C23all = 103.958709067318 GPa

print "Elastic Constant C44all = ${C44all} ${cunits}"
Elastic Constant C44all = 7.62910146977735 GPa
print "Elastic Constant C55all = ${C55all} ${cunits}"
Elastic Constant C55all = 7.62910146974835 GPa
print "Elastic Constant C66all = ${C66all} ${cunits}"
Elastic Constant C66all = 7.62910146983977 GPa

print "Elastic Constant C14all = ${C14all} ${cunits}"
Elastic Constant C14all = -1.16975763337152e-09 GPa
print "Elastic Constant C15all = ${C15all} ${cunits}"
Elastic Constant C15all = -2.03315347815925e-09 GPa
print "Elastic Constant C16all = ${C16all} ${cunits}"
Elastic Constant C16all = 1.23133156748441e-09 GPa

print "Elastic Constant C24all = ${C24all} ${cunits}"
Elastic Constant C24all = 1.53010390208063e-09 GPa
print "Elastic Constant C25all = ${C25all} ${cunits}"
Elastic Constant C25all = 2.72228954352884e-10 GPa
print "Elastic Constant C26all = ${C26all} ${cunits}"
Elastic Constant C26all = -7.9748175957318e-10 GPa

print "Elastic Constant C34all = ${C34all} ${cunits}"
Elastic Constant C34all = 4.59649867512734e-10 GPa
print "Elastic Constant C35all = ${C35all} ${cunits}"
Elastic Constant C35all = -8.57313626199258e-10 GPa
print "Elastic Constant C36all = ${C36all} ${cunits}"
Elastic Constant C36all = 6.14880939104158e-10 GPa

print "Elastic Constant C45all = ${C45all} ${cunits}"
Elastic Constant C45all = -2.04999320257703e-11 GPa
print "Elastic Constant C46all = ${C46all} ${cunits}"
Elastic Constant C46all = -8.5464950207631e-12 GPa
print "Elastic Constant C56all = ${C56all} ${cunits}"
Elastic Constant C56all = 1.22839755670593e-11 GPa

print "========================================="
=========================================
print "Average properties for a cubic crystal"
Average properties for a cubic crystal
print "========================================="
=========================================

print "Bulk Modulus = ${bulkmodulus} ${cunits}"
Bulk Modulus = 251.0423393969 GPa
print "Shear Modulus 1 = ${shearmodulus1} ${cunits}"
Shear Modulus 1 = 7.62910146978849 GPa
print "Shear Modulus 2 = ${shearmodulus2} ${cunits}"
Shear Modulus 2 = 220.625445498629 GPa
print "Poisson Ratio = ${poissonratio}"
Poisson Ratio = 0.160141380290744
Total wall time: 0:00:00
