# LAMMPS data file written by OVITO Basic 3.8.4

8 atoms
2 atom types

0.0 4.148 xlo xhi
0.0 4.148 ylo yhi
0.0 4.148 zlo zhi

Masses

1 51.9961  # Cr
2 14.0067  # N

Atoms  # atomic

1 1 0.0 0.0 0.0
2 1 0.0 2.074 2.074
3 1 2.074 0.0 2.074
4 1 2.074 2.074 0.0
5 2 2.074 0.0 0.0
6 2 2.074 2.074 2.074
7 2 0.0 0.0 2.074
8 2 0.0 2.074 0.0
