# LAMMPS data file written by OVITO Basic 3.8.4

4 atoms
2 atom types

0.0 3.554 xlo xhi
0.0 3.554 ylo yhi
0.0 3.554 zlo zhi

Masses

1 55.845  # Fe
2 58.6934  # Ni

Atoms  # atomic

1 1 0.0 0.0 0.0
2 2 0.0 1.777 1.777
3 2 1.777 0.0 1.777
4 2 1.777 1.777 0.0
