# LAMMPS data file written by OVITO Basic 3.8.4

8 atoms
2 atom types

0.0 4.046 xlo xhi
0.0 4.046 ylo yhi
0.0 4.046 zlo zhi

Masses

1 58.6934  # Ni
2 14.0067  # N

Atoms  # atomic

1 1 0.0 0.0 0.0
2 1 0.0 2.023 2.023
3 1 2.023 0.0 2.023
4 1 2.023 2.023 0.0
5 2 2.023 0.0 0.0
6 2 2.023 2.023 2.023
7 2 0.0 0.0 2.023
8 2 0.0 2.023 0.0
