# LAMMPS data file written by OVITO Basic 3.8.4

21952 atoms
4 atom types

-25.0 25.0 xlo xhi
-50.0 50.0 ylo yhi
-25.0 25.0 zlo zhi

Masses

1 24.305  # Mg
2 26.981538  # Al
3 63.546  # Cu
4 65.409  # Zn

Atoms  # atomic

1 1 -24.6806425 -49.368266 -24.8219075
2 2 -23.02817 -47.72456 -24.7046875
3 3 -22.921245 -49.624237 -23.074295
4 1 -24.6263665 -47.70325 -22.977375
5 2 -21.24297 -49.364591 -24.7889835
8 1 -21.335725 -47.74832 -23.118115
29 1 -24.7048185 -46.06564 -24.7867705
31 4 -23.013115 -45.93706 -22.854745
33 4 -21.314225 -46.0905 -24.8598625
169 1 -24.783303 -49.485514 -21.2795
170 4 -22.997805 -47.98732 -21.29088
173 4 -21.260515 -49.729298 -21.38729
197 4 -24.98417765 -46.41749 -21.09885
201 1 -21.1938 -46.09372 -21.20629
6 2 -19.3346 -47.87395 -24.7105965
7 3 -19.51735 -49.521003 -23.205715
9 1 -17.58295 -49.687211 -24.793813
10 3 -16.03255 -47.61966 -24.662061
11 1 -15.7972 -49.525997 -23.089695
12 4 -17.7812 -47.92326 -23.069985
35 4 -19.46585 -46.11277 -23.006415
37 4 -17.84705 -46.16928 -24.7903475
39 4 -15.93325 -46.08549 -23.0033
174 1 -19.5655 -47.98698 -21.25935
177 2 -17.6642 -49.346595 -21.002395
178 4 -15.9984 -47.91694 -21.246345
205 1 -17.69295 -46.07869 -21.29288
13 2 -14.2527 -49.654886 -24.8821395
14 4 -12.47375 -47.94254 -24.8765095
15 4 -12.5337 -49.712761 -23.085765
16 4 -14.2022 -47.81478 -23.01606
17 1 -10.7191 -49.50789 -24.895146
20 4 -10.5024 -47.98507 -23.167855
41 1 -14.15015 -45.97524 -24.728673
43 2 -12.42435 -46.11027 -22.960745
45 1 -10.7032 -46.21961 -24.7146165
181 4 -14.23545 -49.59814 -21.28816
182 1 -12.45685 -47.92153 -21.42935
185 4 -10.61105 -49.599353 -21.284075
209 1 -14.36365 -46.10021 -21.117315
213 1 -10.51805 -46.15998 -21.317215
18 4 -8.85395 -47.80816 -24.9218265
19 2 -8.51485 -49.555145 -22.89276
21 3 -7.0496 -49.565875 -24.8256055
22 3 -5.27945 -47.98022 -24.8603475
23 3 -5.1547 -49.600235 -23.154455
24 4 -6.96565 -47.9199 -23.17439
47 3 -8.70485 -46.16876 -23.12538
49 4 -6.9687 -46.19743 -24.9012405
51 1 -5.15985 -46.11251 -23.279085
186 4 -8.71 -47.93387 -21.437185
189 4 -6.92555 -49.499356 -21.35143
190 1 -5.10405 -47.80054 -21.38704
217 1 -6.9978 -46.14276 -21.37571
25 4 -3.29795 -49.499474 -24.775985
26 4 -1.4454 -47.76814 -24.7225905
27 4 -1.46475 -49.508849 -23.074185
28 1 -3.27465 -47.75929 -23.24854
53 2 -3.4185 -46.10671 -24.9209785
55 3 -1.5301 -45.80937 -23.316575
193 4 -3.3004 -49.424857 -21.394805
194 1 -1.5157 -47.72149 -21.478955
221 4 -3.342 -46.08135 -21.459185
30 1 -22.982975 -44.30993 -24.7340205
32 1 -24.824857 -44.3692 -22.96927
36 1 -21.2055 -44.34891 -23.021265
57 3 -24.8628255 -42.56399 -24.8424965
58 2 -23.341265 -40.81827 -24.906201
59 4 -23.15845 -42.54411 -23.0497
60 4 -24.95761815 -40.84474 -22.8686
61 1 -21.235485 -42.5527 -24.9060745
64 1 -21.39352 -40.82951 -23.100505
198 1 -23.10994 -44.3139 -21.02744
225 1 -24.831502 -42.52164 -21.14712
226 4 -23.104495 -40.88734 -21.22064
229 1 -21.27097 -42.61594 -21.18294
34 3 -19.40845 -44.35921 -24.6465405
38 2 -16.1868 -44.21052 -24.7602815
40 4 -17.5469 -44.24127 -23.085305
62 4 -19.48145 -40.85039 -24.7804655
63 4 -19.522 -42.57991 -23.05622
65 4 -17.65765 -42.50138 -24.7857485
66 3 -15.83725 -40.87266 -24.7554445
67 2 -15.83005 -42.63994 -23.255705
68 3 -17.59735 -40.87399 -23.104055
202 4 -19.32405 -44.28985 -21.304975
206 4 -15.98255 -44.36686 -21.157695
230 1 -19.3564 -40.87371 -21.26077
233 2 -17.76005 -42.66798 -21.137365
234 4 -16.114 -41.02425 -21.35003
42 1 -12.38815 -44.21745 -24.923709
44 1 -14.04705 -44.26805 -22.916185
48 1 -10.58185 -44.40564 -23.04279
69 4 -14.14335 -42.73425 -24.870683
70 1 -12.63285 -40.87907 -24.8505485
71 2 -12.23785 -42.7366 -23.05158
72 2 -14.3712 -40.94146 -23.08183
73 3 -10.6065 -42.45452 -24.879813
76 3 -10.70895 -41.03276 -23.15327
210 3 -12.4325 -44.42239 -20.993505
237 4 -14.20275 -42.62575 -21.30646
238 4 -12.33235 -40.9751 -21.290415
241 1 -10.6563 -42.64668 -21.22736
46 2 -8.836 -44.32412 -24.7804675
50 3 -5.16265 -44.27331 -24.96208465
52 4 -6.8808 -44.41647 -23.240045
74 1 -8.6656 -40.71142 -24.794334
75 1 -8.64705 -42.71748 -23.22861
77 3 -6.62735 -42.51165 -24.8064345
78 3 -5.14085 -40.79993 -24.8380495
79 2 -5.00415 -42.46545 -23.266655
80 4 -6.8257 -40.88663 -23.13375
214 4 -8.76635 -44.37189 -21.38624
218 1 -5.0149 -44.41207 -21.398285
242 4 -8.7998 -40.93378 -21.6682
245 1 -6.8837 -42.68723 -21.463965
246 1 -5.21615 -40.83804 -21.284015
54 3 -1.4608 -44.38114 -24.968647
56 4 -3.51445 -44.28232 -23.260645
81 2 -3.53775 -42.65032 -24.91491
82 1 -1.54505 -40.79165 -24.9598515
83 1 -1.63575 -42.75783 -23.1687
84 1 -3.27875 -40.92266 -23.02396
222 2 -1.56 -44.4498 -21.433155
249 4 -3.23065 -42.62305 -21.214655
250 4 -1.57225 -40.72983 -21.194585
85 1 -24.9719257 -39.1222 -24.6871955
86 2 -23.104965 -37.1586 -24.8375585
87 3 -23.180345 -39.2011 -22.937255
88 4 -24.625366 -37.356 -23.0196
89 1 -21.36577 -39.0157 -24.8460155
92 4 -21.346445 -37.304 -23.09835
254 1 -22.84055 -37.4003 -21.306565
257 2 -21.346755 -39.277 -21.236875
90 3 -19.59 -37.2951 -24.6996715
91 4 -19.5471 -39.166 -23.024865
93 4 -17.79035 -39.0563 -24.7566265
94 4 -15.92405 -37.3755 -24.859179
95 4 -15.9835 -39.146 -23.08262
96 1 -17.70085 -37.3555 -23.102595
258 1 -19.6529 -37.4031 -21.415335
261 4 -17.70715 -39.1199 -21.273305
262 1 -15.87025 -37.3265 -21.185715
97 2 -14.4004 -38.9251 -24.694257
98 4 -12.3302 -37.3806 -24.7829975
99 4 -12.4817 -39.311 -23.10307
100 4 -14.212 -37.2502 -23.081035
101 1 -10.50965 -39.0484 -24.67699
104 4 -10.51985 -37.3589 -23.10838
265 1 -14.14495 -39.2869 -21.382805
266 4 -12.3983 -37.3453 -21.382025
269 1 -10.55975 -39.1541 -21.396415
102 1 -8.6562 -37.2694 -24.8417985
103 2 -8.42305 -39.1155 -23.07043
105 3 -6.716 -39.0996 -24.827658
106 4 -5.14775 -37.3897 -24.780383
107 4 -5.0829 -39.144 -22.99972
108 1 -6.9161 -37.3799 -22.970895
270 4 -8.7192 -37.2776 -21.269815
273 2 -7.0177 -39.0635 -21.311185
274 3 -5.0864 -37.4244 -21.16961
109 2 -3.3947 -39.0402 -24.73448
110 3 -1.5672 -37.4253 -24.8127185
111 4 -1.5647 -39.1771 -23.12034
112 2 -3.4549 -37.5003 -23.22478
277 3 -3.401 -39.0426 -21.2883
278 1 -1.5192 -37.5006 -21.366875
305 2 -3.36725 -35.8254 -21.429795
113 2 -24.65823 -35.6269 -24.8302125
114 3 -22.81333 -34.0544 -24.9218815
115 1 -23.022305 -35.5851 -22.994225
116 4 -24.585957 -33.7557 -23.042435
117 3 -21.202145 -35.5846 -24.7829265
120 4 -21.25556 -33.7378 -23.14159
141 1 -24.49329 -32.0032 -24.797927
143 1 -22.957775 -31.9582 -22.944525
145 1 -21.31487 -31.9998 -24.888409
281 2 -24.672935 -35.5115 -21.096825
282 3 -22.898405 -33.6769 -21.166625
285 4 -21.24129 -35.462 -21.324405
309 4 -24.6810675 -31.9343 -21.170545
313 4 -21.29876 -31.8305 -21.271255
118 4 -19.28425 -33.6106 -24.82853
119 4 -19.46935 -35.49 -23.100845
121 4 -17.62795 -35.4634 -24.887609
122 2 -15.94755 -33.5032 -24.8688875
123 1 -15.92765 -35.5079 -23.167495
124 4 -17.5753 -33.648 -23.116005
147 1 -19.4686 -31.8987 -23.13268
149 3 -17.57135 -31.8592 -24.96290425
151 2 -15.9569 -31.7854 -23.28709
286 1 -19.4424 -33.6849 -21.358195
289 4 -17.64565 -35.5653 -21.26416
290 1 -15.97865 -33.7338 -21.27601
317 4 -17.66075 -31.8603 -21.300465
125 4 -14.1977 -35.5911 -24.920176
127 4 -12.3238 -35.4981 -23.18403
128 4 -14.31935 -33.7341 -23.247385
129 4 -10.51275 -35.5381 -24.876431
132 4 -10.54425 -33.6685 -23.173655
153 1 -13.92205 -31.9609 -24.750973
155 2 -12.31655 -32.0612 -22.96512
157 4 -10.6504 -31.9681 -24.95720755
293 4 -14.19435 -35.4838 -21.337845
294 2 -12.3909 -33.5476 -21.4599
297 1 -10.59855 -35.4536 -21.4126
321 4 -14.13935 -31.9394 -21.24929
325 4 -10.60945 -31.8493 -21.38725
131 4 -8.70865 -35.5096 -23.084985
133 4 -6.87505 -35.6364 -24.806918
135 1 -5.1376 -35.5718 -23.051815
136 4 -6.8557 -33.7578 -23.05963
159 1 -8.66835 -32.0576 -23.261395
161 2 -6.75175 -32.0684 -24.6462055
163 2 -5.14155 -31.9409 -23.149985
298 4 -8.7727 -33.6723 -21.304375
301 1 -6.96105 -35.4214 -21.307795
302 4 -5.07655 -33.7046 -21.252815
329 3 -6.8866 -32.0092 -21.364845
134 3 -4.9911 -33.6179 -24.8624345
137 4 -3.28365 -35.5037 -24.692346
138 1 -1.6662 -33.7522 -24.8018065
139 1 -1.5921 -35.6492 -23.058085
140 1 -3.385 -33.7129 -22.90087
165 3 -3.417 -31.9156 -24.841197
167 4 -1.65505 -31.84 -23.16591
306 4 -1.6092 -33.5983 -21.27847
333 1 -3.3594 -31.8185 -21.35721
142 4 -23.0573 -30.1143 -24.8861745
144 1 -24.686576 -30.0225 -22.99765
148 1 -21.24375 -29.9403 -23.03159
310 3 -23.04791 -30.068 -21.155735
4706 4 -23.028265 -26.4508 -24.903768
4707 2 -23.22058 -28.2739 -22.88374
4708 2 -24.6940125 -26.4134 -23.14082
4709 4 -21.38668 -28.3282 -24.78235
4712 2 -21.41478 -26.6183 -23.04434
4803 2 -24.6881345 -28.1034 -21.09153
4804 3 -23.12553 -26.3498 -21.38551
4807 2 -21.46329 -28.3541 -21.198745
146 2 -19.31115 -30.1864 -24.9253115
150 3 -15.8323 -30.0608 -24.9319575
152 1 -17.5979 -30.0945 -23.142965
314 2 -19.1674 -30.0889 -21.215675
318 4 -15.90315 -30.1 -21.37767
4710 2 -19.64845 -26.2854 -24.8642905
4711 2 -19.38785 -28.4118 -23.0242
4713 2 -17.63685 -28.1752 -24.8611225
4714 2 -15.75995 -26.4347 -24.808533
4715 2 -15.91345 -28.3281 -23.173275
4716 2 -17.624 -26.5184 -23.015765
4808 1 -19.56835 -26.6598 -21.31002
4811 3 -17.5703 -28.345 -21.30011
4812 2 -15.95545 -26.33 -21.218485
154 2 -12.4366 -30.0037 -24.723331
156 1 -14.16585 -30.1754 -22.997525
160 1 -10.49755 -30.0941 -23.02972
322 4 -12.29975 -29.9249 -21.26263
4717 3 -14.24805 -28.2598 -24.866426
4718 4 -12.31695 -26.3119 -24.7493345
4719 1 -12.2878 -28.2274 -23.174455
4720 4 -14.1394 -26.5063 -22.97124
4721 2 -10.6225 -28.1228 -24.8492525
4724 3 -10.35855 -26.431 -23.204705
4815 1 -14.23555 -28.2047 -21.356535
4816 1 -12.2588 -26.3853 -21.412955
4819 4 -10.4431 -28.1198 -21.366175
158 4 -8.7304 -30.0389 -24.7420525
162 1 -5.08295 -30.1137 -24.6787345
164 4 -6.97845 -30.276 -22.95719
326 2 -8.7501 -30.299 -21.29796
330 4 -5.11855 -30.1332 -21.299665
4722 4 -8.78005 -26.3682 -24.8524075
4723 3 -8.88745 -28.1769 -23.24885
4725 2 -7.00555 -28.2391 -24.571144
4726 2 -5.09315 -26.4834 -24.555589
4727 4 -5.19305 -28.3464 -23.04617
4728 2 -7.14605 -26.4359 -22.98341
4820 2 -8.7416 -26.4099 -21.318805
4823 1 -7.09395 -28.4096 -21.439615
4824 1 -5.21205 -26.5516 -21.30729
166 2 -1.7128 -30.0675 -24.87707
168 3 -3.26155 -30.0342 -23.06441
334 4 -1.5819 -30.1127 -21.25257
4729 4 -3.3665 -28.3051 -24.715128
4730 2 -1.5972 -26.3637 -24.6169895
4731 1 -1.4722 -28.3027 -22.962105
4732 1 -3.31765 -26.5869 -23.037335
4827 4 -3.34915 -28.2922 -21.19162
4828 4 -1.5361 -26.5455 -21.287685
4733 2 -24.705809 -24.662 -24.7254955
4734 2 -22.8107 -22.9922 -24.8068005
4735 2 -23.066055 -24.5505 -22.966795
4736 3 -24.7792955 -22.9041 -22.915875
4737 2 -21.25419 -24.7072 -24.651466
4740 4 -21.13116 -22.8677 -22.92747
4831 3 -24.7246935 -24.7108 -21.493695
4832 1 -22.90202 -22.8308 -21.24577
4835 1 -21.165895 -24.6506 -21.25789
4738 4 -19.5035 -23.0307 -24.8779415
4739 1 -19.41945 -24.6483 -23.1266
4741 3 -17.64395 -24.8781 -24.818387
4742 2 -15.94195 -22.9654 -24.738531
4743 4 -15.9846 -24.7774 -23.07395
4744 2 -17.7007 -23.0451 -23.031895
4836 2 -19.52065 -22.591 -21.2935
4839 2 -18.07085 -24.6418 -21.19555
4840 1 -16.13905 -23.0787 -21.219625
4745 2 -14.1559 -24.8392 -24.9362215
4746 2 -12.60825 -23.1201 -24.7379515
4747 2 -12.29005 -24.6836 -23.130925
4748 3 -14.21035 -23.2407 -23.08462
4749 3 -10.444 -24.7414 -24.8139635
4752 4 -10.5159 -22.9771 -23.225825
4843 3 -14.1887 -24.6572 -21.394075
4844 4 -12.385 -23.0464 -21.511585
4847 1 -10.4911 -24.7125 -21.25779
4750 2 -8.59925 -22.9318 -24.831056
4751 3 -8.81145 -24.6651 -23.217425
4753 1 -6.80705 -24.7574 -24.904533
4756 2 -6.8259 -22.7151 -23.335595
4848 4 -8.67445 -22.9022 -21.534715
4851 1 -6.9599 -24.6379 -21.36321
4852 4 -5.2094 -22.9904 -21.4752
4754 2 -4.99515 -22.8747 -24.835409
4755 3 -4.9243 -24.5844 -23.13543
4757 2 -3.1464 -24.6079 -24.781481
4758 4 -1.5856 -22.9318 -24.774708
4759 4 -1.60965 -24.723 -23.080875
4760 4 -3.3515 -22.7095 -23.127785
4855 4 -3.41805 -24.8396 -21.20396
4856 2 -1.67225 -22.8493 -21.409675
4761 2 -24.568501 -21.2993 -24.9568838
4762 1 -23.050685 -19.4292 -24.8014965
4763 4 -22.89852 -21.083 -22.907215
4764 1 -24.876194 -19.4938 -23.08782
4765 1 -21.15852 -21.2705 -24.6904265
4768 1 -21.195525 -19.3113 -22.8504
4789 2 -24.774738 -17.6348 -24.6987095
4790 4 -22.86111 -17.6905 -22.882835
4791 4 -21.191855 -17.4163 -24.782438
4859 4 -24.808885 -21.2162 -21.277525
4860 2 -22.83057 -19.4472 -21.0482
4863 2 -21.067955 -21.2034 -21.0644
4887 1 -24.5464645 -17.5732 -21.240785
4889 2 -21.29793 -17.302 -21.136465
4766 4 -19.42495 -19.2589 -24.719534
4767 4 -19.475 -20.9421 -22.938465
4769 1 -17.8691 -21.1328 -24.8326615
4770 3 -15.7451 -19.2177 -24.906931
4771 1 -15.88065 -21.1805 -23.16225
4772 1 -17.65965 -19.2862 -23.019715
4792 1 -19.4408 -17.5465 -22.89896
4793 1 -17.59755 -17.4091 -24.916702
4794 2 -16.11725 -17.3414 -23.02754
4864 3 -19.4951 -19.3522 -20.93852
4867 2 -17.8088 -20.9179 -21.02736
4868 4 -16.05515 -19.2059 -21.33089
4891 2 -17.82015 -17.6209 -21.078345
4773 2 -13.9753 -20.9885 -24.96925775
4774 1 -12.40095 -19.2451 -24.7912875
4775 1 -12.25805 -21.2975 -23.21369
4776 4 -14.22585 -19.4167 -23.075095
4780 2 -10.43555 -19.4532 -23.127675
4795 3 -14.4171 -17.5751 -24.5540455
4796 4 -12.3426 -17.5494 -23.00537
4797 4 -10.5758 -17.6268 -24.7960335
4871 1 -14.19995 -21.2372 -21.35213
4872 1 -12.31935 -19.3201 -21.337715
4875 2 -10.39695 -21.0156 -21.20333
4893 2 -14.2074 -17.4164 -21.36307
4895 1 -10.50645 -17.5446 -21.27884
4779 1 -8.872 -21.1473 -23.14551
4781 3 -6.78645 -20.9644 -24.8502245
4782 3 -5.08065 -19.3768 -24.8519935
4783 3 -5.10495 -21.0524 -23.27785
4784 4 -7.01325 -19.5055 -22.951545
4798 1 -8.6927 -17.7972 -23.22949
4799 2 -6.85895 -17.6671 -24.7297075
4800 1 -5.3067 -17.6693 -22.95598
4876 3 -8.71545 -19.4379 -20.99317
4879 1 -6.9407 -21.2976 -21.274955
4880 2 -5.23825 -19.4507 -21.27976
4897 2 -7.09375 -17.7262 -21.21222
4785 3 -3.32415 -21.0921 -24.9043175
4786 1 -1.5079 -19.3201 -24.96992935
4787 2 -1.47205 -21.0712 -23.114915
4788 3 -3.33825 -19.4686 -23.266355
4801 4 -3.33855 -17.6723 -24.7962035
4802 4 -1.41885 -17.5466 -23.06942
4883 1 -3.4023 -21.0811 -21.35628
4884 4 -1.57285 -19.396 -21.33753
4899 1 -3.42415 -17.7766 -21.342795
171 2 -23.03859 -49.895759 -19.4757
172 4 -24.6842645 -48.22306 -19.3938
176 4 -21.247195 -48.1991 -19.503
199 1 -23.09071 -46.38237 -19.4002
337 2 -24.611048 -49.54402 -17.70495
338 4 -23.047175 -48.13434 -17.65535
339 4 -23.107635 -49.733561 -15.7394
340 4 -24.792268 -48.06005 -15.90195
341 3 -21.288535 -49.434052 -17.66445
344 4 -21.13901 -48.13391 -15.89625
365 4 -24.826066 -46.31894 -17.64375
367 4 -23.01534 -46.25677 -15.9118
369 1 -21.37025 -46.3322 -17.6437
175 2 -19.3535 -49.675213 -19.70925
179 3 -15.81335 -49.497766 -19.4482
180 1 -17.65545 -47.70198 -19.3974
203 4 -19.59095 -46.31737 -19.48925
207 2 -15.8632 -46.27787 -19.24795
342 3 -19.61565 -48.00659 -17.78375
345 1 -17.7518 -49.576733 -17.82815
346 3 -15.8211 -48.00477 -17.663
347 3 -16.24315 -49.665078 -15.9208
348 4 -17.77835 -47.96021 -16.17095
371 4 -19.4871 -46.23813 -16.0802
373 2 -17.5953 -46.18312 -17.75195
375 3 -16.09845 -46.20649 -16.0562
183 4 -12.4518 -49.429842 -19.55755
184 3 -14.197 -47.97521 -19.46325
188 1 -10.6116 -47.88855 -19.53775
211 4 -12.4147 -46.27255 -19.54105
349 4 -14.07285 -49.796516 -17.8579
350 4 -12.43955 -47.91569 -17.58955
351 4 -12.26895 -49.8334 -15.9753
352 4 -14.31435 -48.22224 -15.98355
353 4 -10.58125 -49.497482 -17.7738
356 4 -10.4243 -48.0272 -15.846
377 1 -14.14105 -46.16811 -17.69225
379 2 -12.4961 -46.21746 -16.1163
381 1 -10.60835 -46.1888 -17.5281
187 4 -8.7309 -49.479481 -19.47105
191 1 -5.18355 -49.52729 -19.6423
192 4 -6.8388 -47.72453 -19.51295
215 2 -8.7326 -46.21935 -19.59305
219 3 -5.06035 -46.1331 -19.39445
354 1 -8.7211 -47.78297 -17.7677
355 3 -8.61345 -49.415051 -15.8882
357 1 -6.90695 -49.547212 -17.87565
358 3 -5.12055 -47.68408 -17.7872
359 1 -5.06305 -49.566314 -15.96345
360 3 -6.96 -47.91764 -15.90585
383 4 -8.69955 -46.27879 -15.73615
385 1 -6.949 -46.04153 -17.57175
387 2 -5.09665 -46.3413 -15.98055
195 1 -1.54555 -49.412373 -19.6027
196 4 -3.4334 -47.75129 -19.5233
223 1 -1.68025 -46.11676 -19.47655
361 1 -3.28545 -49.338947 -17.67495
362 4 -1.5414 -47.67156 -17.6753
363 4 -1.29245 -49.45333 -16.0513
364 4 -3.29895 -47.97329 -15.69925
389 4 -3.442 -46.13221 -17.56595
391 1 -1.56985 -46.10228 -15.7034
200 1 -24.9665438 -44.61273 -19.37685
204 4 -21.24946 -44.39407 -19.45355
227 4 -23.22753 -42.51847 -19.3528
228 2 -24.868708 -40.81408 -19.3683
232 3 -21.1499 -40.90865 -19.4089
366 4 -22.99971 -44.34459 -17.74555
368 1 -24.6649235 -44.47354 -15.9626
372 4 -21.208255 -44.48101 -15.9579
393 3 -24.8703825 -42.59822 -17.6738
394 1 -22.89501 -40.90892 -17.49815
395 2 -22.7858 -42.7087 -16.18685
396 3 -24.8840725 -41.01444 -16.0408
397 4 -21.27271 -42.65797 -17.7264
400 2 -21.20963 -41.04147 -15.9632
208 4 -17.7495 -44.5709 -19.3266
231 4 -19.5035 -42.6609 -19.4622
235 3 -16.1319 -42.82449 -19.5326
236 2 -17.7577 -41.10995 -19.5894
370 1 -19.4908 -44.42813 -17.711
374 4 -15.9677 -44.45972 -17.64175
376 4 -17.77745 -44.45382 -15.96375
398 4 -19.467 -40.91553 -17.72505
399 3 -19.60355 -42.55751 -15.99865
401 4 -17.73225 -42.67134 -17.67625
402 1 -16.0316 -40.98697 -17.7351
403 4 -15.9353 -42.69071 -15.95255
404 4 -17.62945 -40.86917 -15.93425
212 4 -14.1892 -44.37534 -19.43525
216 4 -10.5258 -44.46365 -19.4954
239 4 -12.38565 -42.62811 -19.49185
240 1 -14.151 -41.02904 -19.568
244 4 -10.4913 -40.87199 -19.56105
378 1 -12.2986 -44.31393 -17.81055
380 4 -14.1496 -44.39987 -15.9462
384 4 -10.5067 -44.352 -15.9543
405 1 -14.18745 -42.65579 -17.66765
406 3 -12.2474 -40.87069 -17.8166
407 4 -12.34105 -42.56077 -15.9419
408 4 -14.23585 -40.80878 -16.00635
409 4 -10.5539 -42.60794 -17.7549
412 1 -10.5865 -40.77402 -15.98745
220 1 -6.9513 -44.45676 -19.52615
243 1 -8.8036 -42.57165 -19.52775
247 4 -5.17445 -42.71781 -19.5442
248 4 -6.9415 -40.83314 -19.5755
382 4 -8.69585 -44.45411 -17.6733
386 4 -5.17885 -44.43044 -17.6231
388 4 -6.8859 -44.47424 -15.7832
410 4 -8.69 -40.8344 -17.7305
411 1 -8.70445 -42.65713 -15.9937
413 1 -6.8656 -42.59403 -17.73325
414 4 -5.07435 -40.87769 -17.6646
415 1 -5.11795 -42.62757 -15.8859
416 2 -6.859 -40.88079 -15.8917
224 1 -3.35365 -44.36715 -19.444
251 1 -1.49385 -42.50134 -19.3834
252 1 -3.44365 -40.83918 -19.4292
390 4 -1.48325 -44.40886 -17.59165
392 4 -3.35485 -44.34313 -15.83145
417 4 -3.2868 -42.66642 -17.6864
418 4 -1.44005 -40.82447 -17.6466
419 4 -1.4478 -42.6568 -15.88205
420 1 -3.20035 -40.78799 -16.01545
255 1 -23.043495 -39.2599 -19.55245
256 1 -24.738455 -37.4022 -19.4455
260 4 -21.322695 -37.2797 -19.46865
421 4 -24.682091 -39.1508 -17.76855
422 1 -23.01567 -37.44 -17.52045
423 4 -23.107915 -39.2856 -15.8707
424 4 -24.8530595 -37.3415 -16.0146
425 4 -21.290605 -39.1303 -17.7706
428 1 -21.248265 -37.261 -15.793
259 4 -19.56585 -39.0659 -19.5861
263 4 -15.9403 -39.2551 -19.5359
264 1 -17.6988 -37.3297 -19.4676
426 4 -19.5042 -37.3635 -17.6533
427 1 -19.6537 -39.2993 -15.94625
429 1 -17.784 -39.2368 -17.8474
430 4 -16.0047 -37.372 -17.73855
431 3 -15.99775 -39.0969 -15.9732
432 1 -17.8016 -37.3517 -15.95355
267 4 -12.3182 -39.1698 -19.56175
268 4 -14.15905 -37.3554 -19.5332
272 1 -10.56385 -37.3597 -19.5633
433 1 -14.1784 -39.1506 -17.8275
434 1 -12.3727 -37.3035 -17.80895
435 4 -12.39475 -39.0605 -16.04805
436 1 -14.22435 -37.2634 -16.0145
437 4 -10.52755 -39.1044 -17.7817
440 4 -10.53855 -37.2812 -15.9976
271 4 -8.76375 -39.0781 -19.5653
275 4 -5.1966 -39.0718 -19.55265
276 4 -6.9057 -37.2802 -19.4795
438 3 -8.79965 -37.409 -17.7159
439 4 -8.7435 -39.069 -15.99085
441 1 -6.92255 -39.0926 -17.7838
442 2 -5.0868 -37.3057 -17.84105
444 4 -6.88265 -37.2723 -16.04585
443 3 -4.98795 -38.9976 -16.1348
279 3 -1.39115 -39.3056 -19.4492
280 1 -3.27625 -37.401 -19.41295
445 4 -3.2707 -39.0833 -17.7989
446 1 -1.50895 -37.402 -17.5848
447 4 -1.48365 -39.1006 -15.89755
448 4 -3.31975 -37.3227 -16.0231
283 1 -22.96123 -35.461 -19.5527
284 2 -24.8398905 -33.6397 -19.6013
288 4 -21.13215 -33.6722 -19.48725
311 4 -22.93593 -31.8634 -19.4703
449 4 -24.644915 -35.5695 -17.87265
450 1 -23.09143 -33.6596 -17.7924
451 4 -23.1553 -35.5092 -15.84095
452 4 -24.7816895 -33.6751 -16.02015
453 1 -21.226185 -35.5046 -17.61625
456 4 -21.336935 -33.6985 -15.9346
477 4 -24.744419 -31.9272 -17.85735
479 1 -23.02777 -31.8513 -15.9982
481 4 -21.233965 -31.856 -17.7661
287 1 -19.4616 -35.5282 -19.54625
291 3 -16.00395 -35.4553 -19.32655
292 4 -17.6945 -33.6695 -19.493
315 4 -19.4947 -31.7371 -19.6048
319 1 -15.99255 -31.9009 -19.3665
454 1 -19.4333 -33.5619 -17.7049
455 2 -19.3615 -35.3993 -15.78385
457 4 -17.7594 -35.4789 -17.74635
458 4 -16.0147 -33.6474 -17.5028
459 1 -16.0582 -35.5334 -15.9408
460 2 -17.87825 -33.9603 -16.0141
483 4 -19.58135 -31.878 -15.8981
485 4 -17.6981 -31.8474 -17.6097
487 3 -15.90805 -31.8252 -15.9414
295 4 -12.38515 -35.4581 -19.6463
296 1 -14.12555 -33.7579 -19.4398
300 4 -10.54285 -33.6942 -19.48065
323 4 -12.29165 -31.8475 -19.4644
461 4 -14.21305 -35.4816 -17.72965
462 1 -12.3648 -33.6062 -17.62205
463 4 -12.2864 -35.5305 -15.94765
464 1 -14.1824 -33.7813 -15.8598
465 1 -10.56585 -35.4554 -17.7299
468 4 -10.47635 -33.7218 -15.91555
489 4 -14.16145 -31.9256 -17.6012
491 3 -12.43665 -31.8022 -15.7727
493 1 -10.45915 -31.8562 -17.6469
299 1 -8.6949 -35.501 -19.47895
303 3 -5.05425 -35.5643 -19.73215
304 4 -6.9108 -33.7329 -19.5377
327 1 -8.8159 -31.8838 -19.63935
331 1 -5.13905 -31.9111 -19.54445
466 4 -8.69645 -33.7003 -17.76925
467 1 -8.6883 -35.5216 -16.0021
469 1 -6.7562 -35.5382 -17.7442
470 4 -5.08545 -33.6406 -17.812
471 4 -5.08455 -35.5253 -15.9394
472 4 -6.89635 -33.7529 -16.02035
495 4 -8.69915 -31.9246 -15.89685
497 1 -7.0226 -31.9262 -17.7892
499 1 -5.2098 -31.9609 -15.95265
307 1 -1.5959 -35.3856 -19.5064
308 2 -3.39295 -33.8549 -19.53325
335 3 -1.5066 -32.0888 -19.5513
473 1 -3.4336 -35.4752 -17.61905
474 2 -1.5654 -33.7383 -17.66985
475 3 -1.52435 -35.3992 -15.8724
476 4 -3.34 -33.6604 -15.97015
501 1 -3.2372 -31.9499 -17.70725
503 2 -1.32695 -31.9889 -15.85145
312 3 -24.611117 -30.089 -19.5829
316 1 -21.131705 -30.1019 -19.4889
478 3 -23.00795 -30.0852 -17.80515
480 1 -24.7829905 -30.0079 -16.01815
484 4 -21.37366 -29.9839 -15.9868
4805 1 -22.89969 -28.1303 -19.46745
4810 4 -21.28361 -26.3581 -19.57905
4901 2 -24.5962635 -28.3489 -17.858
4902 4 -23.110695 -26.3967 -17.8744
4903 4 -23.126775 -28.2032 -16.07475
4904 1 -24.7145395 -26.4613 -16.0433
4905 2 -21.232485 -28.245 -17.75165
4908 4 -21.367935 -26.4423 -15.98825
320 4 -17.63625 -30.08 -19.52705
482 4 -19.44435 -30.0568 -17.6563
486 4 -15.87955 -30.0685 -17.66165
488 1 -17.80515 -30.0856 -15.8641
4809 2 -19.51345 -28.1695 -19.5523
4813 1 -15.90485 -28.2728 -19.39315
4814 1 -17.6784 -26.3939 -19.53315
4906 3 -19.711 -26.376 -17.795
4907 2 -19.69315 -28.2338 -16.15625
4909 1 -17.8757 -28.2878 -17.82405
4910 4 -15.97145 -26.3528 -17.54635
4911 1 -15.83865 -28.2777 -15.97935
4912 1 -17.8017 -26.4171 -15.9317
324 1 -14.11545 -30.1518 -19.5129
328 4 -10.39175 -29.9989 -19.6088
490 1 -12.348 -30.1306 -17.6618
492 2 -14.07925 -29.9863 -15.9216
496 4 -10.56315 -30.0856 -15.86225
4817 1 -12.1659 -28.1544 -19.51825
4818 1 -14.1537 -26.3184 -19.41185
4822 2 -10.20825 -26.4346 -19.57005
4913 4 -14.05315 -28.254 -17.70515
4914 4 -12.239 -26.4283 -17.714
4915 1 -12.5677 -28.165 -15.73445
4916 3 -14.09835 -26.2041 -15.94075
4917 1 -10.47475 -28.3082 -17.61225
4920 1 -10.6941 -26.3354 -15.78445
332 4 -7.071 -30.1033 -19.6169
494 4 -8.7392 -30.0434 -17.68655
498 4 -5.21625 -30.1066 -17.78885
500 1 -7.01705 -30.0874 -15.92765
4821 3 -8.71695 -28.2973 -19.5222
4825 1 -5.19305 -28.3833 -19.49285
4826 3 -7.13545 -26.5434 -19.4887
4918 1 -8.73365 -26.4501 -17.68315
4919 4 -8.6684 -28.1533 -15.83785
4921 4 -6.98365 -28.2066 -17.78995
4922 4 -5.18185 -26.4446 -17.8072
4923 4 -5.1911 -28.3148 -15.95825
4924 1 -6.88225 -26.3589 -15.9181
336 4 -3.3405 -30.1641 -19.50465
502 4 -1.57595 -30.2105 -17.7039
504 4 -3.4066 -30.1819 -15.95805
4829 4 -1.50205 -28.3655 -19.4351
4830 3 -3.1846 -26.4943 -19.451
4925 4 -3.4063 -28.3278 -17.7826
4926 2 -1.7521 -26.4026 -17.8586
4927 4 -1.59845 -28.1449 -16.0089
4928 1 -3.43005 -26.5041 -16.0949
4806 3 -24.636594 -26.1717 -19.65615
4833 2 -22.947545 -24.7207 -19.4644
4834 1 -24.7290655 -23.0115 -19.64485
4838 4 -21.167755 -22.9422 -19.5059
4929 4 -24.8168945 -24.5064 -17.8515
4930 3 -22.91514 -22.9352 -17.8515
4931 4 -23.12555 -24.6079 -15.9672
4932 1 -24.7501315 -22.7179 -16.0839
4933 2 -21.35534 -24.7413 -17.78835
4936 1 -21.226145 -22.9314 -16.04205
4837 3 -19.5609 -24.6282 -19.3213
4841 2 -15.9844 -24.6198 -19.4248
4842 4 -17.8303 -22.8002 -19.57705
4934 4 -19.4922 -22.8696 -17.64835
4935 4 -19.5653 -24.6977 -16.02185
4937 1 -17.74655 -24.5577 -17.7058
4938 4 -15.9151 -22.9293 -17.8247
4939 2 -15.7772 -24.7225 -15.7458
4940 4 -17.64765 -22.9506 -15.87155
4845 4 -12.333 -24.6805 -19.58255
4846 4 -14.2079 -22.9542 -19.68645
4850 4 -10.57455 -22.8444 -19.6607
4941 4 -14.13025 -24.6595 -17.7492
4942 1 -12.313 -22.9743 -17.8955
4943 4 -12.3514 -24.62 -15.90985
4944 1 -14.213 -22.9369 -15.9565
4945 4 -10.3424 -24.729 -17.6418
4948 4 -10.46475 -22.9595 -15.8623
4849 4 -8.6653 -24.6228 -19.5147
4853 1 -5.10445 -24.6152 -19.44515
4854 2 -6.973 -22.8755 -19.47955
4946 2 -8.6605 -22.94 -17.5199
4947 2 -8.78545 -24.4619 -15.8759
4949 4 -6.92045 -24.6785 -17.7474
4951 2 -5.1448 -24.6933 -15.7899
4952 3 -6.94155 -23.0017 -15.90265
4950 4 -4.99535 -22.9682 -17.60065
4857 4 -1.5004 -24.6441 -19.52565
4858 4 -3.322 -22.8892 -19.60035
4953 2 -3.1467 -24.7807 -17.60275
4954 2 -1.5099 -22.718 -17.4758
4955 4 -1.46685 -24.8013 -15.97795
4956 2 -3.30335 -22.9188 -15.9035
4861 4 -23.0577 -21.1861 -19.4229
4862 2 -24.9016975 -19.3166 -19.4592
4866 3 -21.20984 -19.2845 -19.54365
4888 4 -23.002155 -17.4894 -19.4075
4957 2 -24.691624 -21.0603 -17.70535
4958 1 -23.168875 -19.2785 -17.8944
4959 2 -22.85153 -21.0531 -16.10715
4960 3 -24.8186385 -19.5411 -15.82775
4961 2 -21.22531 -21.0838 -17.7328
4964 3 -21.24888 -19.2623 -16.0616
4985 4 -24.667188 -17.4753 -17.63385
4986 2 -22.970955 -17.6131 -15.98875
4987 2 -21.44691 -17.5204 -17.64905
4865 4 -19.6249 -21.0993 -19.26325
4869 4 -15.97865 -20.9853 -19.5516
4870 3 -17.80955 -19.3371 -19.41205
4890 2 -19.64175 -17.4496 -19.39525
4892 2 -16.2064 -17.4526 -19.51485
4962 3 -19.6834 -19.2576 -17.82455
4963 4 -19.58935 -20.9323 -15.98875
4965 4 -17.76865 -21.0907 -17.7222
4966 4 -15.96725 -19.232 -17.78755
4967 4 -15.9805 -21.0353 -15.99845
4968 1 -17.7357 -19.3267 -16.0624
4988 1 -19.4505 -17.496 -15.94815
4989 1 -17.68375 -17.368 -17.82715
4990 4 -15.96485 -17.4962 -15.9912
4873 4 -12.39895 -21.1815 -19.69355
4874 1 -14.28305 -19.2588 -19.59665
4878 3 -10.38945 -19.4432 -19.52585
4894 2 -12.31525 -17.5259 -19.58535
4969 4 -14.1536 -21.0521 -17.79495
4970 1 -12.3389 -19.3228 -17.8852
4971 1 -12.17205 -21.3031 -15.98965
4972 1 -14.17555 -19.3182 -15.93155
4973 2 -10.50575 -20.9871 -17.9414
4976 1 -10.5601 -19.3399 -15.9416
4991 1 -14.25475 -17.4732 -17.78855
4992 3 -12.2915 -17.407 -16.04845
4993 4 -10.5945 -17.5875 -17.8232
4877 4 -8.69755 -21.2619 -19.4132
4881 1 -5.2976 -21.2059 -19.40365
4882 3 -7.0265 -19.3796 -19.38145
4896 1 -8.68955 -17.4422 -19.3699
4898 4 -5.24945 -17.6059 -19.47635
4974 4 -8.73555 -19.3002 -17.6849
4975 2 -8.64285 -21.3101 -15.78535
4977 4 -7.00385 -21.2173 -17.62645
4978 4 -5.1858 -19.4088 -17.6586
4979 1 -5.1564 -21.1567 -15.95215
4980 1 -6.99945 -19.4179 -15.97135
4994 1 -8.81315 -17.5123 -15.8447
4995 4 -6.94905 -17.4973 -17.61515
4996 4 -5.1395 -17.6505 -15.8127
4885 1 -1.50275 -20.9643 -19.4283
4886 4 -3.46445 -19.4428 -19.49415
4900 1 -1.6074 -17.7256 -19.4745
4981 1 -3.27875 -21.1835 -17.7103
4982 4 -1.55 -19.2883 -17.581
4983 3 -1.3855 -21.0939 -15.8965
4984 3 -3.1553 -19.4235 -15.8886
4997 1 -3.47155 -17.6692 -17.6664
4998 2 -1.5081 -17.5167 -15.67135
505 2 -24.8624985 -49.58252 -14.17835
506 3 -22.83178 -47.89375 -14.21395
507 2 -22.840675 -49.312664 -12.15075
508 1 -24.658147 -47.95545 -12.35435
509 1 -21.324095 -49.810009 -14.0586
512 1 -21.264805 -47.8244 -12.24385
533 1 -24.743424 -46.30006 -14.17165
535 4 -22.956845 -46.17755 -12.4652
537 4 -21.097335 -46.26161 -14.156
673 4 -24.817696 -49.50893 -10.56205
674 4 -23.010475 -47.92257 -10.51425
677 4 -21.083865 -49.438009 -10.34455
701 1 -24.575428 -46.07596 -10.5808
705 4 -21.33908 -46.11836 -10.433
510 1 -19.42545 -48.00587 -14.3178
511 4 -19.52115 -49.422096 -12.3011
513 4 -17.7254 -49.542703 -14.0712
514 1 -16.03435 -47.9028 -14.23835
515 1 -16.0429 -49.470472 -12.3596
516 2 -17.80045 -47.7088 -12.32815
539 2 -19.5958 -46.18838 -12.1232
541 3 -17.7337 -46.19688 -14.356
543 1 -15.97565 -46.39018 -12.32005
678 2 -19.3229 -47.89818 -10.4147
681 3 -17.8519 -49.545678 -10.572
682 4 -15.98835 -48.04617 -10.4671
709 4 -17.818 -46.22623 -10.5369
517 1 -14.2408 -49.68629 -14.1334
518 1 -12.2549 -48.26491 -14.1774
519 3 -12.126 -49.613468 -12.09195
520 4 -14.03405 -48.03088 -12.39665
521 4 -10.4159 -49.841416 -14.17795
524 3 -10.43815 -48.11547 -12.2979
545 1 -14.0613 -46.38121 -14.3882
547 4 -12.26755 -46.28883 -12.5051
549 1 -10.50385 -46.32636 -14.18475
685 1 -14.195 -49.586552 -10.46215
686 1 -12.4003 -47.74835 -10.5625
689 2 -10.4041 -49.338359 -10.432
713 4 -14.1809 -46.21253 -10.67655
717 1 -10.50865 -46.1529 -10.7382
522 2 -8.81775 -48.07342 -13.9588
523 2 -8.6465 -49.517173 -12.3217
525 3 -6.95785 -49.358056 -14.19595
528 4 -6.82115 -47.86787 -12.387
551 4 -8.704 -46.20008 -12.36775
553 1 -6.94465 -46.22109 -14.12015
555 4 -5.14635 -46.12341 -12.3403
690 3 -8.60985 -47.82532 -10.63115
693 4 -6.92775 -49.459508 -10.46335
721 4 -6.85855 -46.15872 -10.5278
3025 4 -0.07265 -49.569527 -10.3933
526 1 -4.9977 -47.79157 -14.0672
527 4 -4.94895 -49.520709 -12.2949
694 4 -4.99075 -47.80023 -10.51235
529 3 -3.4186 -49.83683 -14.01375
530 1 -1.49405 -48.13385 -14.0676
531 1 -1.5564 -49.730432 -12.11275
532 4 -3.1929 -47.84971 -12.34925