# LAMMPS data file written by OVITO Basic 3.8.4

21952 atoms
4 atom types

-25.0 25.0 xlo xhi
-50.0 50.0 ylo yhi
-25.0 25.0 zlo zhi

Masses

1 24.305  # Mg
2 26.981538  # Al
3 63.546  # Cu
4 65.409  # Zn

Atoms  # atomic

1 1 -24.643138 -49.301476 -24.7104715
2 2 -22.88698 -47.64117 -24.622791
3 3 -22.873765 -49.387777 -22.927895
4 1 -24.6326185 -47.62924 -22.8679
5 2 -21.21702 -49.408996 -24.702063
8 3 -21.3231 -47.77353 -23.13446
29 4 -24.67038 -45.96269 -24.6070345
31 4 -22.790285 -45.94532 -22.926
33 4 -21.16321 -45.81316 -24.810747
169 4 -24.6871005 -49.40937 -21.106355
170 4 -22.932 -47.67507 -21.186545
173 4 -21.17334 -49.388044 -21.20871
197 4 -24.680703 -45.93437 -21.226035
201 1 -21.267045 -45.86948 -21.116865
6 2 -19.6318 -47.75161 -24.747619
7 3 -19.63535 -49.339139 -23.121465
9 1 -17.69745 -49.532906 -24.8783855
10 2 -16.01955 -47.82679 -24.750719
11 4 -16.0059 -49.403358 -23.09388
12 3 -17.78885 -47.8305 -23.0616
35 4 -19.6255 -46.15561 -23.007725
37 4 -17.8827 -46.22219 -24.7262225
39 4 -16.02335 -46.15579 -23.114615
174 1 -19.46865 -47.69103 -21.214795
177 2 -17.9884 -49.305948 -21.20591
178 3 -16.07305 -47.76075 -21.29724
205 4 -17.8166 -46.07423 -21.32092
13 2 -14.15395 -49.416126 -24.7144175
14 3 -12.35145 -47.79353 -24.7950705
15 4 -12.40605 -49.347673 -23.065745
16 4 -14.2376 -47.73115 -23.086205
17 4 -10.3524 -49.656918 -24.7009435
20 1 -10.4106 -47.64475 -23.244455
41 3 -14.14185 -46.09116 -24.786886
43 1 -12.49915 -46.07325 -22.937075
45 2 -10.84315 -46.03285 -24.801182
181 3 -14.25025 -49.117744 -21.113275
182 4 -12.60295 -47.57972 -21.240745
185 1 -10.6478 -49.109533 -21.220555
209 2 -14.43285 -45.96125 -21.41529
213 1 -10.52125 -45.96512 -21.25288
18 2 -8.4695 -47.89147 -24.817154
19 4 -8.6399 -49.20463 -23.007915
21 2 -6.84875 -49.50308 -24.8176875
22 3 -5.21025 -47.86535 -24.758211
23 3 -5.36205 -49.314708 -23.00112
24 3 -7.03695 -47.61049 -23.079925
47 4 -8.688 -45.90993 -23.186865
49 4 -6.7442 -45.98979 -24.925388
51 4 -5.15735 -46.06492 -23.101145
186 4 -8.62745 -47.5169 -21.237615
189 4 -6.88815 -49.23975 -21.190735
190 1 -5.11545 -47.61815 -21.269505
217 2 -6.7546 -45.7883 -21.430345
25 3 -3.3338 -49.400888 -24.8885535
26 4 -1.489 -47.69818 -24.8445135
27 4 -1.6645 -49.479988 -23.072585
28 4 -3.35555 -47.71302 -23.11004
53 1 -3.2647 -46.05888 -24.7644735
55 4 -1.586 -45.79808 -23.19823
193 4 -3.37185 -49.341693 -21.24068
194 4 -1.5797 -47.71388 -21.261175
221 4 -3.43935 -45.94549 -21.33268
30 1 -23.0009 -44.20957 -24.6421095
32 2 -24.656076 -43.93441 -22.97299
36 3 -21.051515 -44.27629 -23.049195
58 1 -23.30793 -40.83771 -24.917598
59 2 -22.87451 -42.48344 -22.963365
60 3 -24.702611 -40.88621 -22.919445
61 1 -21.07635 -42.53906 -24.82189
64 4 -21.23389 -40.90014 -23.192705
198 4 -22.902355 -44.17035 -21.188055
225 4 -24.736075 -42.37468 -21.190745
226 1 -22.912655 -40.72739 -21.250985
229 1 -21.124265 -42.50791 -21.286885
34 2 -19.2937 -44.3978 -24.892725
38 3 -15.92295 -44.3862 -24.829376
40 2 -17.68115 -44.41869 -23.35838
62 4 -19.39965 -40.75671 -24.9557524
63 4 -19.35615 -42.65494 -23.11769
65 4 -17.65055 -42.49646 -24.7923775
66 1 -15.9523 -40.73856 -24.7401215
67 1 -15.9046 -42.56308 -23.08708
68 2 -17.66165 -40.63858 -22.94861
202 3 -19.35765 -44.3257 -21.457495
206 2 -15.97445 -44.49787 -21.333615
230 4 -19.2604 -40.93533 -21.356405
233 4 -17.5932 -42.92975 -21.405195
234 4 -15.9342 -40.79713 -21.301425
42 4 -12.3726 -44.33372 -24.607652
44 4 -14.25045 -44.32933 -23.116085
48 1 -10.4659 -44.31439 -23.096605
69 2 -14.0536 -42.72601 -24.85132
70 1 -12.277 -40.68343 -24.808128
71 3 -12.48345 -42.69239 -22.94821
72 4 -13.9637 -40.92958 -23.13613
73 1 -10.6054 -42.57199 -24.789773
76 2 -10.5966 -40.91859 -22.91604
210 3 -12.45085 -44.12235 -21.247865
237 4 -14.26075 -42.58464 -21.302655
238 1 -12.4084 -40.73374 -21.279105
241 1 -10.43945 -42.56526 -21.25045
46 2 -8.4115 -44.06324 -24.801373
50 3 -5.0674 -44.24595 -24.744468
52 2 -6.9471 -44.37975 -23.118415
74 3 -8.87895 -40.73638 -24.655332
75 4 -8.72265 -42.5342 -23.044755
77 1 -6.9022 -42.4441 -24.699261
78 4 -5.07075 -40.91785 -24.892027
79 4 -5.10245 -42.57155 -23.103215
80 4 -7.05215 -40.7147 -23.00062
214 4 -8.80425 -44.2319 -21.115055
218 1 -5.16825 -44.23157 -21.319255
242 2 -8.88685 -40.91169 -21.02024
245 1 -7.0613 -42.55 -21.30896
246 1 -5.12345 -40.82579 -21.1849
56 3 -3.36045 -44.19516 -23.067775
81 2 -3.17165 -42.76517 -24.7792845
82 3 -1.5016 -40.7933 -24.8920385
83 4 -1.59905 -42.48249 -23.04436
84 1 -3.4187 -40.86599 -23.156615
222 1 -1.5071 -44.28811 -21.231325
249 4 -3.37065 -42.60341 -21.258925
250 1 -1.5348 -40.82453 -21.1818
86 4 -22.992795 -37.3375 -24.815042
87 4 -23.007795 -39.083 -23.01959
88 4 -24.7472805 -37.2652 -22.97331
89 1 -21.22448 -39.0057 -24.8226635
92 4 -21.130325 -37.2242 -23.019305
253 4 -24.740706 -39.1242 -21.22637
254 4 -22.92927 -37.3537 -21.193825
257 4 -21.190605 -39.1569 -21.187935
90 1 -19.3891 -37.2135 -24.875774
91 4 -19.4167 -39.0731 -23.059815
94 2 -15.62325 -37.4242 -24.941388
95 4 -15.8989 -39.011 -23.118375
96 4 -17.66635 -37.2253 -23.231695
258 4 -19.32125 -37.3315 -21.292715
261 4 -17.65315 -39.0927 -21.388195
262 4 -15.97525 -37.1871 -21.29164
97 4 -14.0441 -39.0304 -24.911123
98 4 -12.212 -37.078 -24.745803
99 4 -12.2304 -39.0503 -23.116055
100 2 -14.3162 -37.3041 -23.21398
101 3 -10.43985 -38.9453 -24.7750235
104 4 -10.52915 -37.1748 -22.985455
265 4 -14.12535 -39.0847 -21.280805
266 1 -12.39065 -37.333 -21.337065
269 4 -10.49985 -39.1516 -21.257385
102 3 -9.0065 -37.1937 -24.73765
103 1 -8.8507 -38.9327 -22.896955
105 2 -7.29925 -39.0482 -24.809489
106 4 -5.30315 -37.2035 -24.845855
107 4 -5.21 -39.0804 -23.19689
108 4 -7.03135 -37.3471 -23.05955
270 4 -8.78405 -37.2116 -21.190865
273 1 -6.9344 -39.0036 -21.177985
274 4 -5.0831 -37.2146 -21.328285
109 4 -3.30325 -39.1015 -24.913166
110 4 -1.4849 -37.2711 -24.917228
111 1 -1.5688 -39.0519 -23.08192
112 1 -3.3567 -37.2393 -23.210485
277 4 -3.31385 -39.0615 -21.32551
278 4 -1.5336 -37.2144 -21.291555
113 1 -24.790921 -35.4274 -24.61367
114 3 -22.93072 -33.6476 -24.7253585
115 4 -22.90994 -35.5506 -22.94056
116 4 -24.535631 -33.6691 -22.96266
117 4 -21.15582 -35.4655 -24.8307445
120 4 -21.2415 -33.6893 -23.030755
141 4 -24.624104 -31.8884 -24.665188
143 1 -22.92493 -31.8855 -22.93048
145 2 -21.3768 -31.8029 -24.599612
281 1 -24.673254 -35.5076 -21.252605
282 3 -22.911025 -33.7449 -21.21559
285 4 -21.118965 -35.4713 -21.225505
309 4 -24.610512 -31.8764 -21.2072
313 4 -21.338545 -31.9142 -21.134905
118 4 -19.38485 -33.6866 -24.790595
119 4 -19.4637 -35.3971 -23.01867
122 4 -16.0106 -33.5776 -24.8542085
123 1 -15.9415 -35.4371 -23.18116
124 2 -17.79575 -33.7053 -22.927075
147 4 -19.59225 -31.9179 -22.95839
149 4 -17.7147 -31.8295 -24.8963505
151 1 -16.01185 -32.053 -22.81491
286 2 -19.1566 -33.7963 -21.26559
289 3 -17.67225 -35.5261 -21.412345
290 4 -15.8092 -33.7272 -21.152805
317 4 -17.7649 -31.9194 -21.1056
125 4 -14.0145 -35.2393 -24.95864635
126 4 -12.3204 -33.446 -24.743683
127 4 -12.28515 -35.4246 -23.04691
128 4 -14.15465 -33.6434 -23.059515
129 4 -10.55245 -35.2868 -24.7297025
132 3 -10.6407 -33.5328 -22.9234
153 1 -14.15355 -31.9699 -24.812353
155 3 -12.42915 -31.8176 -22.84679
157 1 -10.65735 -31.7456 -24.7649265
293 4 -14.09075 -35.5098 -21.30301
294 4 -12.44275 -33.6403 -21.28617
297 1 -10.58075 -35.437 -21.268105
321 2 -13.96585 -31.958 -21.19778
325 4 -10.6095 -31.7482 -21.27263
130 4 -8.8149 -33.5817 -24.8032845
131 4 -8.75295 -35.3612 -22.948695
133 1 -7.1585 -35.4164 -24.7242325
134 1 -5.06085 -33.5472 -24.870099
135 1 -5.1532 -35.3728 -23.027615
136 4 -6.886 -33.6039 -23.058425
159 4 -8.78965 -31.8098 -23.037215
161 4 -6.9433 -31.8427 -24.792363
298 1 -8.71555 -33.614 -21.28223
301 4 -6.94365 -35.459 -21.30439
329 1 -6.8824 -31.8468 -21.330365
2468 2 -0.00435 -33.5201 -23.07482
163 4 -4.9859 -31.8282 -23.0423
302 2 -4.91135 -33.6063 -21.374765
137 2 -3.2196 -35.3907 -24.8880855
138 3 -1.5855 -33.7308 -24.7314685
139 4 -1.5005 -35.4775 -23.1659
140 3 -3.1846 -33.5669 -23.053795
165 4 -3.1946 -31.738 -24.737171
167 4 -1.45465 -31.8239 -23.01901
305 1 -3.2012 -35.411 -21.24302
306 2 -1.4705 -33.7334 -21.489165
333 3 -3.14775 -31.9596 -21.322195
142 3 -22.77798 -29.9002 -24.8875695
144 1 -24.7058635 -30.1059 -22.931425
148 2 -21.2654 -30.2945 -23.03798
310 3 -22.935005 -30.1505 -20.920065
4705 4 -24.640425 -28.4507 -24.6738265
4706 2 -22.7724 -27.0799 -24.8392745
4707 1 -22.86126 -28.2896 -22.79538
4708 2 -24.7492105 -26.5422 -23.20342
4712 2 -21.12485 -26.3335 -23.267925
4803 2 -24.65862 -28.4302 -21.119445
4804 2 -23.12071 -26.4736 -21.291815
4807 2 -21.30836 -28.4993 -21.095265
146 4 -19.514 -29.9482 -24.70675
150 1 -15.97635 -30.0359 -24.559691
152 4 -17.71905 -30.0938 -22.94491
314 4 -19.52525 -30.0255 -21.160055
318 4 -15.8071 -30.2037 -21.17201
4710 2 -19.4495 -26.4202 -24.854489
4711 4 -19.65825 -28.2411 -22.84515
4713 2 -17.7586 -28.0755 -24.798894
4714 2 -15.8789 -26.4752 -24.623476
4715 2 -15.7367 -28.3213 -22.81939
4716 2 -17.6981 -26.2639 -23.16591
4808 1 -19.5379 -26.4049 -21.260865
4811 1 -17.61655 -28.2745 -21.316525
4812 3 -16.0024 -26.221 -21.24777
154 2 -12.29975 -30.2006 -24.55534
156 3 -14.11 -30.265 -22.903035
160 4 -10.55905 -29.7989 -23.013185
322 4 -12.355 -29.976 -21.264815
4717 2 -14.0723 -28.1857 -24.863444
4718 4 -12.2919 -26.4428 -24.735001
4719 1 -12.4951 -28.2159 -23.059545
4720 2 -13.99805 -26.4509 -22.62487
4721 3 -10.68325 -28.1179 -24.9346595
4724 4 -10.54255 -26.5327 -22.99532
4815 1 -14.16235 -28.3357 -21.158275
4816 2 -12.26575 -26.4833 -21.04964
4819 3 -10.53585 -28.2063 -21.122455
158 1 -8.79 -29.9698 -24.6266835
164 3 -6.79305 -30.0059 -23.13844
326 4 -8.7567 -30.0753 -21.32547
4722 1 -8.7841 -26.509 -24.549558
4723 2 -8.54765 -28.3353 -22.98837
4725 2 -6.704 -28.1662 -24.759859
4726 3 -5.0308 -26.5142 -24.857563
4728 2 -6.8606 -26.6039 -22.805835
4820 2 -8.77215 -26.6759 -21.080895
4823 4 -6.8229 -28.4909 -21.215275
4824 2 -5.0808 -26.8564 -21.039635
162 2 -4.87585 -30.1115 -24.7157025
330 1 -4.99785 -30.0514 -21.299595
4727 2 -4.9269 -28.4706 -23.18749
166 3 -1.7473 -29.6912 -24.7942655
168 4 -3.1437 -30.0497 -22.951145
334 2 -1.4164 -29.8887 -21.28169
4729 3 -3.33905 -28.0827 -24.840187
4730 2 -1.3903 -26.6742 -24.707483
4731 2 -1.56855 -28.0627 -22.98703
4732 1 -3.27545 -26.4551 -22.792285
4827 2 -2.92115 -28.3023 -21.157405
4828 3 -1.33145 -26.407 -21.035475
4733 2 -24.735909 -24.7376 -24.7671365
4734 2 -22.99677 -22.8343 -24.543228
4735 2 -23.167505 -24.5168 -22.71116
4736 3 -24.9594729 -23.1025 -23.10318
4737 2 -21.235535 -24.6978 -24.7942205
4740 4 -21.285585 -22.8819 -22.979675
4831 2 -24.8435565 -24.8135 -21.083305
4832 4 -23.09271 -22.8535 -20.924755
4835 4 -21.497175 -24.7323 -21.01092
4738 4 -19.5696 -22.8711 -24.863449
4739 2 -19.40245 -24.5905 -22.791725
4741 4 -17.6555 -24.6993 -24.8593165
4742 2 -16.0824 -22.7889 -24.9441555
4743 4 -15.94655 -24.6456 -22.955555
4744 4 -17.7419 -22.8418 -23.10712
4836 2 -19.57855 -22.8139 -21.344975
4839 2 -17.68375 -24.2886 -21.113345
4840 2 -15.85175 -22.996 -21.29295
4745 1 -14.25995 -24.6955 -24.671892
4746 2 -12.2003 -22.832 -24.6258195
4747 2 -12.45045 -24.6127 -22.93015
4748 2 -14.3684 -22.6441 -22.90926
4749 2 -10.5741 -24.6553 -24.7048745
4752 4 -10.5731 -23.0032 -22.87084
4843 4 -14.09005 -24.6173 -21.188255
4844 2 -12.32905 -22.5889 -21.07073
4847 4 -10.6181 -24.7443 -21.13128
4750 2 -8.83855 -22.9718 -24.6840515
4751 2 -8.57635 -24.6925 -22.68426
4753 4 -6.79115 -24.9214 -24.713867
4754 4 -5.0866 -23.1267 -24.777827
4756 2 -7.0918 -22.8379 -22.929095
4848 2 -8.8694 -23.1651 -21.113805
4851 4 -6.7666 -24.7261 -21.149065
4852 1 -5.136 -22.839 -21.03146
4755 2 -4.98265 -24.9925 -22.985815
4757 2 -3.36445 -24.8507 -24.7168795
4758 3 -1.4618 -22.9781 -24.7183185
4759 4 -1.4692 -24.8565 -22.914145
4760 4 -3.2851 -23.0806 -23.023725
4855 2 -3.2032 -24.4512 -21.194565
4856 2 -1.2297 -22.8447 -21.373875
4761 1 -24.735853 -21.0943 -24.634999
4762 3 -22.68017 -19.3772 -24.6149955
4763 1 -22.983015 -21.1858 -22.64309
4764 2 -24.48995 -19.412 -23.00902
4765 3 -21.24426 -21.1659 -24.6239695
4768 4 -21.173725 -19.5445 -22.85389
4789 2 -24.5780255 -17.7651 -24.657967
4790 4 -22.78231 -17.7852 -22.870825
4791 4 -20.90977 -17.7781 -24.700264
4859 2 -24.8506205 -21.0161 -21.184725
4860 2 -23.087735 -19.3294 -21.00842
4863 2 -21.04384 -21.218 -20.96381
4887 3 -24.6099405 -17.641 -21.250915
4889 2 -21.050455 -17.5187 -21.05312
4766 2 -19.3849 -19.5057 -24.866621
4767 2 -19.40275 -21.1306 -23.074615
4769 4 -17.75775 -21.0408 -24.7904675
4770 3 -16.05965 -19.2996 -24.73224
4771 4 -15.9839 -20.9626 -22.91844
4772 2 -17.59485 -19.2703 -22.84049
4792 2 -19.2747 -17.7903 -22.946545
4793 2 -17.80875 -17.3487 -24.7733165
4794 4 -15.94705 -17.625 -22.93223
4864 1 -19.50395 -19.4557 -21.343305
4867 3 -17.5952 -21.3793 -21.263845
4868 2 -15.9313 -19.2981 -21.24785
4891 4 -17.7208 -17.5812 -21.17074
4773 4 -14.104 -21.0526 -24.7745125
4774 2 -12.31825 -19.3614 -24.620308
4775 4 -12.30665 -21.0285 -23.03353
4776 4 -14.15335 -19.3705 -22.855965
4777 3 -10.4677 -21.1417 -24.7646225
4780 2 -10.5668 -19.3212 -22.960095
4795 4 -14.29445 -17.5209 -24.713537
4796 4 -12.3372 -17.7375 -23.02316
4797 1 -10.5947 -17.5659 -24.684447
4871 2 -14.39315 -21.0087 -21.208825
4872 3 -12.31975 -19.2641 -21.246625
4875 1 -10.53745 -21.0849 -21.18966
4893 3 -14.0886 -17.5847 -21.258615
4895 4 -10.57165 -17.4427 -21.258885
4778 2 -8.73835 -19.4726 -24.8376825
4779 4 -8.88005 -21.1488 -22.98084
4781 4 -6.9211 -21.2305 -24.7564055
4782 1 -5.278 -19.5202 -24.5888505
4783 2 -5.116 -21.1562 -22.990355
4784 4 -7.0641 -19.4437 -23.07188
4798 4 -8.80325 -17.5396 -22.958235
4799 4 -6.7963 -17.5103 -24.689646
4800 3 -5.4202 -17.752 -22.751765
4876 2 -9.07945 -19.273 -21.38349
4879 2 -6.6688 -21.0765 -21.354915
4880 3 -5.10975 -19.4137 -21.36798
4897 2 -7.25325 -17.9339 -21.26773
4785 4 -3.40755 -21.3404 -24.647082
4786 2 -1.49585 -19.7394 -24.645848
4787 2 -1.42995 -21.3492 -22.854725
4788 1 -3.1338 -19.5148 -22.957075
4801 1 -3.4533 -17.6417 -24.677618
4802 3 -1.3642 -17.5041 -22.851295
4883 4 -3.19325 -21.2179 -21.2205
4884 4 -1.5037 -19.2834 -21.203055
4899 2 -3.242 -17.7021 -21.271065
171 4 -22.894685 -49.388198 -19.3788
172 1 -24.711773 -47.59056 -19.46215
176 3 -21.285405 -47.74887 -19.3577
199 4 -22.96613 -45.82571 -19.35105
337 1 -24.6263185 -49.303687 -17.69435
338 2 -22.658545 -47.53602 -17.6611
339 3 -22.94354 -49.236814 -15.823
340 4 -24.711831 -47.65536 -15.80135
341 2 -21.255485 -49.356189 -17.4165
344 3 -21.31852 -47.58633 -15.8541
365 1 -24.7223635 -45.96482 -17.54815
367 3 -22.768115 -45.84116 -15.91935
369 2 -21.150225 -45.85065 -17.7571
175 3 -19.7076 -49.342013 -19.2812
179 4 -16.03855 -49.297382 -19.4285
180 4 -17.92965 -47.78133 -19.50835
203 4 -19.59205 -46.02358 -19.47205
207 4 -15.94445 -46.33603 -19.4348
342 4 -19.71275 -47.72421 -17.53345
343 4 -19.64445 -49.421682 -15.7333
345 4 -17.95655 -49.410019 -17.5857
346 1 -16.2206 -47.8793 -17.58735
347 2 -15.961 -49.360444 -15.87995
348 3 -17.9113 -47.72579 -15.75425
371 4 -19.66215 -45.92785 -15.80415
373 4 -17.84025 -46.1708 -17.63945
375 1 -15.9803 -46.01644 -15.8643
183 2 -12.6661 -49.406232 -19.32585
184 3 -14.0921 -47.68361 -19.42985
188 1 -10.85895 -47.62091 -19.36485
211 2 -12.45645 -45.87531 -19.69365
349 4 -14.22775 -49.280951 -17.593
350 4 -12.42825 -47.6234 -17.65225
351 4 -12.3368 -49.259443 -15.8576
352 4 -14.12345 -47.52491 -15.82805
353 4 -10.5876 -49.37927 -17.59765
356 4 -10.45055 -47.61979 -15.9345
377 1 -14.0981 -45.97102 -17.6559
379 4 -12.291 -45.94738 -15.91125
381 4 -10.5808 -45.80291 -17.84485
187 4 -8.8155 -49.231988 -19.444
191 4 -5.0525 -49.183921 -19.4166
192 4 -6.7687 -47.44101 -19.47895
215 1 -8.581 -45.87412 -19.5171
219 3 -5.0901 -45.76316 -19.3651
354 1 -8.7831 -47.64053 -17.66935
355 2 -8.50625 -49.230114 -15.8649
357 1 -6.7667 -49.177311 -17.76015
358 2 -5.11515 -47.56179 -17.61215
359 3 -5.335 -49.268618 -15.8279
360 3 -6.93125 -47.64438 -15.65405
383 4 -8.72975 -45.94414 -16.0057
385 1 -6.85415 -45.92059 -17.57875
387 2 -5.0974 -46.16575 -15.82135
195 3 -1.6244 -49.350545 -19.25695
196 1 -3.2801 -47.55936 -19.49225
223 2 -1.6229 -46.05176 -19.37785
361 3 -3.4489 -49.322418 -17.63255
362 4 -1.67975 -47.70811 -17.68
363 4 -1.72525 -49.388223 -15.9326
364 4 -3.54205 -47.75424 -15.9523
389 4 -3.43735 -45.98321 -17.57615
391 4 -1.4719 -46.18873 -15.7281
200 1 -24.767014 -44.25427 -19.5415
204 2 -21.14964 -44.21879 -19.2662
227 1 -22.94808 -42.50991 -19.3841
228 1 -24.83287 -40.78897 -19.32045
232 1 -21.035985 -40.69862 -19.34465
366 3 -22.869485 -44.25349 -17.567
368 2 -24.560673 -44.08739 -15.8023
372 3 -21.285265 -44.12959 -16.0216
393 1 -24.9934312 -42.72419 -17.50755
394 3 -23.08884 -40.79892 -17.47905
395 2 -23.142385 -42.42726 -15.85815
396 3 -24.8475925 -40.7708 -15.85905
397 4 -21.25059 -42.417 -17.7034
400 4 -21.259525 -40.74825 -15.9626
208 4 -17.6467 -44.41901 -19.45815
231 1 -19.39865 -42.67421 -19.50465
235 4 -15.9679 -42.69709 -19.5085
236 3 -17.5833 -40.83617 -19.67145
370 4 -19.5343 -44.37576 -17.68035
374 4 -15.9295 -44.40826 -17.6021
376 4 -17.70935 -44.28436 -15.9063
398 4 -19.27695 -40.80531 -17.6994
399 4 -19.48885 -42.51099 -15.9321
401 1 -17.63235 -42.63327 -17.6902
402 2 -16.0589 -41.14287 -17.84215
403 3 -15.9405 -42.51407 -15.75725
404 4 -17.5766 -40.80884 -15.9211
212 1 -14.29995 -44.43713 -19.61175
216 2 -10.71815 -44.15419 -19.52
239 3 -12.4592 -42.5294 -19.54495
240 4 -14.2223 -40.87414 -19.5076
244 4 -10.6768 -40.94101 -19.47355
378 4 -12.3694 -44.16257 -17.98155
380 4 -14.13905 -44.22345 -15.8692
384 4 -10.5955 -44.24825 -15.8922
405 1 -14.2583 -42.56646 -17.6651
406 2 -12.4518 -40.75629 -17.8888
407 4 -12.37515 -42.53523 -15.9686
408 4 -14.1447 -40.84469 -15.94805
409 4 -10.5032 -42.62158 -17.7493
412 1 -10.5159 -40.89431 -15.96285
220 2 -7.0281 -44.276 -19.2968
243 3 -8.6737 -42.6229 -19.29515
247 1 -5.1348 -42.65741 -19.28555
248 2 -7.1215 -40.86404 -19.35265
382 3 -8.82735 -44.16449 -17.6832
386 4 -5.14665 -44.29741 -17.49395
388 1 -6.98415 -44.28219 -15.7457
410 2 -8.64465 -41.02647 -17.7386
411 4 -8.7426 -42.56044 -15.87885
413 4 -6.89185 -42.63832 -17.52885
414 1 -5.0701 -40.7519 -17.59045
415 3 -5.03935 -42.5791 -15.79565
416 1 -7.0326 -40.77058 -15.87595
224 4 -3.3147 -44.3056 -19.40825
251 4 -1.46925 -42.57407 -19.558
252 4 -3.3393 -40.7907 -19.35845
390 4 -1.55665 -44.36764 -17.6628
392 4 -3.2228 -44.23371 -15.8742
417 4 -3.29585 -42.54029 -17.6039
418 4 -1.5064 -40.79828 -17.61805
419 4 -1.4981 -42.5204 -15.81085
420 4 -3.2623 -40.7694 -15.83335
255 4 -23.03151 -39.1087 -19.39705
256 4 -24.7054895 -37.2329 -19.4602
260 4 -21.169365 -37.2629 -19.4125
421 1 -24.826748 -38.9156 -17.6012
422 3 -22.996015 -37.1366 -17.7897
423 4 -23.02006 -39.0873 -15.80065
424 4 -24.7003005 -37.2463 -15.9185
425 1 -21.228555 -38.9594 -17.63145
428 4 -21.230815 -37.253 -15.94315
259 4 -19.346 -39.0535 -19.4819
263 4 -15.9432 -38.997 -19.5917
264 4 -17.6899 -37.298 -19.44415
426 1 -19.43905 -37.1967 -17.6548
427 3 -19.4237 -38.932 -15.8441
429 1 -17.62835 -39.126 -17.68645
430 2 -15.8672 -37.4736 -17.5495
431 2 -15.87745 -38.9865 -16.03795
432 4 -17.6997 -37.1407 -15.83805
267 4 -12.44595 -39.0956 -19.404
268 1 -14.16875 -37.1892 -19.39215
272 4 -10.53995 -37.3544 -19.44585
433 4 -14.20265 -39.06 -17.66035
434 4 -12.34045 -37.1676 -17.62505
435 4 -12.25885 -38.949 -15.8405
436 4 -14.23705 -37.2506 -15.85355
437 1 -10.6908 -39.1572 -17.6883
440 4 -10.4738 -37.1267 -15.8808
271 4 -8.7561 -39.1232 -19.413
275 4 -5.15085 -38.9314 -19.5068
276 4 -6.93465 -37.1652 -19.47455
438 1 -8.70705 -37.264 -17.6989
439 4 -8.778 -38.9629 -15.83025
441 4 -6.92735 -39.0614 -17.68875
442 4 -5.1089 -37.1562 -17.7396
443 4 -5.15885 -38.9796 -15.88555
444 4 -6.9219 -37.2293 -15.98635
279 4 -1.51635 -39.0149 -19.46115
280 4 -3.3027 -37.2213 -19.45265
445 4 -3.2807 -39.0121 -17.63325
446 1 -1.5303 -37.1908 -17.71145
447 3 -1.49065 -39.0336 -15.88735
448 4 -3.373 -37.1703 -15.91375
283 4 -22.85463 -35.4643 -19.45225
284 4 -24.469515 -33.6104 -19.4582
288 1 -21.16329 -33.7028 -19.4915
311 2 -22.90815 -31.8556 -19.35635
449 4 -24.667622 -35.4168 -17.7191
450 4 -22.872645 -33.7548 -17.512
451 1 -22.866155 -35.5104 -15.87665
452 1 -24.693143 -33.5515 -15.9249
453 4 -21.1211 -35.4385 -17.62595
456 4 -21.109235 -33.6608 -15.8048
477 4 -24.5414205 -31.8083 -17.6806
479 4 -22.838905 -31.8431 -15.7312
481 1 -21.397615 -31.8743 -17.66985
287 1 -19.3846 -35.4487 -19.54905
291 1 -16.00645 -35.4367 -19.43195
292 2 -17.6213 -33.6151 -19.1243
315 4 -19.5205 -32.0013 -19.40995
319 4 -15.9796 -31.8868 -19.34465
454 3 -19.43645 -33.6727 -17.57765
455 4 -19.47015 -35.4574 -15.80825
457 1 -17.60495 -35.4482 -17.50475
458 4 -15.9983 -33.6537 -17.64955
459 4 -15.98975 -35.2935 -15.75565
460 4 -17.8359 -33.596 -15.8064
483 1 -19.47155 -31.7766 -15.7463
485 4 -17.80745 -31.8265 -17.56025
487 4 -16.0619 -31.8733 -15.85365
295 4 -12.33355 -35.4323 -19.4483
296 3 -14.2099 -33.5849 -19.40205
300 1 -10.61765 -33.5089 -19.52535
323 2 -12.41295 -31.7612 -19.64705
461 4 -14.16045 -35.3827 -17.60125
462 1 -12.3899 -33.5391 -17.69125
463 1 -12.4651 -35.4071 -15.7882
464 2 -14.26715 -33.4533 -16.0047
465 1 -10.5381 -35.4221 -17.6311
468 3 -10.6792 -33.5379 -15.84825
489 2 -14.1172 -32.0482 -17.48805
491 4 -12.49655 -31.7825 -15.85085
493 4 -10.7065 -31.7227 -17.85265
299 4 -8.8102 -35.401 -19.5025
303 4 -5.02865 -35.3585 -19.6412
304 4 -6.86655 -33.6961 -19.39145
327 4 -8.71855 -31.8981 -19.52365
331 1 -5.0091 -31.8973 -19.40325
466 4 -8.9158 -33.6206 -17.6694
467 2 -8.62555 -35.3716 -15.8657
469 3 -7.04105 -35.357 -17.69955
470 4 -5.0752 -33.7007 -17.6907
471 1 -5.1431 -35.449 -15.9073
472 4 -6.98015 -33.7223 -15.9645
495 1 -8.7468 -31.852 -16.03995
497 4 -6.97035 -31.8443 -17.6851
499 1 -5.0918 -31.8859 -15.95985
307 4 -1.4371 -35.304 -19.5661
308 4 -3.2151 -33.5467 -19.5635
335 4 -1.47225 -31.7331 -19.56435
473 4 -3.2216 -35.4132 -17.6833
474 1 -1.432 -33.5478 -17.7085
475 4 -1.38855 -35.478 -15.8374
476 4 -3.25265 -33.6353 -15.8665
501 4 -3.1701 -31.8151 -17.7209
503 4 -1.4332 -31.8058 -15.8337
312 4 -24.7345715 -30.1505 -19.4549
316 4 -21.18391 -30.1225 -19.3407
478 4 -23.03561 -29.7678 -17.67305
480 1 -24.656133 -30.0128 -15.8694
484 1 -21.29473 -29.9993 -15.72
4805 2 -22.849765 -28.1722 -19.49125
4806 3 -24.784335 -26.6036 -19.67385
4810 3 -21.388335 -26.4616 -19.4469
4901 2 -24.8496405 -28.1929 -17.984
4902 2 -23.1814 -26.4585 -17.5352
4903 2 -22.88595 -28.0216 -16.0348
4904 3 -24.62381 -26.2386 -15.79735
4905 4 -21.283035 -28.0745 -17.72325
4908 4 -21.231835 -26.3971 -15.86415
320 1 -17.7293 -30.1131 -19.3943
482 3 -19.4989 -29.9317 -17.6911
486 4 -15.9342 -30.0073 -17.68035
488 4 -17.7566 -30.0732 -15.91345
4809 4 -19.5015 -28.2003 -19.47495
4813 4 -15.98165 -28.239 -19.5442
4814 4 -17.70295 -26.4183 -19.52165
4906 4 -19.4642 -26.465 -17.5666
4907 4 -19.5516 -28.2965 -15.96735
4909 4 -17.64535 -28.1252 -17.69705
4910 2 -15.5554 -26.3289 -18.07475
4911 2 -15.76625 -28.3693 -16.0882
4912 2 -17.98275 -26.4933 -15.91345
324 1 -14.09695 -30.1691 -19.3594
328 3 -10.65365 -29.8755 -19.5008
490 4 -12.452 -30.0135 -17.6693
492 4 -14.2532 -30.0109 -15.8208
496 1 -10.56675 -30.0205 -15.9851
4817 2 -12.3685 -28.1941 -19.3399
4818 3 -14.2645 -26.33 -19.759
4822 2 -10.49245 -26.4427 -19.51045
4913 4 -14.2191 -28.2946 -17.53295
4914 1 -12.35805 -26.5523 -17.7055
4915 3 -12.4976 -28.3387 -15.88465
4916 4 -14.05435 -26.4684 -15.94825
4917 2 -10.6381 -28.3903 -17.5911
4920 3 -10.4402 -26.6022 -15.9343
332 4 -6.91275 -30.164 -19.4689
494 4 -8.8122 -30.0391 -17.83075
500 4 -6.8215 -30.0143 -15.933
4821 4 -8.77945 -28.3264 -19.5654
4825 2 -5.11775 -28.2024 -19.41645
4826 4 -6.8244 -26.4736 -19.4338
4918 2 -8.79595 -26.5133 -17.7629
4919 2 -8.62155 -28.022 -15.9826
4921 4 -6.9854 -28.2122 -17.64915
4922 4 -5.06885 -26.3082 -17.67265
4924 2 -7.0659 -26.3794 -16.0048
498 4 -4.98135 -29.8813 -17.8176
4923 4 -4.9705 -28.1416 -16.02215
336 4 -3.26075 -30.0418 -19.61445
502 3 -1.65735 -30.0609 -17.75195
504 4 -3.3377 -30.0552 -15.9317
4829 2 -1.42145 -28.2022 -19.28225
4830 4 -3.28215 -26.4081 -19.48025
4925 2 -3.32 -28.3574 -17.53235
4926 4 -1.45055 -26.5769 -17.72145
4927 1 -1.63625 -28.1683 -15.8897
4928 4 -3.3227 -26.3094 -15.82965
4833 2 -23.24359 -24.7793 -19.3431
4834 3 -24.8789835 -22.9404 -19.3417
4838 4 -21.123105 -22.9535 -19.42405
4929 2 -24.713286 -24.7112 -17.76195
4930 4 -23.081515 -22.9313 -17.8363
4931 4 -23.005565 -24.5876 -15.9566
4932 4 -24.91202 -22.8238 -16.16005
4933 4 -21.3265 -24.7589 -17.81155
4936 4 -21.147975 -22.6806 -15.941
4837 2 -19.5499 -25.0243 -19.4194
4841 4 -16.01885 -24.5607 -19.51795
4842 2 -17.38945 -22.7619 -19.4039
4934 4 -19.38595 -22.723 -17.7932
4935 4 -19.5253 -24.5572 -15.89815
4937 4 -17.761 -24.7303 -17.64415
4938 4 -15.8976 -22.7888 -17.685
4939 4 -15.90335 -24.7511 -15.98785
4940 4 -17.6599 -22.9117 -15.99165
4845 4 -12.31665 -24.7917 -19.3587
4846 4 -14.13075 -22.8123 -19.52705
4850 4 -10.40975 -22.8128 -19.47655
4941 1 -14.21425 -24.5664 -17.7496
4942 4 -12.32825 -23.0598 -17.68335
4943 2 -12.30795 -24.7192 -15.81875
4944 4 -14.10305 -22.7618 -15.90635
4945 2 -10.57335 -24.6703 -17.39115
4948 2 -10.37985 -22.8159 -15.80995
4849 2 -8.69915 -24.7514 -19.2036
4853 4 -5.03645 -24.6333 -19.4365
4854 4 -6.92355 -22.9101 -19.3934
4946 4 -8.70585 -22.7956 -17.6469
4947 1 -8.65605 -24.5477 -15.81875
4949 3 -6.8171 -24.647 -17.8264
4950 3 -5.2121 -22.99 -17.746
4951 2 -5.23555 -24.7642 -16.0676
4952 1 -6.93615 -22.7976 -15.796
4857 4 -1.45415 -24.5996 -19.4163
4858 2 -3.0466 -22.9164 -19.4673
4953 2 -3.44845 -24.5174 -17.8088
4954 2 -1.6305 -22.5967 -17.7423
4955 2 -1.69895 -24.8526 -15.7842
4956 4 -3.4264 -22.7557 -16.0759
4861 1 -23.035945 -21.0315 -19.4021
4862 3 -24.8683245 -18.992 -19.43085
4866 3 -20.97176 -19.2804 -19.30455
4888 2 -22.747075 -17.8558 -19.2733
4957 2 -24.8620735 -20.9366 -17.8699
4958 2 -23.14976 -19.3255 -17.7486
4959 4 -23.159685 -21.096 -16.2514
4960 4 -24.8877355 -19.4102 -15.80255
4961 4 -21.264695 -21.0892 -17.85405
4964 1 -21.270465 -19.5775 -15.9117
4985 3 -24.7549745 -17.6966 -17.5622
4986 2 -23.216195 -17.7524 -15.73485
4987 4 -21.275085 -17.7085 -17.4105
4865 2 -19.13185 -21.0985 -19.34545
4869 3 -15.9267 -21.1309 -19.6198
4870 1 -17.7375 -19.2786 -19.5358
4890 2 -19.3957 -17.3776 -19.29385
4892 4 -15.89195 -17.7008 -19.41835
4962 4 -19.37295 -19.3786 -17.568
4963 3 -19.305 -21.19 -15.9119
4965 4 -17.61445 -21.0269 -17.84185
4966 3 -15.8217 -19.55 -17.86665
4967 4 -15.98265 -21.0757 -15.9187
4968 2 -17.5477 -19.343 -15.786
4988 2 -19.30685 -17.7578 -15.9472
4989 2 -17.75095 -17.6625 -17.6943
4990 1 -15.9615 -17.7585 -16.0202
4873 2 -12.23265 -21.0384 -19.5324
4874 2 -14.1208 -19.4044 -19.711
4878 3 -10.46405 -19.2851 -19.4672
4894 4 -12.31035 -17.5861 -19.5815
4969 1 -13.9813 -21.1775 -17.69485
4970 4 -12.36995 -19.4018 -17.93475
4971 2 -12.12615 -20.9814 -15.9234
4972 4 -14.1297 -19.3667 -15.88365
4973 4 -10.49785 -20.966 -17.7179
4976 2 -10.70385 -19.2612 -15.90565
4991 1 -14.02595 -17.6622 -17.8356
4992 4 -12.3032 -17.6829 -16.0799
4993 4 -10.41975 -17.6571 -17.80415
4877 2 -8.536 -21.1292 -19.52405
4882 1 -6.898 -19.4884 -19.52925
4896 2 -8.8909 -17.5702 -19.46745
4898 2 -5.24765 -17.7476 -19.75095
4974 3 -8.8452 -19.3935 -17.80545
4975 2 -8.915 -20.9845 -16.02285
4977 2 -6.9589 -21.0755 -17.80515
4978 4 -5.1028 -19.2573 -17.7112
4979 2 -5.28095 -21.2017 -15.9505
4980 2 -6.94835 -19.3877 -15.96145
4994 4 -8.69575 -17.7825 -16.05875
4995 1 -6.9417 -17.5642 -17.74655
4996 2 -5.16185 -17.5877 -16.0138
4881 4 -4.9853 -21.1594 -19.3225
4885 3 -1.4009 -21.181 -19.55245
4886 4 -3.26035 -19.2811 -19.53895
4900 2 -1.279 -17.6436 -19.5366
4981 1 -3.34085 -20.8895 -17.6489
4982 2 -1.50615 -19.4556 -17.7296
4983 4 -1.5127 -21.0445 -15.8878
4984 3 -3.10665 -19.1316 -15.79105
4997 1 -3.36035 -17.6675 -17.85725
4998 3 -1.36275 -17.6714 -15.8307
505 3 -24.6196485 -49.367041 -14.15955
506 4 -22.825735 -47.56683 -14.116
507 4 -22.917175 -49.389923 -12.3568
508 4 -24.667672 -47.66789 -12.26845
509 1 -21.246805 -49.361326 -13.96885
512 3 -21.251745 -47.56495 -12.1582
533 1 -24.5773395 -45.93696 -14.12965
535 2 -23.12744 -46.12326 -12.20465
537 2 -21.147975 -45.88912 -13.92955
673 3 -24.8111155 -49.406655 -10.6567
674 4 -22.95555 -47.76886 -10.52565
677 4 -21.23081 -49.443987 -10.4421
701 4 -24.593454 -46.04433 -10.4648
705 4 -21.196975 -45.96343 -10.40425
510 4 -19.67505 -47.57069 -14.0003
511 4 -19.48405 -49.362232 -12.29295
513 4 -17.76165 -49.254923 -14.0869
514 4 -15.89695 -47.70324 -14.27125
515 4 -15.8914 -49.374568 -12.4028
516 1 -17.65615 -47.60845 -12.4593
539 3 -19.5579 -45.99025 -12.1385
541 4 -17.7361 -45.90172 -14.0406
543 4 -15.94755 -45.8743 -12.2002
678 3 -19.5632 -47.68929 -10.57875
681 1 -17.6155 -49.376172 -10.63645
682 3 -15.86935 -47.6059 -10.63475
709 4 -17.7503 -46.07844 -10.5497
517 4 -14.0245 -49.293452 -14.0062
518 3 -12.5094 -47.59873 -14.16205
519 4 -12.4445 -49.354942 -11.92475
520 4 -14.1478 -47.61285 -12.22635
521 1 -10.69325 -49.148665 -13.83445
524 2 -10.57155 -47.64906 -12.1597
545 4 -14.2615 -45.92536 -14.02895
547 1 -12.36125 -45.96695 -12.2686
549 1 -10.5623 -45.99331 -14.1862
685 2 -14.1979 -49.363048 -10.5206
686 3 -12.2945 -47.69944 -10.4729
689 4 -10.4781 -49.321538 -10.40485
713 4 -14.1004 -45.75179 -10.53085
717 2 -10.44095 -46.1362 -10.4132
522 4 -8.6306 -47.61082 -14.10385
523 4 -8.7498 -49.238434 -12.2428
525 4 -6.8754 -49.426261 -13.95975
526 4 -5.17235 -47.64253 -14.08885
527 2 -5.23665 -49.1254 -12.39145
528 4 -6.88885 -47.62355 -12.217
551 1 -8.6962 -46.01129 -12.3716
553 2 -6.8235 -45.84919 -14.1683
555 4 -5.0599 -45.99913 -12.2251
690 3 -8.58305 -47.66344 -10.4698
693 1 -6.7946 -49.373645 -10.6084
694 2 -5.09815 -47.53396 -10.5869
721 3 -6.96335 -46.02382 -10.4709
529 4 -3.566 -49.472909 -14.25265
530 1 -1.7761 -47.8407 -14.0946
531 2 -1.71905 -49.309408 -12.34295
532 3 -3.46665 -47.73258 -12.2885