# LAMMPS data file written by OVITO Basic 3.8.4

21952 atoms
4 atom types

-25.0 25.0 xlo xhi
-50.0 50.0 ylo yhi
-25.0 25.0 zlo zhi

Masses

1 24.305  # Mg
2 26.981538  # Al
3 63.546  # Cu
4 65.409  # Zn

Atoms  # atomic

1 1 -24.786284 -49.250565 -24.7920305
2 2 -23.02573 -47.78881 -24.6819005
3 3 -22.961215 -49.388898 -22.912595
4 1 -24.6672225 -47.53305 -22.99761
5 2 -21.14454 -49.295514 -24.863258
8 3 -21.296755 -47.78826 -23.069545
29 4 -24.8418495 -45.98156 -24.644875
31 4 -22.909435 -45.9212 -22.918065
33 4 -21.24516 -46.02297 -24.692368
169 4 -24.8906165 -49.293699 -21.383665
170 4 -23.065825 -47.75116 -21.21043
173 4 -21.34575 -49.386695 -21.213655
197 4 -24.893143 -46.04834 -21.275335
201 1 -21.174005 -45.94953 -21.341335
6 2 -19.3714 -47.75299 -24.6568465
7 3 -19.54495 -49.35066 -23.053045
9 1 -17.61665 -49.31476 -24.669036
10 3 -15.9182 -47.57039 -24.634272
11 1 -15.82305 -49.295404 -22.794705
12 4 -17.8089 -47.79513 -22.79001
35 4 -19.4664 -45.99519 -22.947285
37 4 -17.75965 -46.16684 -24.6463055
39 4 -16.0245 -46.00052 -22.86244
174 1 -19.551 -47.8958 -21.04044
177 2 -17.3945 -49.43909 -21.14718
178 4 -15.94715 -47.63603 -20.979155
205 1 -17.7553 -45.81088 -21.179915
13 2 -14.03015 -49.074012 -24.6097855
14 4 -12.36265 -47.48592 -24.840263
15 4 -12.35285 -49.236313 -22.97824
16 4 -14.0926 -47.48845 -22.887445
17 4 -10.4887 -49.198648 -24.79361
20 4 -10.47 -47.40363 -23.078395
41 1 -14.08855 -45.8434 -24.6713475
43 2 -12.20005 -45.85442 -22.87632
45 3 -10.54885 -45.75043 -24.748498
181 4 -14.14585 -49.384132 -21.133835
182 1 -12.35225 -47.62832 -21.246065
185 4 -10.54525 -49.29151 -21.14119
209 1 -14.32555 -45.86961 -21.11863
213 2 -10.57225 -45.61554 -21.3395
18 4 -8.71715 -47.48197 -24.803025
19 2 -8.69 -49.192573 -23.14527
21 3 -7.0652 -49.333737 -24.6979365
22 3 -5.20665 -47.66001 -24.732498
23 3 -5.3388 -49.384931 -23.107645
24 4 -6.916 -47.48577 -23.080965
47 4 -8.65385 -45.70972 -23.01765
49 4 -6.87625 -45.75266 -24.7860335
51 4 -5.0654 -45.86961 -23.12413
186 4 -8.68715 -47.64819 -21.37631
189 4 -6.88855 -49.285644 -21.354395
190 1 -5.0869 -47.58451 -21.32462
217 4 -6.7236 -45.86922 -21.326145
25 4 -3.41215 -49.343885 -24.5865495
26 4 -1.49265 -47.56726 -24.7263025
27 4 -1.36045 -49.473455 -23.006095
28 1 -3.18485 -47.49743 -23.112565
53 2 -3.38625 -45.93943 -24.724231
55 3 -1.3256 -45.75381 -23.221875
193 4 -3.35925 -49.252659 -21.450825
194 4 -1.46005 -47.61014 -21.344855
221 4 -3.30295 -45.76225 -21.313605
30 4 -22.9994 -44.30407 -24.6746635
32 4 -24.9011105 -44.19133 -23.115405
36 2 -21.362385 -44.25121 -23.242205
57 3 -24.750153 -42.25427 -24.550305
58 2 -23.093655 -40.84032 -24.9729551
59 4 -22.879875 -42.3457 -22.96247
60 4 -24.656413 -40.62869 -22.884435
61 2 -21.26458 -41.96124 -24.7533795
64 3 -21.347065 -40.54264 -23.119105
198 1 -23.16372 -44.24055 -21.28953
225 1 -24.779264 -42.46464 -21.1806
226 1 -22.86048 -40.75802 -21.153095
229 2 -21.19223 -42.50922 -21.270005
34 3 -19.5664 -44.19247 -24.6476145
38 2 -16.00955 -44.24 -24.8847155
40 4 -17.6078 -44.16479 -23.168385
62 4 -19.39665 -40.55732 -24.767548
63 4 -19.70755 -42.39095 -23.14674
65 4 -17.6372 -42.27852 -24.756161
66 1 -15.88825 -40.64432 -24.734441
67 2 -15.9685 -42.50528 -22.865015
68 3 -17.6234 -40.60856 -22.988745
202 4 -19.5163 -44.0807 -21.376385
206 4 -15.9679 -43.99148 -21.08065
230 1 -19.4447 -40.58982 -21.31438
233 2 -17.7166 -42.39542 -21.45101
234 4 -15.98365 -40.81385 -21.19725
42 4 -12.325 -44.14416 -24.6518615
44 1 -14.18215 -44.16388 -22.895835
48 2 -10.50065 -44.20113 -23.00786
69 1 -14.11425 -42.45479 -24.676695
70 2 -12.40775 -40.72941 -24.8863545
71 3 -12.1597 -42.54141 -22.835815
72 1 -14.04775 -40.78681 -22.81209
73 2 -10.93315 -42.22968 -24.772169
76 3 -10.74795 -40.77346 -23.069565
210 3 -12.30955 -44.16374 -21.15112
237 4 -14.0295 -42.46303 -21.098825
238 4 -12.16135 -40.92193 -21.063885
241 1 -10.4434 -42.4606 -20.958925
46 2 -9.0023 -43.87784 -24.748272
50 3 -5.1326 -44.01413 -24.6762805
52 4 -6.8601 -44.08342 -23.0304
74 1 -8.80225 -40.68613 -24.930299
75 2 -8.9716 -42.34048 -23.056465
77 3 -7.0072 -42.52471 -24.6121905
78 1 -5.27975 -40.71291 -24.791254
80 4 -7.09225 -40.65727 -23.203175
214 4 -8.75295 -43.94074 -21.27559
242 4 -8.87445 -40.71871 -21.528925
245 1 -6.95325 -42.36167 -21.44514
246 2 -5.34355 -40.63442 -21.174475
79 2 -4.99395 -42.20041 -23.207865
218 3 -4.9853 -44.03012 -21.48504
54 3 -1.37615 -44.16056 -24.811723
56 4 -3.19535 -44.25061 -23.187515
81 2 -3.20175 -42.54265 -24.8299255
82 1 -1.53455 -40.50024 -24.693106
83 1 -1.5059 -42.47566 -22.961685
84 2 -3.2782 -40.59448 -23.06245
222 2 -1.49225 -44.0272 -21.250385
249 4 -3.35015 -42.38013 -21.41244
250 4 -1.38705 -40.70381 -21.24133
85 1 -24.920092 -38.9437 -24.7269335
86 2 -22.958035 -36.9936 -24.778875
87 3 -22.94703 -38.9974 -23.157535
88 4 -24.552164 -37.078 -23.101035
89 1 -21.189975 -38.8169 -24.9137265
92 1 -21.248535 -37.0585 -22.82979
253 1 -24.586637 -38.7784 -21.29013
254 2 -22.957985 -37.0501 -21.05107
257 2 -21.362735 -38.9083 -21.44146
90 3 -19.4166 -37.0631 -24.7927235
91 4 -19.54585 -38.8032 -23.042575
93 4 -17.69345 -38.8616 -24.757599
94 1 -15.85685 -37.2315 -24.733726
95 4 -15.8102 -38.8349 -22.925025
96 4 -17.50655 -37.0602 -22.9387
258 4 -19.36665 -37.0759 -21.28245
261 4 -17.5605 -38.8204 -21.180485
262 2 -15.97825 -37.1229 -21.2409
97 4 -14.0452 -39.1781 -24.681067
98 4 -12.34735 -37.2365 -24.602153
99 4 -12.28305 -39.1016 -22.956
100 1 -14.11715 -37.0835 -22.890915
101 4 -10.5391 -38.9545 -24.7676685
104 4 -10.4172 -37.2412 -22.95994
265 4 -14.0303 -39.1464 -21.11255
266 4 -12.337 -37.2621 -21.31079
269 4 -10.548 -39.0043 -21.121165
102 4 -8.7385 -37.2622 -24.8889945
103 1 -8.68965 -38.8525 -23.060745
105 3 -6.8327 -38.8348 -24.8979615
106 4 -5.1158 -37.2081 -24.887327
107 4 -5.11225 -39.0472 -23.1333
108 1 -6.81005 -37.1698 -22.984265
270 4 -8.5041 -37.2098 -21.231525
273 2 -6.7255 -38.9777 -21.311425
274 3 -4.9776 -37.506 -21.25596
109 2 -3.44495 -38.6667 -24.852107
110 3 -1.6384 -37.2556 -24.747839
111 4 -1.61655 -38.852 -22.97503
112 2 -3.4687 -37.2019 -23.16104
277 3 -3.45855 -39.1343 -21.394185
278 1 -1.7029 -37.2336 -21.2463
113 2 -24.6397165 -35.4871 -24.6544025
114 3 -22.90743 -33.674 -24.7983465
115 4 -22.793785 -35.3476 -23.185805
116 4 -24.546828 -33.6187 -22.78308
117 3 -21.13736 -35.2709 -24.7895685
120 4 -21.137165 -33.5722 -23.04131
141 4 -24.419285 -31.9136 -24.648962
143 1 -22.81266 -31.8048 -22.87941
145 1 -21.14157 -31.7681 -24.8336
281 2 -24.574162 -35.2551 -21.051695
282 3 -22.80961 -33.5946 -21.15075
285 4 -21.185125 -35.2634 -21.26694
309 4 -24.5828485 -31.6861 -21.017625
313 4 -21.214405 -31.6163 -21.155265
118 4 -19.2755 -33.4566 -24.85745
119 4 -19.40005 -35.3866 -23.130105
121 4 -17.6417 -35.3022 -24.8456465
122 2 -15.9341 -33.4651 -24.6445245
123 3 -15.933 -35.2877 -22.994035
124 1 -17.8325 -33.5594 -22.98926
147 2 -19.64005 -31.9211 -22.94094
151 1 -15.92755 -31.8538 -22.954315
286 2 -19.31775 -33.4644 -21.332035
289 3 -17.50755 -35.3698 -21.247835
290 4 -15.95575 -33.5423 -21.20653
317 4 -17.67235 -31.6573 -21.228015
125 4 -14.1468 -35.4255 -24.821722
126 4 -12.3268 -33.7837 -24.800411
127 4 -12.3206 -35.443 -22.982725
128 4 -14.23275 -33.7096 -23.003225
129 4 -10.5077 -35.4783 -24.731287
132 4 -10.4559 -33.6321 -23.050085
153 1 -13.88735 -31.951 -24.6589605
155 2 -12.1794 -31.9475 -22.88653
157 4 -10.699 -31.8927 -24.8094455
293 1 -14.12965 -35.3692 -21.02318
294 2 -12.3375 -33.4326 -21.36088
297 4 -10.495 -35.4498 -21.179035
321 4 -14.051 -31.7327 -21.32351
325 4 -10.5081 -31.8316 -21.31139
130 4 -8.65115 -33.7062 -24.8855795
131 4 -8.68165 -35.4226 -23.023765
133 4 -6.94765 -35.5631 -24.921241
134 1 -5.09925 -33.6939 -24.8826665
135 4 -5.16405 -35.4177 -23.170065
136 4 -6.8563 -33.6829 -23.04983
159 1 -8.70005 -31.909 -23.03214
161 1 -6.7528 -31.879 -24.743918
163 2 -5.0767 -31.6348 -23.01212
298 4 -8.64855 -33.5989 -21.25399
301 1 -6.6078 -35.3775 -21.215255
302 4 -5.0739 -33.4056 -21.252585
329 3 -6.8327 -31.6259 -21.22334
137 4 -3.2307 -35.2397 -24.778502
138 1 -1.49035 -33.4543 -24.637319
139 1 -1.71065 -35.3059 -22.95015
140 2 -3.48495 -33.2654 -22.993825
165 3 -3.37015 -31.6126 -24.693626
167 4 -1.4566 -31.51 -23.03404
305 1 -3.63205 -35.3759 -21.276675
306 4 -1.59765 -33.4338 -21.213175
333 1 -3.31915 -31.6746 -21.409875
142 4 -22.83283 -30.0155 -24.96146215
144 1 -24.49892 -30.0432 -22.955395
148 2 -21.03954 -29.9567 -23.208595
310 3 -22.81042 -29.8686 -21.06454
4705 4 -24.6125845 -28.2639 -24.7912545
4706 4 -22.86449 -26.4289 -24.944956
4707 2 -22.8512 -28.4864 -22.87358
4708 2 -24.9361435 -26.4229 -23.26174
4709 4 -21.19003 -28.2051 -24.885778
4712 1 -21.21737 -26.6834 -22.945245
4803 2 -24.7279025 -28.565 -21.10283
4804 2 -23.227515 -26.7425 -21.22074
4807 2 -21.12472 -28.1169 -20.860285
146 2 -19.15515 -30.1101 -24.8319655
150 3 -15.72835 -30.0667 -24.8151955
152 1 -17.69675 -29.9378 -23.080105
314 1 -19.42335 -29.8921 -21.15187
318 2 -15.84915 -29.8946 -21.346775
4710 2 -19.46005 -26.3396 -24.6923235
4711 2 -19.282 -28.1658 -22.95987
4713 2 -17.49525 -27.7928 -24.7009685
4715 2 -15.8305 -28.4371 -23.06599
4716 2 -17.81805 -26.2862 -22.7165
4808 3 -19.3991 -26.416 -21.094095
4811 3 -17.66165 -28.0823 -21.0957
4812 4 -16.0678 -26.5188 -21.164885
154 2 -12.2406 -30.1511 -24.5920355
156 3 -14.0535 -30.096 -23.033095
160 3 -10.51745 -30.109 -22.98527
322 4 -12.2773 -29.9829 -21.335895
4717 2 -13.90775 -28.482 -24.7098915
4718 4 -12.19375 -26.4296 -24.626037
4719 1 -12.3503 -28.1973 -23.00791
4720 4 -14.2557 -26.5981 -22.92763
4721 2 -10.40925 -28.2888 -24.37553
4724 3 -10.34855 -26.3596 -22.99485
4815 1 -14.18375 -28.2746 -21.21933
4816 2 -12.3634 -26.5028 -21.363075
4819 4 -10.5782 -28.1211 -21.36552
158 4 -8.65 -30.0102 -24.7100675
162 4 -5.04885 -30.0768 -24.7890705
164 4 -6.7855 -30.1495 -23.06477
326 2 -8.85045 -30.1298 -21.321415
330 4 -5.161 -29.9869 -21.170895
4722 4 -8.7462 -26.393 -24.7291495
4723 2 -8.65445 -28.2994 -22.967605
4725 2 -6.80625 -28.0736 -24.7752155
4726 2 -5.12055 -26.5822 -24.5631895
4727 4 -5.101 -28.2932 -22.88472
4728 2 -7.23835 -26.4564 -22.753345
4820 2 -8.87175 -26.442 -20.938205
4823 2 -6.94375 -28.133 -21.13979
4824 1 -5.18215 -26.4605 -21.207665
166 2 -1.7186 -29.988 -24.851849
168 3 -3.4083 -29.8532 -23.084425
334 4 -1.552 -29.9917 -21.08015
4729 4 -3.3603 -28.1471 -24.692526
4730 2 -1.6115 -26.5381 -24.6856645
4731 4 -1.5193 -28.433 -23.05933
4732 2 -3.37505 -26.4296 -23.05938
4827 2 -3.18595 -28.0326 -21.20964
4828 1 -1.3932 -26.5735 -21.34553
4733 2 -24.7334065 -24.6572 -24.9595076
4734 2 -22.916995 -23.1546 -24.612069
4735 2 -23.10125 -25.0108 -22.99393
4736 3 -24.7349385 -23.0685 -23.016145
4737 2 -21.18345 -24.7808 -24.682376
4740 4 -21.171335 -23.1983 -22.92917
4831 2 -24.72314 -24.6601 -21.186205
4832 4 -23.037235 -23.0302 -21.23532
4835 1 -21.38786 -24.7164 -21.07266
4765 2 -21.29785 -21.5496 -24.7723555
4863 2 -21.13927 -21.4938 -21.10516
4738 1 -19.50945 -23.1117 -24.846345
4739 3 -19.48135 -24.8052 -22.764845
4741 1 -17.5561 -24.7472 -24.7065805
4742 2 -15.772 -23.0114 -24.604538
4743 4 -15.94335 -24.7386 -22.880885
4744 2 -17.74465 -23.1628 -22.747485
4836 2 -19.51875 -23.0245 -21.24842
4839 2 -17.77215 -24.7398 -20.98544
4840 3 -15.78965 -23.027 -21.051005
4745 2 -14.1673 -24.9451 -24.879348
4746 2 -12.7772 -23.222 -24.37602
4747 2 -12.47875 -24.7989 -22.7817
4748 3 -14.23995 -23.3174 -22.57532
4749 2 -10.6351 -24.6325 -24.6490175
4752 4 -10.6472 -22.8838 -23.00011
4843 2 -14.0869 -24.9246 -20.88318
4844 4 -12.42315 -22.8182 -21.285345
4847 1 -10.575 -24.5672 -21.156895
4750 2 -8.85135 -23.256 -24.46217
4751 3 -8.75595 -24.8444 -22.93662
4753 4 -6.78545 -24.7725 -24.492995
4755 3 -5.0328 -24.6345 -23.034765
4756 2 -7.00165 -22.7113 -23.31446
4848 4 -8.6832 -22.9381 -21.48036
4851 4 -6.9995 -24.7958 -21.192415
4852 4 -5.22195 -23.047 -21.400075
4754 2 -4.983 -23.0323 -24.804727
4757 2 -3.3662 -24.9186 -24.6997895
4758 4 -1.54555 -23.0245 -24.7063435
4759 4 -1.49115 -24.6896 -22.875355
4760 4 -3.32175 -22.7667 -23.064945
4855 4 -3.44245 -24.8408 -21.23807
4856 2 -1.7452 -22.7012 -21.277005
4761 2 -24.6399205 -21.2352 -24.8277675
4762 2 -23.26173 -19.5089 -24.887109
4763 4 -22.783715 -21.1846 -23.06184
4764 4 -24.770373 -19.5871 -23.05767
4768 2 -21.187085 -19.5636 -22.60499
4789 2 -24.862053 -17.8139 -24.880071
4790 4 -23.04838 -17.8933 -22.783225
4791 4 -21.39249 -17.7581 -24.6238865
4859 4 -24.8419065 -21.373 -21.349255
4860 2 -22.864445 -19.6354 -21.217815
4887 2 -24.784287 -17.9676 -20.96685
4889 2 -20.8592 -17.6165 -21.091195
4766 4 -19.49555 -19.5978 -24.652937
4767 4 -19.35465 -21.3532 -23.001025
4769 1 -17.5785 -21.4083 -24.8880805
4771 1 -15.7346 -21.3494 -23.050725
4772 1 -17.5559 -19.5895 -23.0316
4792 1 -19.3697 -17.7994 -23.098765
4794 2 -15.94805 -17.9002 -23.02782
4864 3 -19.4599 -19.7298 -21.23906
4867 2 -17.53805 -21.4039 -21.114845
4868 2 -15.6538 -19.7737 -21.22059
4891 2 -17.83575 -17.9187 -21.14509
4773 2 -14.08325 -21.2172 -24.9947311
4774 2 -12.2112 -19.58 -24.88077
4775 1 -12.30765 -21.2723 -22.97223
4776 1 -14.0144 -19.5456 -23.075925
4777 3 -10.5036 -21.2478 -24.791124
4780 2 -10.65845 -19.5709 -23.078765
4795 3 -14.02885 -17.7697 -24.88744
4796 4 -12.36725 -17.9278 -22.940075
4797 4 -10.60605 -17.9584 -24.623229
4871 2 -13.9287 -21.2816 -21.076725
4872 3 -12.17225 -19.3398 -21.00794
4875 2 -10.4153 -20.9351 -21.283285
4893 2 -13.9971 -17.5972 -21.275775
4895 4 -10.37305 -17.7489 -21.229065
4778 2 -8.32115 -19.5014 -24.663567
4779 4 -8.7969 -21.0305 -22.993785
4781 3 -6.547 -21.0047 -24.909007
4782 3 -5.01325 -19.3921 -24.9172275
4783 1 -5.0124 -21.2402 -23.02459
4784 4 -6.70475 -19.5941 -22.98304
4798 2 -8.82855 -18.1338 -22.91537
4799 2 -6.9172 -17.9763 -24.873113
4800 2 -5.11945 -17.785 -23.146105
4876 3 -8.5622 -19.4342 -21.091545
4879 1 -6.88775 -21.3665 -21.225745
4880 2 -5.03315 -19.4011 -21.291045
4897 2 -6.9367 -17.8565 -21.161865
4786 2 -1.4154 -19.5635 -24.7069595
4787 2 -1.45375 -21.2064 -23.10929
4788 3 -3.19885 -19.5346 -23.26036
4801 4 -3.26195 -17.8311 -24.7876205
4802 4 -1.4511 -17.6823 -23.006805
4883 2 -3.3042 -21.1495 -21.23784
4884 4 -1.6186 -19.4797 -21.21543
4899 1 -3.43695 -17.8216 -21.343585
171 2 -22.93276 -49.293342 -19.75695
172 4 -24.8094445 -47.83754 -19.42345
176 4 -21.377785 -47.69731 -19.44755
199 1 -23.113765 -46.00216 -19.452
338 4 -23.02379 -47.71366 -17.6182
339 1 -23.04328 -49.40093 -15.8893
340 4 -24.824297 -47.78022 -16.01095
341 3 -21.281525 -49.182407 -17.7085
344 4 -21.20794 -47.79387 -15.7888
365 4 -24.725387 -45.89217 -17.62535
367 4 -22.99011 -46.06107 -15.7353
369 1 -21.351395 -45.99657 -17.5805
175 2 -19.52685 -49.349719 -19.2766
179 3 -15.68155 -49.347698 -19.4301
180 1 -17.68005 -47.6325 -19.3946
203 4 -19.6341 -45.98205 -19.51025
207 2 -15.7965 -45.88222 -19.2126
342 3 -19.67225 -47.75411 -17.65855
343 2 -18.99075 -49.098195 -15.8843
345 1 -17.6084 -49.331939 -17.58295
346 3 -15.75425 -47.72524 -17.76495
347 3 -15.861 -49.524075 -15.79055
348 4 -17.45085 -47.70118 -15.7561
371 4 -19.45775 -46.03443 -15.9514
373 1 -17.6813 -46.03952 -17.5795
375 3 -15.9233 -45.82281 -15.7755
183 4 -12.3335 -49.372681 -19.431
184 3 -14.08545 -47.73271 -19.4106
188 1 -10.4543 -47.44724 -19.4154
211 4 -12.3715 -45.96556 -19.5592
349 4 -14.1188 -49.471263 -17.7553
350 4 -12.3581 -47.59843 -17.7036
351 4 -12.3044 -49.224643 -15.91515
352 4 -14.2928 -47.67866 -16.0322
353 4 -10.5099 -49.290518 -17.65225
356 4 -10.4527 -47.62595 -15.8742
377 1 -14.1013 -45.85102 -17.68655
379 2 -12.38915 -45.76873 -16.20855
381 3 -10.5062 -45.85967 -17.4433
187 4 -8.7114 -49.142878 -19.3089
191 4 -5.10615 -49.271878 -19.5824
192 4 -6.9314 -47.47551 -19.44845
215 1 -8.6177 -45.69899 -19.6483
219 1 -5.09295 -45.7691 -19.4834
354 2 -8.65065 -47.64386 -17.58675
355 3 -8.59005 -49.133926 -15.888
357 1 -6.76915 -49.237628 -17.73315
360 3 -6.6666 -47.74504 -15.77065
383 4 -8.5014 -46.18508 -15.75635
385 1 -6.87225 -45.94195 -17.5695
387 2 -5.1512 -46.03619 -15.804
358 3 -4.96315 -47.53515 -17.6652
359 2 -4.9801 -49.359907 -16.053
195 4 -1.40525 -49.259911 -19.44095
196 4 -3.28245 -47.54986 -19.5668
223 4 -1.42505 -45.90191 -19.4935
361 1 -3.29915 -49.275068 -17.64985
362 4 -1.51075 -47.56908 -17.66315
363 4 -1.6103 -49.308831 -15.761
364 4 -3.3892 -47.58316 -15.9009
389 4 -3.36925 -45.84007 -17.7244
391 1 -1.562 -45.88975 -15.8335
200 2 -24.8806885 -44.28674 -19.29955
204 3 -21.258325 -44.1985 -19.5214
227 1 -23.00168 -42.38212 -19.33175
228 2 -24.7916485 -40.67746 -19.18535
232 3 -21.07592 -40.55122 -19.2994
366 4 -22.989385 -44.09314 -17.733
368 1 -24.684848 -44.23453 -15.9368
372 4 -21.15972 -44.26061 -15.93695
393 3 -24.939236 -42.33568 -17.5559
394 1 -22.90259 -40.67117 -17.38095
395 2 -22.71207 -42.43922 -16.086
396 3 -24.9424175 -40.67338 -15.97885
397 4 -21.25276 -42.39639 -17.6282
400 4 -21.10699 -40.70942 -15.78785
208 4 -17.82525 -44.18375 -19.3523
231 1 -19.47295 -42.41379 -19.53
235 3 -16.05235 -42.47849 -19.4279
236 4 -17.71165 -40.74318 -19.42745
370 1 -19.4761 -44.20926 -17.63835
374 4 -16.0272 -44.30703 -17.63865
376 4 -17.7529 -44.20933 -15.7154
398 4 -19.4484 -40.70839 -17.68965
399 3 -19.54655 -42.48282 -15.8051
401 4 -17.7583 -42.49057 -17.5751
402 4 -15.9633 -40.90267 -17.57695
403 4 -15.9731 -42.53752 -15.76775
404 4 -17.6689 -40.77849 -15.83775
212 4 -14.14365 -44.22901 -19.35605
216 4 -10.4728 -44.27187 -19.3042
239 4 -12.29195 -42.60127 -19.2794
240 4 -14.04955 -40.77102 -19.19005
244 4 -10.41385 -40.70074 -19.38125
378 2 -12.22945 -44.13803 -17.6023
380 4 -14.0788 -44.15473 -15.87295
384 4 -10.37585 -44.06781 -15.90475
405 1 -14.1769 -42.48999 -17.5677
406 3 -12.2513 -40.6797 -17.7193
407 4 -12.23285 -42.34297 -15.80775
408 4 -14.0974 -40.66605 -15.97925
409 4 -10.4779 -42.45753 -17.67475
412 1 -10.4358 -40.6055 -15.9506
220 2 -6.8262 -44.06808 -19.6288
243 3 -8.58405 -42.5578 -19.30255
247 4 -5.088 -42.46284 -19.6226
248 4 -6.89145 -40.76031 -19.56915
382 4 -8.61825 -44.32502 -17.56665
386 4 -5.15485 -44.08301 -17.7326
388 4 -6.81385 -44.39935 -15.8046
410 4 -8.5818 -40.7951 -17.74005
411 1 -8.4269 -42.50611 -15.95095
413 3 -6.83405 -42.50399 -17.93415
414 4 -5.1503 -40.85807 -17.567
415 1 -5.34215 -42.45637 -15.8087
416 2 -6.9622 -40.59441 -16.0786
224 1 -3.1654 -44.09142 -19.51985
251 3 -1.29555 -42.34213 -19.4719
252 1 -3.3295 -40.7871 -19.4267
390 4 -1.40485 -44.16865 -17.62145
392 4 -3.372 -44.16364 -15.87325
417 4 -3.25555 -42.48135 -17.67975
418 4 -1.44955 -40.58892 -17.7552
419 4 -1.48245 -42.44803 -15.87775
420 1 -3.20435 -40.59644 -15.9842
256 2 -24.8989495 -36.9858 -19.31915
255 1 -22.891855 -38.9592 -19.38145
260 4 -21.22597 -37.043 -19.42115
421 4 -24.6200305 -38.8975 -17.73645
422 1 -22.96248 -37.1204 -17.4589
423 4 -22.944105 -38.8469 -15.79075
424 4 -24.800312 -37.1525 -15.79655
425 4 -21.181435 -38.8566 -17.5986
428 4 -21.06283 -37.0064 -15.7589
259 4 -19.54595 -38.8554 -19.59785
263 4 -15.81175 -39.1168 -19.3806
264 1 -17.66325 -37.228 -19.4837
426 4 -19.36145 -37.1499 -17.68375
427 4 -19.40095 -38.9566 -15.8339
429 4 -17.70605 -39.0622 -17.66695
430 1 -15.94345 -37.2247 -17.6997
431 3 -15.9394 -39.1574 -15.92495
432 4 -17.5685 -37.2522 -15.90085
267 4 -12.3098 -38.8903 -19.41885
268 4 -14.18615 -37.2374 -19.3469
272 1 -10.51 -37.2416 -19.53175
433 2 -14.3881 -39.0299 -17.73615
434 3 -12.3498 -37.2671 -17.7601
435 4 -12.3709 -38.8676 -16.09745
436 1 -14.13 -37.2176 -15.9896
437 4 -10.41535 -38.9209 -17.7392
440 4 -10.4056 -37.1536 -15.96635
271 4 -8.6721 -38.9988 -19.52735
275 4 -5.094 -38.9848 -19.50345
276 4 -6.78475 -37.2007 -19.424
438 3 -8.6756 -37.2596 -17.6952
439 4 -8.58625 -38.9331 -15.87595
441 1 -6.92225 -39.0279 -17.72685
442 2 -5.0867 -37.1888 -17.7101
443 3 -5.11585 -38.9115 -15.9188
444 4 -6.79535 -37.1707 -16.0547
279 4 -1.7166 -38.8961 -19.60975
280 4 -3.46955 -37.1035 -19.3896
445 4 -3.4171 -38.886 -17.7148
446 4 -1.5815 -37.1622 -17.7776
447 4 -1.541 -38.8394 -15.86135
448 4 -3.39705 -37.1439 -15.96885
283 1 -22.868885 -35.2613 -19.33725
284 2 -24.289515 -33.3995 -19.2764
288 4 -21.02554 -33.5163 -19.3968
311 4 -22.81749 -31.6628 -19.32185
449 4 -24.678804 -35.3097 -17.6389
450 4 -22.90316 -33.4913 -17.63915
451 4 -22.940325 -35.2763 -15.76885
452 4 -24.757527 -33.5367 -15.9359
453 4 -21.15618 -35.2754 -17.54385
456 4 -21.150775 -33.4905 -15.78005
477 4 -24.608755 -31.7935 -17.7074
479 4 -22.962485 -31.7718 -15.7424
481 1 -21.184785 -31.7266 -17.5045
287 1 -19.4743 -35.349 -19.545
291 3 -16.00605 -35.2851 -19.46115
292 1 -17.72815 -33.4586 -19.48755
315 4 -19.48275 -31.6168 -19.33745
319 1 -15.9256 -31.5498 -19.5171
454 1 -19.27835 -33.5819 -17.4294
455 2 -19.3647 -35.381 -15.60995
457 4 -17.632 -35.4124 -17.77575
458 4 -15.98945 -33.494 -17.66145
459 1 -16.0091 -35.2946 -15.9604
460 2 -17.74485 -33.6683 -15.7639
483 4 -19.44005 -31.5694 -15.7148
485 4 -17.6769 -31.6522 -17.5969
487 1 -15.8745 -31.7632 -15.8076
295 2 -12.3508 -35.3719 -19.5362
296 4 -14.1525 -33.529 -19.42685
300 4 -10.46655 -33.5797 -19.42475
323 4 -12.29785 -31.7307 -19.51655
461 1 -13.944 -35.2378 -17.81925
462 4 -12.35175 -33.4598 -17.6276
463 4 -12.3058 -35.3953 -15.90805
464 4 -14.1591 -33.6003 -15.90435
465 1 -10.67255 -35.3843 -17.7585
468 1 -10.4668 -33.589 -15.89755
489 4 -14.20855 -31.723 -17.72145
491 3 -12.54755 -31.7719 -15.8988
493 1 -10.57025 -31.7055 -17.68235
299 1 -8.608 -35.4296 -19.43035
303 3 -5.0593 -35.3828 -19.19295
304 1 -6.8297 -33.5353 -19.4744
327 2 -8.7119 -31.6199 -19.75295
331 4 -5.10055 -31.8057 -19.35875
466 4 -8.5829 -33.5249 -17.81405
467 1 -8.6122 -35.3879 -16.02575
469 2 -6.7157 -35.4689 -17.67145
470 3 -5.0549 -33.7246 -17.61785
471 4 -5.1584 -35.384 -15.90585
472 4 -6.85225 -33.5621 -15.9949
495 4 -8.67255 -31.7614 -15.92155
497 1 -6.9707 -31.7185 -17.7272
499 1 -5.1766 -31.7768 -15.893
307 1 -1.67535 -35.3383 -19.47335
308 2 -3.4665 -33.6192 -19.3633
335 3 -1.52195 -31.8203 -19.5414
473 3 -3.4395 -35.3726 -17.53765
474 1 -1.5642 -33.6218 -17.63385
475 4 -1.4919 -35.3279 -15.9132
476 4 -3.35885 -33.5294 -15.8869
501 1 -3.2637 -31.7777 -17.60485
503 2 -1.23005 -31.7662 -15.72455
312 3 -24.489725 -29.9744 -19.41925
316 1 -21.106045 -29.8218 -19.22715
478 3 -23.10806 -29.8731 -17.46355
480 4 -24.7259435 -30.0494 -15.8363
484 4 -21.385575 -29.8199 -15.8477
4805 2 -22.977045 -28.3368 -19.199
4806 3 -24.730338 -26.2887 -19.43535
4810 4 -21.187935 -26.4068 -19.2878
4901 2 -24.5895385 -28.0416 -17.72465
4902 4 -23.08937 -26.3322 -17.63885
4903 4 -23.210715 -28.0135 -15.801
4904 2 -24.942899 -26.3991 -16.1672
4905 2 -21.27476 -28.1255 -17.45405
4908 4 -21.42208 -26.3652 -15.7101
320 4 -17.75875 -29.688 -19.3859
482 4 -19.3987 -29.8406 -17.5214
486 4 -15.9211 -29.8645 -17.58625
488 1 -17.69245 -29.722 -15.7174
4809 2 -19.2537 -27.8859 -19.29375
4813 3 -15.98185 -28.1762 -19.34795
4814 2 -17.5931 -26.3758 -19.3703
4906 3 -19.5059 -26.3314 -17.5263
4907 2 -19.72125 -28.1138 -15.92415
4909 2 -17.59685 -27.8868 -17.69385
4910 4 -15.86875 -26.3626 -17.3565
4911 2 -16.2389 -28.0726 -15.99725
4912 4 -17.7848 -26.3552 -15.77765
324 4 -14.18485 -29.8951 -19.49825
328 4 -10.51435 -29.9964 -19.40895
490 1 -12.3824 -29.8769 -17.7494
492 2 -13.9414 -29.7675 -15.97935
496 4 -10.50945 -29.9844 -15.93235
4817 4 -12.29585 -28.1462 -19.61815
4818 4 -14.18755 -26.5893 -19.3202
4822 2 -10.40755 -26.3267 -19.5358
4913 4 -14.07885 -28.1631 -17.59875
4914 4 -12.09375 -26.5739 -17.59275
4915 1 -12.2856 -28.1697 -15.68035
4916 3 -14.1694 -26.3358 -15.78265
4917 3 -10.40145 -28.1335 -17.70015
4920 2 -10.5359 -26.5289 -15.68025
332 4 -7.00745 -29.8914 -19.4491
494 4 -8.76925 -29.9331 -17.64305
498 4 -5.16285 -29.932 -17.71665
500 1 -7.0599 -29.8041 -15.74895
4821 1 -8.765 -28.2789 -19.6098
4825 2 -5.4569 -28.2263 -19.31625
4826 3 -6.93695 -26.3301 -19.29405
4918 3 -8.75245 -26.4695 -17.83235
4919 4 -8.84515 -28.0713 -15.8307
4921 4 -7.0648 -28.1331 -17.65645
4922 4 -5.2624 -26.311 -17.49675
4923 4 -5.2585 -28.1262 -15.75775
4924 4 -7.0756 -26.4064 -15.79685
336 4 -3.34615 -30.0004 -19.37935
502 4 -1.51105 -29.9289 -17.58545
504 4 -3.40085 -30.0737 -15.87545
4829 4 -1.4677 -28.195 -19.40305
4830 1 -3.5349 -26.3461 -19.26225
4925 4 -3.48505 -28.1487 -17.65355
4926 2 -1.4817 -26.3909 -17.6872
4927 1 -1.5222 -28.1703 -15.82575
4928 4 -3.31155 -26.4443 -15.91245
4833 2 -22.92001 -24.8542 -19.4672
4834 4 -24.7500065 -22.9969 -19.47995
4838 4 -21.08834 -22.9907 -19.50695
4929 4 -24.9183805 -24.5693 -17.6969
4930 1 -22.948705 -23.0181 -17.7334
4931 4 -23.34758 -24.5871 -15.77545
4932 2 -24.8053805 -22.4645 -15.95855
4933 2 -21.346 -24.6791 -17.73565
4936 2 -20.98932 -22.9953 -16.00985
4837 3 -19.45045 -24.7681 -19.2504
4841 2 -15.7799 -24.7316 -19.55585
4842 4 -17.8034 -23.0019 -19.4296
4934 4 -19.5379 -22.9286 -17.5577
4935 4 -19.53675 -24.7242 -15.91645
4937 4 -17.61955 -24.6455 -17.7162
4938 4 -15.7732 -22.9016 -17.5664
4939 2 -15.83745 -24.4969 -15.6492
4940 4 -17.65115 -22.9589 -15.90625
4845 4 -12.27745 -24.7889 -19.322
4846 4 -14.0115 -22.9654 -19.3988
4850 4 -10.47625 -22.828 -19.49875
4941 4 -14.09025 -24.718 -17.60645
4942 1 -12.3374 -22.958 -17.4264
4943 4 -12.052 -24.9126 -15.74305
4944 3 -14.1444 -23.0745 -15.774
4945 4 -10.48625 -24.7432 -17.64885
4948 4 -10.4378 -22.9738 -15.88475
4849 4 -8.7213 -24.6298 -19.3919
4853 2 -5.3526 -24.4933 -19.43245
4854 2 -6.8564 -23.0488 -19.4486
4946 2 -8.7758 -22.9648 -17.56715
4947 1 -8.77245 -24.8136 -15.9145
4949 4 -7.05295 -24.6067 -17.62365
4951 2 -5.36805 -24.75 -15.885
4952 3 -6.85435 -22.8401 -15.9767
4950 4 -4.99505 -22.892 -17.706
4857 4 -1.42245 -24.6519 -19.59425
4858 4 -3.27245 -23.0492 -19.53145
4953 2 -3.10175 -24.727 -17.5262
4954 2 -1.36315 -22.7039 -17.66525
4955 2 -1.5809 -24.4194 -15.8127
4956 4 -3.29855 -22.7292 -15.8861
4861 4 -23.006855 -21.1677 -19.37855
4862 2 -24.796986 -19.5401 -19.39735
4866 1 -21.29797 -19.4722 -19.3419
4888 4 -23.00527 -17.7266 -19.3865
4957 2 -24.7091785 -21.0313 -17.77425
4958 4 -23.077865 -19.3955 -17.611
4959 3 -22.887115 -21.0435 -15.96785
4960 1 -24.8318635 -19.5101 -15.8468
4961 2 -21.231735 -21.3105 -17.3874
4964 3 -21.24762 -19.409 -15.9501
4985 4 -24.8757785 -17.6299 -17.55315
4986 2 -22.915325 -17.8311 -15.8895
4987 2 -21.231165 -17.7315 -17.5759
4865 4 -19.42605 -21.0846 -19.37755
4869 4 -15.83385 -21.1614 -19.41545
4870 1 -17.58155 -19.5776 -19.44615
4890 2 -19.47845 -17.917 -19.15145
4892 2 -15.91385 -17.8389 -19.5129
4962 3 -19.4692 -19.4388 -17.4632
4963 4 -19.49145 -21.014 -15.8756
4965 4 -17.63865 -21.2298 -17.67615
4966 4 -15.86585 -19.3743 -17.5982
4967 4 -15.9134 -21.0537 -15.8017
4968 2 -17.7042 -19.2486 -15.82305
4988 4 -19.4479 -17.7129 -15.7901
4989 2 -17.79725 -17.8549 -17.43685
4990 4 -15.85545 -17.6023 -15.95935
4873 4 -12.2075 -21.1495 -19.51785
4874 2 -13.98925 -19.2612 -19.558
4878 3 -10.3041 -19.4194 -19.54095
4894 2 -12.1022 -17.6709 -19.4667
4969 4 -14.0358 -21.1322 -17.74065
4970 1 -12.15855 -19.4915 -17.7692
4971 2 -12.1863 -21.3217 -15.7815
4972 1 -14.0194 -19.3596 -15.958
4973 2 -10.325 -21.2804 -17.9889
4976 1 -10.4908 -19.3614 -15.9594
4991 2 -13.96285 -17.6639 -17.7625
4992 3 -12.1651 -17.547 -16.0169
4993 4 -10.2875 -17.6583 -17.88325
4877 4 -8.5816 -21.2021 -19.4663
4881 2 -5.3356 -21.1005 -19.613
4882 3 -6.88105 -19.4478 -19.465
4896 2 -8.568 -17.7208 -19.5153
4898 2 -5.19135 -17.7353 -19.3012
4974 4 -8.54645 -19.3656 -17.71825
4975 2 -8.6392 -21.3296 -16.0775
4977 4 -6.86755 -21.226 -17.76965
4978 4 -5.15285 -19.4255 -17.5338
4979 2 -5.2585 -21.1127 -15.9406
4980 2 -6.89665 -19.676 -15.78825
4994 2 -8.62685 -17.8407 -15.8944
4995 1 -6.82945 -17.6668 -17.5976
4996 4 -5.2139 -17.7004 -15.71275
4885 4 -1.6213 -21.1641 -19.3303
4886 4 -3.49445 -19.4951 -19.49025
4900 1 -1.5749 -17.7714 -19.4451
4981 1 -3.3761 -21.1647 -17.7089
4982 4 -1.64935 -19.4144 -17.6199
4983 3 -1.5638 -21.0919 -15.758
4984 3 -3.38025 -19.6714 -15.66115
4997 1 -3.38685 -17.7576 -17.44685
4998 2 -1.4902 -17.6443 -15.8422
505 2 -24.9638747 -49.647082 -14.0882
506 1 -22.964215 -47.82125 -13.94015
507 2 -23.51373 -49.359062 -12.2057
508 4 -24.88585 -47.58569 -12.2143
509 4 -21.15023 -49.464231 -14.01285
512 3 -21.172205 -47.84127 -12.1892
533 1 -24.8044055 -46.0567 -14.085
535 4 -23.059025 -45.88496 -12.3354
537 4 -21.12895 -46.10134 -13.97165
673 4 -24.8519955 -49.301251 -10.50775
674 4 -22.99402 -47.81751 -10.73865
677 4 -21.03125 -49.412925 -10.35075
701 4 -24.7516405 -45.95311 -10.48095
705 4 -21.299335 -46.02957 -10.47225
510 4 -19.2873 -47.80374 -14.2129
511 4 -19.3807 -49.429217 -12.24815
513 4 -17.5034 -49.442161 -14.0589
514 4 -15.77775 -47.66724 -13.92055
515 1 -15.61105 -49.471136 -12.2375
516 1 -17.65945 -47.7502 -12.32875
539 2 -19.4504 -46.31859 -12.26205
541 3 -17.5173 -45.94167 -14.0709
543 1 -15.7961 -45.98744 -12.2073
678 2 -19.2777 -47.76699 -10.4995
681 3 -17.501 -49.432789 -10.37935
682 4 -15.8231 -47.74108 -10.58685
709 4 -17.70815 -46.03899 -10.58005
517 1 -13.9655 -49.267827 -14.21245
518 2 -12.1255 -47.59845 -14.35975
519 3 -12.2588 -49.124537 -12.1641
520 4 -13.89665 -47.60505 -12.34115
521 4 -10.65865 -49.315455 -13.9889
524 4 -10.46705 -47.63639 -12.2384
545 1 -14.13515 -45.92086 -14.15975
547 1 -12.1746 -45.93563 -12.27835
549 1 -10.3961 -45.90298 -14.1945
685 2 -14.10895 -49.234945 -10.42465
686 3 -12.2525 -47.76757 -10.5112
689 2 -10.3877 -49.210424 -10.48815
713 1 -13.9652 -45.93239 -10.44315
717 2 -10.46005 -45.98999 -10.4339
522 1 -8.71705 -47.79247 -13.83185
523 2 -8.5553 -49.267967 -12.38155
525 3 -6.66095 -49.218732 -14.1331
526 3 -5.11205 -47.55991 -13.9316
527 4 -5.1545 -49.301529 -12.1912
528 4 -6.9117 -47.60845 -12.1485
551 4 -8.72075 -45.90145 -12.08685
553 1 -6.9058 -45.86347 -13.94435
555 4 -5.1806 -45.886 -12.2167
690 3 -8.59985 -47.75479 -10.44145
693 4 -6.809 -49.423603 -10.38045
694 4 -5.01955 -47.6037 -10.39625
721 1 -6.8359 -45.85922 -10.45135
529 2 -3.88245 -49.138852 -14.34315
530 4 -1.6174 -47.63212 -13.99265
531 4 -1.40055 -49.465381 -12.2552
532 4 -3.27555 -47.69992 -12.27645