# LAMMPS data file written by OVITO Basic 3.8.4

21952 atoms
4 atom types

-25.0 25.0 xlo xhi
-50.0 50.0 ylo yhi
-25.0 25.0 zlo zhi

Masses

1 24.305  # Mg
2 26.981538  # Al
3 63.546  # Cu
4 65.409  # Zn

Atoms  # atomic

1 1 -24.601318 -49.419302 -24.5526205
2 2 -22.78881 -47.77022 -24.8423445
3 3 -22.807515 -49.37551 -22.78294
4 1 -24.6745505 -47.68151 -22.87678
5 2 -21.237445 -49.149643 -24.605272
8 3 -21.206585 -47.67712 -22.974295
29 4 -24.638021 -46.17443 -24.697165
31 4 -22.908595 -45.95854 -23.02349
33 4 -21.09589 -46.11467 -24.7219895
169 4 -24.763355 -49.334315 -21.236845
170 4 -22.90733 -47.65611 -21.19235
173 4 -21.153855 -49.351593 -21.18218
197 4 -24.6886695 -45.97852 -21.27488
201 1 -21.23007 -45.91417 -21.217355
6 2 -19.34615 -47.94404 -24.637377
7 3 -19.48395 -49.358635 -22.79913
9 1 -17.66555 -49.538272 -24.632919
10 4 -15.93505 -47.77158 -24.7831965
11 1 -15.8284 -49.48307 -22.914725
12 3 -17.70725 -47.78812 -22.855295
35 4 -19.4381 -45.99063 -22.80443
37 4 -17.857 -46.162 -24.632689
39 4 -15.88175 -45.99993 -23.06932
174 4 -19.3311 -47.70058 -21.09799
177 2 -17.9089 -49.336897 -21.019045
178 4 -15.87015 -47.69098 -21.200905
205 1 -17.5215 -45.90995 -21.228825
13 2 -13.84815 -49.498332 -24.847365
14 3 -12.2168 -47.69257 -24.6412895
15 4 -12.27845 -49.382174 -22.96279
16 4 -14.11055 -47.6403 -23.04265
17 4 -10.5592 -49.477743 -24.706825
20 4 -10.3292 -47.78461 -23.07623
41 2 -14.2892 -46.11206 -24.633114
43 3 -12.2845 -46.16926 -23.004425
45 4 -10.4441 -46.0939 -24.7420505
181 4 -14.0536 -49.34539 -21.33029
182 4 -12.2656 -47.63726 -21.172445
185 1 -10.4881 -49.304392 -21.15496
209 4 -14.1229 -45.97934 -21.39303
213 1 -10.5129 -46.02419 -21.206385
18 2 -8.8851 -47.48148 -24.6678815
19 1 -8.52465 -49.323315 -23.14861
21 2 -7.03685 -49.252784 -24.787882
22 3 -5.25745 -47.72512 -24.862076
23 3 -5.16555 -49.170001 -23.162915
24 3 -6.90095 -47.52266 -23.11286
47 4 -8.7135 -46.03475 -23.08372
49 4 -6.9115 -45.92274 -24.730582
51 4 -5.01785 -46.00132 -23.071495
186 4 -8.5701 -47.66261 -21.187885
189 4 -6.64685 -49.185671 -21.38676
217 3 -6.90935 -45.98381 -21.39967
190 1 -4.9744 -47.57027 -21.236325
25 4 -3.36565 -49.283817 -24.6821265
26 4 -1.38615 -47.59344 -24.601618
27 4 -1.5953 -49.425208 -22.9551
28 4 -3.17185 -47.63548 -22.88232
53 1 -3.25315 -46.20219 -24.7874705
55 2 -1.48625 -45.93925 -23.00697
193 4 -3.50965 -49.371396 -21.166455
194 4 -1.53245 -47.78825 -21.00866
221 4 -3.3267 -46.00344 -21.099975
30 4 -22.97513 -44.2138 -24.748685
32 1 -24.7988975 -44.29515 -23.001945
36 4 -21.132265 -44.13386 -22.93691
57 3 -24.698457 -42.3988 -24.6588305
58 2 -22.82183 -40.76259 -24.580811
59 4 -23.08439 -42.43895 -23.032795
60 4 -24.8050705 -40.74762 -22.978235
61 1 -21.27854 -42.44208 -24.763218
64 2 -21.219 -40.72205 -23.0821
198 4 -23.02347 -44.14829 -21.308315
225 4 -24.8275815 -42.45618 -21.15673
226 1 -23.076555 -40.67613 -21.34343
229 1 -21.20397 -42.33673 -21.32123
34 2 -19.384 -44.23801 -24.650556
38 3 -16.0395 -44.36872 -24.7467175
40 2 -17.80645 -44.23121 -23.2032
62 3 -19.4626 -40.74957 -24.777605
63 4 -19.40575 -42.34047 -23.02059
65 4 -17.662 -42.46908 -24.76969
66 4 -15.93215 -40.76991 -24.6454365
67 1 -15.96825 -42.51658 -23.079595
68 2 -17.7899 -40.52719 -23.00742
202 3 -19.24115 -43.99171 -21.344455
206 1 -15.83145 -44.19764 -21.312365
230 2 -19.2915 -40.56266 -21.435005
233 3 -17.6987 -42.3399 -21.197295
234 4 -15.77945 -40.78464 -21.30039
42 1 -12.35965 -44.35758 -24.6555445
44 2 -13.90875 -44.33167 -23.155145
48 4 -10.6153 -44.25285 -22.88652
69 4 -14.0332 -42.51389 -24.6258335
70 1 -12.21 -40.83333 -24.680682
71 2 -12.03365 -42.2589 -22.850925
72 3 -13.94915 -40.80252 -22.881725
73 1 -10.3647 -42.47323 -24.601755
76 2 -10.39695 -40.61222 -22.938535
210 1 -12.40195 -44.2371 -21.15979
237 2 -14.0464 -42.52163 -21.43064
238 3 -12.2031 -40.71179 -21.285825
241 3 -10.3996 -42.59781 -21.27288
46 4 -8.71285 -44.1738 -24.6516005
50 1 -5.0869 -44.33129 -24.7858475
52 2 -6.89955 -44.37598 -22.912035
74 3 -8.66265 -40.66977 -24.6731555
75 4 -8.64495 -42.49117 -22.78258
77 4 -6.9976 -42.35105 -24.6217205
78 4 -5.17445 -40.76395 -24.6786785
79 1 -5.4003 -42.63728 -22.95597
80 2 -6.76025 -40.6986 -23.05258
214 4 -8.7226 -44.50159 -21.245085
218 4 -5.09965 -44.30012 -21.10653
242 1 -8.704 -40.72366 -21.288795
245 2 -6.9148 -42.67014 -21.119545
246 3 -5.27505 -40.78578 -21.13335
54 3 -1.5573 -44.22397 -24.8635725
56 1 -3.2642 -44.22297 -22.95386
81 2 -3.2354 -42.48246 -24.9449045
82 3 -1.42045 -40.86213 -24.934257
83 1 -1.232 -42.58442 -22.89354
84 1 -3.31215 -40.97153 -23.09467
222 2 -1.46925 -44.31669 -21.282005
249 1 -3.342 -42.47831 -21.037855
250 4 -1.6678 -40.73309 -21.212755
85 4 -24.6762005 -39.0012 -24.745753
87 4 -22.914615 -38.8364 -22.90005
88 2 -24.672585 -37.0364 -23.144415
89 3 -21.14232 -39.2478 -24.7997785
92 4 -21.280875 -37.0548 -22.91531
253 1 -24.7674905 -38.6849 -21.406675
254 2 -22.89151 -37.0713 -21.27039
257 3 -21.214395 -38.9495 -21.224755
86 1 -22.741225 -37.3798 -24.99038785
90 1 -19.54655 -37.151 -24.7101485
91 3 -19.6862 -39.0039 -23.025525
93 1 -17.6108 -39.0087 -24.6960575
94 3 -15.86635 -37.1756 -24.7344185
95 4 -15.8551 -38.9938 -23.011635
96 4 -17.70135 -37.1638 -23.183775
258 4 -19.4793 -37.217 -21.23877
261 4 -17.6613 -38.9351 -21.363335
262 4 -15.8671 -37.2171 -21.315175
97 1 -14.05725 -38.9211 -24.621265
98 2 -12.351 -36.9765 -24.594052
99 3 -12.21395 -39.0194 -22.85875
100 4 -13.9711 -37.2932 -22.92064
101 4 -10.5849 -38.9304 -24.676631
104 4 -10.67915 -37.2214 -22.98821
265 1 -14.0906 -38.9028 -21.21122
266 2 -12.18495 -37.2398 -21.17085
269 3 -10.5927 -38.9666 -21.197125
102 4 -8.78475 -37.2664 -24.62692
103 4 -8.9232 -39.064 -22.90064
105 4 -6.96045 -39.0813 -24.658862
106 4 -5.1676 -37.1311 -24.7027255
107 4 -5.0313 -39.0879 -22.853055
108 1 -6.9969 -37.361 -23.001335
270 4 -8.76865 -37.0997 -21.30898
273 4 -7.00645 -39.0039 -21.31585
274 4 -5.14905 -37.1656 -21.327295
109 1 -3.3412 -39.0357 -24.7384775
110 2 -1.383 -37.165 -24.8010565
111 1 -1.48765 -39.0272 -23.06157
112 2 -3.38125 -37.3662 -22.930215
277 3 -3.43705 -39.1779 -21.15767
278 4 -1.5635 -37.1936 -21.14353
113 4 -24.526245 -35.5125 -24.8218145
114 1 -22.98301 -33.7135 -24.8429065
115 3 -22.995355 -35.3239 -22.89017
116 4 -24.6349825 -33.5807 -22.98119
117 4 -21.46535 -35.4369 -24.8585315
120 4 -21.138965 -33.5347 -22.91618
141 1 -24.6711395 -31.8538 -24.6024175
143 2 -22.91097 -32.0495 -22.756705
145 1 -21.126145 -31.7901 -24.7261475
281 3 -24.673066 -35.3306 -21.29324
282 4 -22.88462 -33.6442 -21.24707
285 4 -21.15254 -35.4123 -21.14406
309 1 -24.6938325 -31.8969 -21.1829
313 4 -21.270925 -31.7708 -21.221755
118 4 -19.4434 -33.4672 -24.6670705
119 4 -19.5307 -35.3892 -23.008775
121 4 -17.70395 -35.3066 -24.7272705
122 2 -16.0812 -33.4134 -24.5555405
123 1 -15.87715 -35.4217 -23.016485
124 2 -17.88595 -33.6842 -22.866105
147 3 -19.25615 -31.8268 -22.891615
149 3 -17.80925 -31.746 -24.6189435
151 1 -15.80905 -31.868 -23.015695
286 2 -19.39185 -33.7334 -21.329305
289 4 -17.54715 -35.4291 -21.335515
290 4 -15.8812 -33.534 -21.17389
317 4 -17.66795 -31.8667 -21.182875
125 4 -14.19575 -35.3663 -24.736397
126 4 -12.27095 -33.577 -24.6702115
127 4 -12.3391 -35.4412 -23.017245
128 4 -14.05875 -33.6546 -22.967645
129 4 -10.5607 -35.4051 -24.767972
132 4 -10.52315 -33.7781 -22.90779
153 4 -14.0021 -31.8283 -24.784368
155 1 -12.26995 -31.6233 -23.010895
157 2 -10.47025 -31.8169 -24.7477705
293 1 -14.06185 -35.3781 -21.21355
294 4 -12.27285 -33.7008 -21.131955
297 4 -10.5695 -35.4819 -21.155145
321 4 -14.00735 -31.8324 -21.212285
325 1 -10.56085 -31.9681 -21.24726
131 3 -8.8813 -35.4343 -23.029615
133 4 -7.0439 -35.4585 -24.6696175
134 2 -5.0147 -33.5913 -24.915041
135 1 -5.0957 -35.3479 -23.154705
136 1 -7.09475 -33.6345 -23.00432
159 4 -8.82695 -31.9364 -23.01986
161 1 -6.87505 -31.8688 -24.624766
298 2 -8.8173 -33.8527 -21.20767
301 1 -6.94765 -35.4378 -21.12147
302 2 -5.1489 -33.4887 -21.340365
329 4 -6.9595 -31.8643 -21.26286
130 2 -8.78825 -33.8325 -24.9869312
163 2 -4.88455 -31.7823 -22.92941
137 3 -3.1917 -35.2929 -24.776242
138 3 -1.5267 -33.6005 -24.808201
139 1 -1.34245 -35.5198 -23.07602
140 2 -3.09285 -33.6813 -23.047635
165 3 -3.2452 -31.9469 -24.699311
167 4 -1.5087 -31.8047 -23.13287
305 1 -3.289 -35.444 -21.28175
306 4 -1.53635 -33.5336 -21.33987
333 4 -3.24385 -31.6835 -21.15994
142 1 -22.938475 -29.9903 -24.7816355
144 1 -24.836437 -29.9175 -23.017095
148 1 -21.2734 -30.1172 -22.931375
310 3 -23.012785 -30.053 -21.15693
4705 2 -24.5328675 -28.0041 -24.8334785
4706 3 -23.042585 -26.457 -24.6416125
4707 2 -23.27281 -28.1678 -22.719765
4708 4 -24.8829335 -26.3378 -22.96057
4709 2 -21.355795 -28.4392 -24.440405
4712 1 -21.325255 -26.4577 -22.837615
4803 2 -24.923335 -27.9709 -21.12248
4804 4 -23.08026 -26.4378 -21.212215
4807 4 -21.155975 -28.2611 -21.24999
146 2 -19.34215 -29.9594 -24.8739185
150 4 -15.8057 -30.1257 -24.8041545
152 3 -17.67495 -30.0091 -23.10622
314 4 -19.4615 -30.0745 -21.384535
318 4 -15.8978 -30.0357 -21.40241
4710 2 -19.58625 -26.5491 -24.6666815
4711 2 -19.3537 -28.4115 -22.86296
4713 2 -17.6022 -28.2228 -24.711339
4714 2 -16.0852 -26.5879 -24.808391
4715 2 -15.73445 -28.1708 -23.213025
4716 4 -17.62915 -26.4517 -22.90671
4808 1 -19.42975 -26.4648 -21.185075
4811 4 -17.7397 -28.295 -21.30876
4812 3 -15.9658 -26.4128 -21.300815
154 3 -12.13885 -30.0075 -24.904975
156 4 -14.0293 -29.9175 -23.005565
160 4 -10.4501 -29.9529 -22.86071
322 4 -12.18685 -30.0242 -21.1026
4718 4 -12.2219 -26.523 -24.6434935
4719 4 -12.24425 -28.1342 -22.81177
4720 2 -14.0904 -26.2803 -22.79136
4721 4 -10.3756 -28.2406 -24.5938505
4724 4 -10.60465 -26.4288 -22.83606
4815 1 -14.0472 -28.2209 -21.238675
4816 2 -12.64905 -26.518 -20.695375
4819 3 -10.61275 -28.2225 -21.087665
158 1 -8.7241 -29.9933 -24.4439
164 3 -6.71845 -30.1277 -22.75626
326 1 -8.75475 -30.0748 -21.166255
330 4 -5.00515 -29.8515 -21.207015
4722 3 -8.85575 -26.2663 -24.704699
4723 2 -8.61325 -28.2436 -22.702785
4725 2 -7.45865 -27.995 -24.904984
4726 4 -5.31235 -26.5348 -24.7437025
4727 4 -5.50575 -28.3384 -23.155425
4728 2 -7.12 -26.5714 -22.799495
4820 4 -8.9361 -26.2248 -21.007465
4823 2 -6.96245 -28.2518 -21.059385
4824 2 -5.04795 -26.3096 -21.44285
162 2 -4.9653 -30.2479 -24.7165235
166 4 -1.6549 -29.9007 -24.786348
168 1 -3.36485 -29.9043 -22.95582
334 1 -1.3716 -29.9931 -21.27922
4729 1 -3.532 -28.2093 -24.793473
4730 2 -1.6799 -26.4331 -24.73363
4731 3 -1.42915 -28.1553 -23.130525
4732 4 -3.29795 -26.4922 -23.169315
4827 2 -3.1654 -28.1187 -21.160385
4828 2 -1.571 -26.666 -21.2695
4733 2 -24.91531 -24.4351 -24.5502855
4734 2 -23.07527 -22.886 -24.8007655
4735 2 -23.0694 -24.7487 -22.99574
4736 3 -24.817756 -22.9305 -22.96202
4737 2 -21.32499 -24.7787 -24.584851
4740 4 -21.318015 -22.9429 -22.923825
4831 4 -24.592337 -24.5554 -21.2815
4832 2 -22.974625 -22.8 -20.86898
4835 2 -21.45167 -24.5497 -21.05849
4738 4 -19.35055 -22.8532 -24.6709115
4739 2 -19.45605 -24.635 -22.97382
4741 3 -17.798 -24.8571 -24.6471875
4742 1 -15.93255 -23.053 -24.712472
4743 2 -16.03115 -24.5647 -22.79863
4744 2 -17.78725 -22.7878 -22.96328
4836 3 -19.5596 -22.8309 -21.297465
4839 2 -17.61505 -24.585 -21.116885
4840 2 -15.8432 -22.8744 -21.119245
4745 2 -14.44185 -24.8229 -24.6088565
4746 3 -12.7236 -23.0174 -24.759772
4747 4 -12.34215 -24.7166 -23.01019
4748 4 -14.17835 -23.0055 -22.876375
4749 2 -10.7103 -24.5171 -24.733723
4752 2 -10.60945 -22.9883 -23.081665
4843 1 -13.8502 -24.6664 -21.178245
4844 4 -12.3205 -22.92 -21.167395
4847 3 -10.652 -24.621 -21.2206
4750 2 -8.85465 -23.0794 -24.777562
4751 4 -8.87985 -24.7308 -22.99983
4753 4 -6.9822 -24.7752 -24.6782065
4755 2 -5.32475 -24.7678 -22.95301
4756 4 -7.0856 -22.8746 -23.00001
4848 4 -8.8754 -23.1737 -20.954675
4851 4 -6.95545 -24.7184 -21.310585
4852 4 -5.1491 -22.896 -21.338005
4754 2 -4.8752 -23.037 -24.579758
4757 2 -3.3541 -24.7583 -24.861372
4758 4 -1.44325 -22.9071 -24.761839
4759 4 -1.45355 -24.7447 -23.00865
4760 2 -3.079 -22.6768 -23.03269
4855 4 -3.41195 -24.702 -21.338905
4856 2 -1.5977 -22.8106 -21.45427
4761 4 -24.6762635 -21.1212 -24.601459
4762 3 -22.999555 -19.4636 -24.9305725
4763 1 -22.998345 -21.0814 -22.838125
4765 2 -21.60731 -21.2899 -24.534328
4768 2 -21.018035 -19.5657 -23.058075
4790 4 -22.928575 -18.1356 -23.129605
4791 2 -21.18552 -17.6867 -24.7359945
4859 4 -24.6768105 -21.3336 -21.220615
4860 4 -23.161305 -19.45 -21.01334
4863 4 -21.269095 -21.1597 -21.182415
4887 2 -24.565161 -17.6776 -20.89361
4889 4 -21.247465 -17.8164 -21.37065
6078 2 -24.8858825 -16.817 -23.069425
4789 2 -24.684402 -17.9511 -24.97573445
4766 3 -19.39115 -19.4042 -24.661652
4767 2 -19.53055 -21.2275 -23.107725
4769 2 -17.76305 -20.9454 -24.765348
4770 4 -15.93595 -19.389 -24.612617
4771 1 -15.84305 -21.1261 -22.92319
4772 3 -17.89795 -19.3877 -22.9563
4792 2 -19.51455 -17.8923 -22.85082
4793 2 -17.87355 -17.4724 -24.504033
4794 4 -16.05235 -17.8118 -22.80272
4864 2 -19.54745 -19.6665 -21.009165
4867 3 -17.9848 -21.1132 -21.445825
4868 2 -16.17935 -19.409 -21.22932
4891 2 -18.0074 -17.5426 -21.070305
4773 3 -13.9976 -21.2492 -24.92828
4774 2 -12.51465 -19.459 -24.7630875
4775 1 -12.52035 -21.2135 -22.73082
4776 2 -14.2116 -19.3727 -22.857335
4777 1 -10.7982 -21.239 -24.8138475
4780 2 -10.6383 -19.5088 -23.006335
4795 2 -14.055 -17.6996 -24.707357
4796 2 -12.32975 -17.7452 -22.860705
4797 2 -10.5951 -17.7112 -24.661737
4871 2 -14.23455 -21.0196 -20.99049
4872 3 -12.3542 -19.2608 -21.0688
4875 2 -10.59085 -21.2555 -21.147825
4893 3 -14.0224 -17.7516 -21.14902
4895 2 -10.6214 -17.6679 -21.138285
4778 4 -8.7678 -19.2718 -24.669584
4779 4 -8.9277 -21.2862 -22.902535
4781 1 -7.0085 -21.261 -24.693355
4782 2 -5.25515 -19.3103 -24.843809
4783 1 -5.2737 -20.979 -22.87494
4784 3 -7.00795 -19.1239 -23.099435
4798 2 -8.77005 -17.5597 -22.81592
4799 3 -6.9575 -17.6203 -24.6600755
4800 4 -5.18035 -17.7097 -22.98138
4876 1 -8.78785 -19.3522 -21.298295
4879 4 -6.9938 -20.9403 -21.189895
4880 2 -5.0374 -19.3375 -21.07046
4897 2 -6.79545 -17.6238 -21.17942
4785 3 -3.1709 -21.1076 -24.9561078
4786 2 -1.51815 -19.4556 -24.9535888
4787 2 -1.50695 -21.1209 -22.99495
4788 4 -3.42655 -19.5183 -23.2001
4801 4 -3.34275 -17.5942 -24.639387
4802 1 -1.55695 -17.7059 -23.074635
4883 4 -3.36535 -21.0631 -21.25921
4884 3 -1.49125 -19.4943 -21.29076
4899 4 -3.2805 -17.789 -21.16767
171 4 -22.981085 -49.392712 -19.5339
172 4 -24.8129985 -47.68358 -19.4678
176 4 -21.111945 -47.60075 -19.4258
199 4 -22.89136 -45.82317 -19.4233
337 4 -24.7750165 -49.496396 -17.79565
338 1 -22.936375 -47.60098 -17.793
339 2 -22.675815 -49.273061 -16.2976
340 1 -24.7467705 -47.7044 -15.9961
341 2 -21.077825 -49.529249 -17.96385
344 3 -21.100735 -47.60812 -16.0656
365 4 -24.713897 -45.87539 -17.72025
367 4 -22.939675 -45.86004 -15.8944
369 1 -21.13281 -45.67803 -17.7075
175 2 -19.62935 -49.203217 -19.54185
179 1 -15.82495 -49.249407 -19.37705
180 4 -17.6066 -47.76739 -19.3846
203 1 -19.27985 -45.86424 -19.48765
207 3 -15.7591 -46.06493 -19.3289
342 3 -19.5442 -47.67141 -17.6296
343 4 -19.5041 -49.25955 -15.8866
345 1 -17.70785 -49.315815 -17.61485
346 2 -15.93345 -47.56803 -17.53095
347 3 -15.87625 -49.378779 -15.9667
348 4 -17.64245 -47.72139 -15.90135
371 4 -19.4101 -45.8952 -15.97185
373 4 -17.5557 -46.02824 -17.68075
375 4 -15.83345 -46.08392 -15.98865
183 4 -12.3352 -49.448837 -19.3737
184 3 -14.01265 -47.60183 -19.5299
188 1 -10.5446 -47.73133 -19.3045
211 2 -12.43775 -45.99982 -19.44745
349 4 -14.12965 -49.375728 -17.65695
350 1 -12.37765 -47.73395 -17.52135
351 4 -12.32375 -49.33617 -15.6837
352 4 -14.1597 -47.76523 -15.86595
353 4 -10.5022 -49.308611 -17.6008
356 4 -10.4822 -47.68683 -15.7903
377 4 -14.09745 -46.09329 -17.7001
379 4 -12.22725 -45.99228 -15.80415
381 1 -10.54235 -45.9296 -17.5692
187 2 -8.48345 -49.31897 -19.38735
191 3 -5.08145 -49.272939 -19.22455
192 4 -6.78175 -47.63872 -19.47645
215 1 -8.67055 -46.09934 -19.37145
219 2 -5.1244 -46.13363 -19.4673
354 3 -8.62355 -47.72724 -17.53105
355 4 -8.7282 -49.329747 -15.73595
357 4 -7.03045 -49.325975 -17.488
358 4 -5.10135 -47.64548 -17.71595
359 1 -5.2611 -49.281851 -15.9485
360 2 -6.9904 -47.70069 -15.7395
383 3 -8.633 -46.00702 -15.97945
385 4 -6.77645 -45.89937 -17.77655
387 4 -5.23275 -46.00028 -15.7883
195 2 -1.7252 -49.530388 -19.1689
196 3 -3.2141 -47.77065 -19.2009
223 4 -1.45015 -46.16618 -19.2333
361 2 -3.34645 -49.357034 -17.3525
362 3 -1.5143 -47.85016 -17.6039
363 4 -1.3311 -49.351483 -15.63415
364 1 -3.31105 -47.68439 -15.8724
389 4 -3.3189 -45.91889 -17.55915
391 4 -1.5085 -45.91621 -15.86305
200 4 -24.740301 -44.13305 -19.44625
204 4 -21.05855 -44.06726 -19.61855
227 4 -22.89166 -42.33684 -19.54245
228 1 -24.8965255 -40.56442 -19.5835
232 2 -21.002585 -40.62567 -19.68605
366 1 -22.99599 -44.04474 -17.70395
368 1 -24.725475 -44.1317 -15.9075
372 4 -21.17413 -44.18832 -15.80775
393 3 -24.903651 -42.45491 -17.85275
394 1 -22.868015 -40.75097 -17.7908
395 4 -23.006275 -42.45169 -15.7787
396 3 -24.734094 -40.89789 -16.04415
397 4 -21.157545 -42.47053 -17.72175
400 4 -21.21287 -40.78476 -15.92925
208 2 -17.58385 -44.04647 -19.51395
231 1 -19.4425 -42.32683 -19.41055
235 2 -15.84205 -42.44838 -19.63715
236 3 -17.48485 -40.66849 -19.60005
370 4 -19.2472 -44.1917 -17.78335
374 4 -15.7985 -44.07668 -17.8565
376 4 -17.5262 -44.24173 -15.971
398 4 -19.4115 -40.63266 -17.7382
399 4 -19.38115 -42.44958 -15.92465
401 1 -17.5807 -42.41019 -17.7103
402 4 -15.87085 -40.76272 -17.7346
403 4 -15.8103 -42.44491 -15.8487
404 4 -17.62585 -40.69122 -15.9111
212 4 -14.0752 -44.41032 -19.55185
216 4 -10.40175 -44.15554 -19.5076
239 1 -12.23005 -42.43761 -19.49415
240 2 -14.0057 -40.6787 -19.7322
244 4 -10.48475 -40.79464 -19.49825
378 4 -12.34125 -44.38232 -17.8602
380 4 -14.0813 -44.30064 -15.9353
384 4 -10.35755 -44.28313 -15.8991
405 1 -14.04275 -42.53731 -17.63165
406 4 -12.3114 -40.78025 -17.8008
407 4 -12.21305 -42.52339 -15.98315
408 4 -14.01405 -40.74288 -15.8474
409 4 -10.42185 -42.5791 -17.71105
412 4 -10.43885 -40.80821 -15.96155
220 1 -7.04595 -44.17259 -19.55545
243 2 -8.76395 -42.34137 -19.61525
247 3 -5.23615 -42.3299 -19.50955
248 2 -7.03615 -40.86962 -19.4194
382 4 -8.6591 -44.30337 -17.7686
386 1 -5.11665 -44.35111 -17.6115
388 2 -7.0503 -44.20544 -15.94245
410 3 -8.6772 -40.87255 -17.6471
411 4 -8.63475 -42.59902 -15.89105
413 4 -6.8534 -42.60417 -17.6535
414 2 -5.25355 -40.87823 -17.7443
415 3 -5.1959 -42.61056 -15.8231
416 4 -6.8349 -40.87961 -15.9187
224 4 -3.3362 -44.31959 -19.40255
251 1 -1.48715 -42.33636 -19.4193
252 2 -3.35215 -40.58269 -19.2165
390 4 -1.55305 -44.21895 -17.68775
392 4 -3.36805 -44.10749 -15.75865
417 1 -3.3336 -42.53656 -17.6599
418 4 -1.46925 -40.67765 -17.5593
419 4 -1.49795 -42.34141 -15.73095
420 1 -3.3279 -40.68613 -15.88965
255 3 -22.878945 -38.7822 -19.59
256 2 -24.650407 -36.9805 -19.6922
260 3 -21.217555 -37.1766 -19.51565
421 4 -24.6108685 -38.9993 -17.8334
422 4 -22.874665 -37.2504 -17.659
423 4 -22.97919 -39.0581 -16.0026
424 4 -24.7796205 -37.3017 -15.9679
425 4 -21.15393 -38.995 -17.8978
428 3 -21.256555 -37.4046 -15.88955
259 4 -19.35625 -39.0392 -19.58745
263 4 -15.7819 -39.0647 -19.5251
264 4 -17.6115 -37.2473 -19.6446
426 4 -19.4242 -37.2165 -17.93455
427 4 -19.4497 -38.896 -15.91625
429 4 -17.6764 -38.885 -17.7483
430 1 -15.8813 -37.1878 -17.82585
431 1 -15.8643 -38.9764 -15.9435
432 4 -17.61455 -37.1055 -15.90735
267 4 -12.24565 -39.006 -19.4811
268 4 -13.85555 -37.0885 -19.5446
272 4 -10.5079 -37.2898 -19.5321
433 4 -14.05945 -39.0025 -17.7393
434 4 -12.2208 -37.0782 -17.6888
435 4 -12.1998 -38.9892 -15.91265
436 4 -13.99145 -37.1213 -15.9296
437 4 -10.5221 -38.9763 -17.75555
440 4 -10.43705 -37.1283 -15.9596
271 4 -8.72025 -39.0792 -19.50395
275 4 -5.24975 -39.1044 -19.63385
276 4 -6.9453 -37.3011 -19.51175
438 1 -8.70535 -37.2623 -17.7553
439 4 -8.68965 -38.9823 -16.06605
441 1 -6.6852 -39.237 -17.746
442 4 -5.07555 -37.1503 -17.66805
443 4 -5.1007 -38.9948 -15.86905
444 4 -6.9316 -37.2542 -15.9948
279 4 -1.5096 -39.0022 -19.45145
280 1 -3.39315 -37.3078 -19.4275
445 2 -3.43505 -38.9848 -17.79555
446 4 -1.52745 -37.2062 -17.7379
447 4 -1.4871 -38.9881 -15.71155
448 4 -3.28515 -37.2602 -15.9788
283 4 -22.98928 -35.508 -19.48795
284 4 -24.8364335 -33.6896 -19.4811
288 4 -21.19805 -33.6312 -19.52305
311 4 -23.113615 -31.8011 -19.33195
449 4 -24.6136875 -35.5278 -17.72945
450 4 -22.99403 -33.7537 -17.71035
451 1 -22.962455 -35.6015 -15.89795
453 4 -21.19691 -35.4185 -17.67455
456 1 -21.14337 -33.5551 -15.8476
477 1 -24.906095 -31.8621 -17.71485
479 2 -23.435785 -31.9099 -15.9295
481 1 -21.27166 -31.8312 -17.66995
287 3 -19.34975 -35.2688 -19.47985
291 4 -15.81525 -35.4437 -19.49075
292 2 -17.69825 -33.745 -19.47755
315 1 -19.48475 -31.7846 -19.5779
319 4 -15.7965 -31.6479 -19.449
454 4 -19.4413 -33.624 -17.69755
455 1 -19.4858 -35.6005 -16.01275
457 4 -17.6788 -35.4188 -17.761
458 4 -15.9539 -33.5748 -17.71735
459 4 -15.8557 -35.344 -15.86985
460 1 -17.709 -33.6714 -15.8666
483 4 -19.4258 -31.7293 -15.8298
485 1 -17.7237 -31.8128 -17.7247
487 3 -15.8565 -31.8574 -15.9349
295 3 -12.10505 -35.3903 -19.3783
296 4 -14.07085 -33.5954 -19.39535
300 4 -10.3808 -33.613 -19.44825
323 4 -12.13865 -31.8323 -19.4005
461 1 -14.03605 -35.3247 -17.676
462 1 -12.1322 -33.5191 -17.63415
463 2 -12.29485 -35.3476 -15.9658
464 4 -14.02665 -33.4952 -15.9106
465 3 -10.4854 -35.4292 -17.6585
468 4 -10.40565 -33.6732 -15.79215
489 1 -14.00085 -31.7489 -17.6921
491 4 -12.18205 -31.6634 -15.83085
493 4 -10.40305 -31.8313 -17.59025
299 4 -8.71805 -35.4728 -19.4395
303 4 -5.06865 -35.386 -19.50715
304 4 -6.9582 -33.6137 -19.4312
327 4 -8.73355 -31.6714 -19.4108
331 1 -5.2335 -31.6236 -19.43885
466 1 -8.67835 -33.5593 -17.6291
467 2 -8.6068 -35.4424 -15.8532
469 4 -6.90955 -35.4423 -17.6827
470 1 -5.14365 -33.7473 -17.6175
471 2 -5.32505 -35.4403 -15.8568
472 4 -6.9753 -33.5091 -15.87395
495 2 -8.68985 -31.6887 -15.7863
497 4 -6.9138 -31.6488 -17.64605
499 1 -5.1492 -31.7352 -15.81555
307 3 -1.50275 -35.276 -19.43735
308 1 -3.2887 -33.4776 -19.50545
335 2 -1.35875 -31.8473 -19.30115
473 4 -3.2325 -35.3351 -17.7589
474 4 -1.51035 -33.4594 -17.77295
475 4 -1.53825 -35.3318 -15.9682
476 4 -3.45055 -33.5687 -15.8299
501 4 -3.43315 -31.7101 -17.50445
503 4 -1.5885 -31.6122 -15.85395
312 4 -24.7313845 -29.8869 -19.52175
316 4 -21.24404 -30.0909 -19.4261
478 1 -23.040425 -29.9944 -17.56255
480 2 -24.858465 -29.9416 -15.78315
484 3 -21.11414 -29.9689 -15.9281
4805 1 -22.91934 -28.1805 -19.51885
4806 3 -24.7154745 -26.2428 -19.4885
4810 4 -21.166965 -26.5408 -19.45635
4901 4 -24.6016465 -27.9879 -17.7784
4902 2 -22.83336 -26.4377 -17.46495
4903 2 -23.058975 -28.1026 -16.1318
4904 2 -24.860235 -26.2662 -15.7917
4905 4 -21.19153 -28.3912 -17.66915
4908 2 -20.862945 -26.3527 -16.00505
320 4 -17.5822 -29.9832 -19.57525
482 2 -19.3722 -29.9548 -17.46665
486 1 -15.79635 -29.8754 -17.6818
488 4 -17.5444 -30.026 -15.9235
4809 4 -19.4443 -28.3172 -19.37695
4813 4 -15.9461 -28.2087 -19.63675
4814 4 -17.6212 -26.3951 -19.53835
4906 3 -19.43845 -26.3916 -17.7732
4907 2 -19.40765 -28.1755 -15.9967
4909 1 -17.70765 -28.2777 -17.785
4910 4 -15.7545 -26.5914 -17.8831
4911 2 -16.0255 -28.0651 -15.81135
4912 3 -17.7392 -26.4251 -16.0829
324 4 -13.9292 -29.932 -19.3964
328 3 -10.4595 -29.9578 -19.2926
490 4 -12.15245 -29.9786 -17.665
492 4 -14.13175 -30.0241 -15.93445
496 1 -10.42285 -29.9287 -15.8297
4817 2 -12.241 -28.4113 -19.3274
4818 2 -14.48765 -26.4857 -19.4268
4822 2 -10.57315 -26.7705 -19.37915
4913 3 -13.88795 -28.206 -17.7013
4914 4 -12.28515 -26.4855 -17.8089
4915 4 -12.0657 -28.2035 -15.89495
4916 4 -14.09185 -26.6364 -16.02865
4917 2 -10.3698 -28.269 -17.67685
4920 4 -10.4662 -26.3451 -15.8039
332 4 -7.04465 -29.8814 -19.5082
494 3 -8.6517 -29.977 -17.68245
498 4 -5.151 -29.8289 -17.6607
500 4 -6.8645 -29.92 -15.8354
4821 2 -8.7538 -28.2583 -19.38065
4825 2 -5.4015 -28.158 -19.50125
4826 3 -6.88925 -26.3876 -19.64355
4918 2 -8.64975 -26.3185 -17.90445
4919 4 -8.74815 -28.1717 -16.0164
4921 4 -6.8364 -28.0365 -17.5281
4922 1 -5.04765 -26.3837 -17.81455
4923 2 -5.07935 -28.321 -15.75635
4924 3 -7.03345 -26.4344 -15.76745
336 4 -3.24455 -29.9373 -19.43575
502 1 -1.5538 -30.0197 -17.7195
504 2 -3.18445 -30.0474 -15.6216
4829 4 -1.33725 -28.1165 -19.3341
4830 4 -3.3215 -26.4521 -19.5401
4925 2 -3.3621 -28.1771 -17.5063
4926 4 -1.46415 -26.3588 -17.5912
4927 4 -1.41835 -28.2502 -15.9953
4928 2 -3.21205 -26.393 -15.65635
4833 4 -22.82013 -24.8054 -19.26015
4834 2 -24.753789 -22.9732 -19.38055
4838 2 -20.8191 -23.154 -19.43305
4929 4 -24.7673205 -24.6404 -17.69975
4930 4 -22.98705 -22.8947 -17.65805
4931 4 -22.96187 -24.6251 -15.8945
4933 2 -21.13143 -24.8983 -17.69675
4936 2 -21.36075 -22.7908 -15.90835
4837 2 -19.14065 -24.7801 -19.5479
4841 3 -15.86515 -24.7098 -19.67475
4842 4 -17.7448 -22.6005 -19.6897
4934 4 -19.33565 -22.9402 -17.783
4935 4 -19.3724 -24.6375 -16.06375
4937 4 -17.59745 -24.6415 -17.8303
4938 1 -15.92955 -22.9593 -17.7696
4939 4 -15.9222 -24.8708 -16.05215
4940 4 -17.61935 -22.9901 -15.9348
4845 2 -11.90395 -24.7499 -19.41965
4846 3 -13.83815 -22.9398 -19.38085
4850 2 -10.966 -22.7776 -19.1059
4941 4 -14.16645 -24.8383 -17.9311
4942 2 -12.4782 -23.1931 -17.5247
4943 4 -12.44155 -24.7524 -16.00745
4944 4 -14.1223 -23.0644 -16.1536
4945 4 -10.4707 -24.6645 -17.7483
4948 4 -10.6375 -22.9459 -15.7931
4849 2 -8.38195 -24.6039 -19.36
4853 4 -5.1532 -24.6576 -19.4676
4854 4 -6.96915 -23.0184 -19.526
4946 4 -8.65895 -23.0413 -17.71755
4947 4 -8.66185 -24.7404 -15.86825
4949 2 -6.9422 -24.7835 -17.57135
4950 4 -5.23685 -22.8686 -17.66865
4951 4 -5.19525 -24.8299 -16.0213
4952 4 -6.90205 -22.9395 -15.82995
4857 4 -1.5302 -24.5258 -19.47295
4858 4 -3.30185 -22.8041 -19.4138
4953 2 -3.121 -24.5144 -17.7085
4954 2 -1.63785 -23.0794 -17.6657
4955 4 -1.47725 -24.6172 -15.71745
4956 4 -3.4687 -22.939 -15.8798
4861 4 -23.053755 -21.1632 -19.37345
4862 2 -24.8880095 -19.2231 -19.3239
4866 4 -21.219095 -19.5325 -19.19165
4888 4 -22.84611 -17.6533 -19.3746
4957 4 -24.8601685 -21.0132 -17.59125
4958 2 -22.983355 -19.2866 -17.67225
4959 1 -23.007525 -21.1022 -16.065
4960 1 -24.729304 -19.2126 -15.92115
4961 2 -20.985475 -21.3911 -17.5664
4964 3 -21.335555 -19.3385 -15.83865
4985 3 -24.67964 -17.4676 -17.7247
4986 2 -22.75012 -17.395 -15.9942
4987 2 -21.17474 -17.6421 -17.58475
4865 2 -19.5663 -21.065 -19.27715
4869 1 -15.9785 -21.0167 -19.4549
4870 1 -17.98345 -19.4132 -19.31935
4890 2 -19.71605 -17.6172 -19.1784
4892 1 -15.9959 -17.7897 -19.48945
4962 4 -19.52015 -19.3354 -17.29395
4963 3 -19.4528 -21.3717 -15.9534
4965 3 -17.84235 -21.1352 -17.4388
4966 4 -15.9474 -19.3674 -17.57685
4967 4 -15.79295 -21.1975 -16.0346
4968 2 -17.62615 -19.5462 -15.7715
4988 1 -19.29885 -17.5766 -15.7473
4989 4 -17.701 -17.6575 -17.52325
4990 4 -15.7566 -17.6932 -15.66575
4873 2 -12.3862 -20.89 -19.4926
4874 2 -13.957 -19.2979 -19.2733
4878 2 -10.4305 -19.3507 -19.46845
4894 4 -12.25785 -17.4699 -19.4522
4969 4 -14.1186 -21.2294 -17.9034
4970 4 -12.44495 -19.3465 -17.63865
4971 4 -12.4566 -21.235 -15.90625
4972 4 -14.11625 -19.441 -15.7829
4973 2 -10.3035 -21.0825 -17.6607
4976 4 -10.71575 -19.4558 -15.8464
4991 2 -14.1337 -17.6572 -17.957
4992 2 -12.40555 -17.5966 -15.8755
4993 2 -10.4761 -17.6468 -17.69365
4877 1 -8.6235 -21.2495 -19.37315
4881 1 -5.2151 -21.2123 -19.4993
4882 3 -6.91625 -19.2533 -19.365
4896 2 -8.71895 -17.5585 -19.4562
4898 2 -5.1202 -17.8319 -19.415
4974 2 -8.6181 -19.3475 -17.5986
4975 2 -8.7919 -21.1189 -16.00065
4977 2 -6.7958 -21.0421 -17.7802
4978 3 -5.2665 -19.3748 -17.57895
4979 2 -5.1541 -21.0998 -15.98215
4980 3 -6.976 -19.4839 -15.9325
4994 2 -8.56655 -17.5811 -15.9264
4995 4 -6.8862 -17.7284 -17.5993
4996 4 -5.1641 -17.7122 -15.86755
4885 4 -1.4241 -21.1865 -19.2571
4886 1 -3.1945 -19.456 -19.40015
4900 4 -1.46005 -17.6821 -19.4561
4981 4 -3.55255 -21.0483 -17.6317
4982 2 -1.76245 -19.3213 -17.5972
4983 4 -1.5987 -21.0938 -15.9637
4984 4 -3.3388 -19.348 -15.85555
4997 4 -3.57695 -17.5745 -17.63285
4998 2 -1.70345 -17.8531 -16.10815
505 4 -24.756685 -49.359172 -14.1792
506 1 -22.872135 -47.70516 -14.23975
507 2 -22.838155 -49.376545 -12.48965
508 1 -24.815967 -47.59042 -12.44045
509 2 -21.01139 -49.064307 -14.283
512 4 -21.12795 -47.65072 -12.3534
533 4 -24.6908685 -45.93206 -14.14325
535 1 -22.81662 -45.92651 -12.3877
537 2 -20.926195 -45.95709 -14.35405
673 1 -24.7069165 -49.351445 -10.6328
674 1 -22.672925 -47.90348 -10.54135
677 2 -20.914345 -49.535848 -10.41005
701 3 -24.5847575 -46.1818 -10.45625
705 1 -21.075695 -45.82259 -10.4207
510 2 -19.36795 -47.59454 -14.17545
511 3 -19.35185 -49.084518 -12.39065
513 4 -17.81015 -49.269012 -14.0821
514 1 -15.8461 -47.7894 -14.0191
515 2 -16.08475 -49.417815 -12.28455
516 3 -17.6446 -47.59642 -12.21095
539 4 -19.37205 -45.96453 -12.28295
541 4 -17.66835 -46.12911 -14.1108
543 4 -15.79695 -45.97046 -12.25155
678 4 -19.4095 -47.6606 -10.5047
681 4 -17.55345 -49.373498 -10.67845
682 4 -15.796 -47.74684 -10.5465
709 4 -17.6183 -45.92247 -10.4928
517 2 -14.05805 -49.458914 -13.7319
518 3 -12.3606 -47.62531 -14.0734
519 2 -12.14225 -49.10451 -12.49615
520 4 -14.0674 -47.73023 -12.3131
521 2 -10.35255 -49.490524 -14.2126
524 4 -10.4329 -47.63429 -12.22265
545 4 -14.12485 -45.98451 -14.1061
547 4 -12.27505 -45.98216 -12.28035
549 4 -10.44635 -45.90241 -14.0446
685 4 -13.91135 -49.564582 -10.6598
686 1 -12.41835 -47.63208 -10.4985
689 1 -10.5242 -49.315455 -10.55075
713 2 -13.9609 -46.01577 -10.45765
717 3 -10.4459 -46.0379 -10.4229
522 3 -8.8094 -47.64245 -14.051
523 4 -8.6619 -49.364672 -12.4576
525 3 -7.0049 -49.126385 -14.0142
526 4 -5.08045 -47.62419 -13.9498
527 4 -5.10625 -49.402954 -12.29375
528 4 -6.85315 -47.60778 -12.1953
551 4 -8.6911 -46.02166 -12.29475
553 1 -6.8809 -46.05876 -14.15375
555 3 -5.157 -45.80827 -12.32935
690 4 -8.60835 -47.60716 -10.5135
693 4 -6.8929 -49.521656 -10.5249
694 1 -5.19755 -47.67528 -10.539
721 2 -7.0883 -45.88737 -10.6323
529 4 -3.3274 -49.426362 -14.11285