ITEM: TIMESTEP
0
ITEM: NUMBER OF ATOMS
12000
ITEM: BOX BOUNDS pp pp pp
-4.5275002292322952e-02 2.7386275002292155e+01
-4.8829104637739817e-02 2.7389829104638441e+01
-5.0386997514598875e-01 2.1923186997514517e+02
ITEM: ATOMS id type x y z c_peratom fx fy fz 
242 2 5.58644 5.77695 4.61975 -23.3383 -1.40767 -2.17599 3.25496 
1201 3 5.61389 2.90216 2.18104 -29.2936 -0.549985 -0.596583 1.24809 
1202 3 5.56782 3.15121 7.27768 -28.102 1.97455 -2.0967 1.40633 
2041 2 2.83051 5.77855 2.28185 -25.4711 -0.0988753 1.37055 0.755181 
2042 2 2.83885 5.75501 7.57362 -25.0646 -1.60401 2.80378 3.44333 
3002 3 2.81709 3.00674 5.025 -27.4327 3.18769 -2.01652 -3.17522 
9002 1 6.27483 3.74521 0.211579 -7.64293 -0.497669 -0.57555 -0.677661 
10841 1 1.88925 3.92361 3.10226 -7.3904 -0.803204 -2.13888 2.68352 
10361 1 4.459 4.448 3.54006 -7.61037 -2.59443 -1.64333 -1.34375 
1002 2 0.0626468 3.08167 7.80932 -23.0705 0.789273 -1.76291 0.218179 
11562 1 4.38084 2.14449 6.01991 -7.73877 -0.76905 -4.6094 -0.182836 
9202 1 1.738 4.16509 5.95236 -9.05497 -3.42419 2.52786 0.916496 
7401 1 1.58091 1.09906 5.06707 -7.62328 1.3276 1.97961 0.752908 
6001 1 6.30509 3.95471 5.44922 -7.57367 2.98965 0.911333 1.12934 
7078 1 3.64874 4.61091 0.7646 -8.32023 1.71622 -1.98083 -2.89997 
4321 1 1.71207 1.59648 1.27331 -8.35663 -1.1268 0.122674 -0.543779 
4163 1 4.27376 4.37769 7.05043 -6.79681 -0.839371 2.30652 -2.24515 
11642 1 0.940457 6.28009 3.2188 -7.79841 -1.20867 1.41741 0.767356 
9640 1 0.653038 4.25887 0.86978 -7.55498 -0.0990775 0.694908 -2.20831 
2001 2 2.59862 -0.0161333 2.62334 -25.0208 1.47102 2.76151 2.74452 
10001 1 2.25367 2.40745 8.11794 -7.94804 -1.18016 0.0536619 0.301374 
42 2 -0.0161794 5.55256 4.96255 -22.0996 1.2116 0.879259 0.569682 
1001 3 0.113256 3.05374 2.20275 -28.0373 -0.793792 -1.33323 0.272793 
1 3 0.494731 0.24291 -0.342505 -27.907 -3.39603 -2.23629 1.62541 
2002 2 2.59456 0.349793 7.43784 -24.492 -0.142999 -2.48399 0.979521 
202 3 5.79933 0.319267 5.04847 -28.7147 -2.92884 0.984974 -0.649598 
9200 1 4.00089 1.56753 3.40388 -6.75102 -0.442155 0.204885 1.66665 
201 2 5.47755 0.0419649 -0.47842 -24.0505 -0.656535 0.696939 2.24649 
4360 1 4.42025 1.64847 0.969174 -7.33273 -0.937416 0.227242 -3.96057 
3001 2 2.87558 2.68512 -0.390264 -23.1116 0.244829 1.60886 1.15397 
5601 1 6.90634 1.33856 0.987488 -7.58803 1.79122 -0.504126 -1.19843 
5202 1 7.29846 1.56698 6.37369 -8.10434 0.720241 0.148523 2.22111 
5600 1 9.55507 1.36908 1.35253 -8.35694 -0.0336505 6.05521 0.00540237 
4001 1 6.91794 4.40011 2.71076 -7.01472 0.785726 1.50121 0.443646 
11002 1 9.35986 4.28667 3.59317 -8.28833 -0.397183 -1.11097 -0.288195 
442 2 10.9646 5.3737 5.18578 -24.407 -0.622215 2.15224 1.66582 
1401 2 10.7878 2.92164 2.83592 -23.088 1.66641 -3.27996 -4.27259 
1402 3 11.1502 2.798 7.72688 -27.6274 -1.59969 0.878805 1.65728 
2241 3 8.49054 6.02651 1.67671 -28.4534 1.17244 -0.350283 1.76423 
2242 2 8.17515 5.63646 7.98329 -23.7321 0.354899 1.75881 -2.21804 
3202 3 8.31327 3.01173 4.7636 -27.2485 -4.90054 -0.359956 0.860956 
4442 1 12.6775 1.93211 7.9982 -6.84278 3.64649 -4.26148 2.0873 
11363 1 12.1406 3.87522 4.17687 -9.02946 -1.82557 1.44011 -0.180658 
7442 1 9.29147 1.32574 4.35328 -8.55418 0.0416903 -0.157635 -2.09469 
7081 1 11.1851 1.29804 6.01557 -7.14426 -0.396802 4.52632 3.51874 
4202 1 8.93404 4.6311 0.332302 -7.4888 0.227984 -2.52842 -1.15082 
6084 1 9.17658 3.92858 6.15434 -8.25915 2.03686 -0.604304 3.19445 
6242 1 11.4933 4.82061 1.47576 -6.90728 -3.5856 -2.50703 -1.67308 
2441 2 13.2056 4.99734 2.48916 -24.1188 3.34011 1.89014 2.01325 
11442 1 12.3047 4.18482 6.74502 -7.95396 -0.811917 1.40474 -1.41561 
5242 1 9.37149 6.48269 6.24378 -7.26107 3.19179 0.364109 -0.905603 
10481 1 6.85342 6.6482 0.612081 -8.11719 -0.225104 -0.19104 -1.22403 
9643 1 12.5372 6.75035 5.84559 -6.42175 -0.365312 1.29933 0.323868 
8042 1 11.7868 1.00254 3.47766 -7.57405 0.21059 -1.38563 -1.59427 
9361 1 6.84575 1.78959 3.85398 -8.04816 0.0288253 -1.12173 -2.67533 
2401 3 13.5357 0.413096 1.96568 -27.6444 0.771964 1.2565 2.48937 
10443 1 10.3914 6.52347 3.53961 -5.96344 -2.70604 1.75844 -1.20496 
401 2 10.8915 0.658429 -0.306292 -23.9548 1.08162 -1.37143 -0.147793 
2202 3 8.38182 0.287188 7.80439 -25.9423 1.41919 -0.465028 -0.787108 
2201 3 8.51395 0.375 2.61196 -27.3349 -2.60071 -3.12736 -0.431163 
10321 1 12.1013 2.15718 0.894651 -8.05269 0.704081 -1.56224 -0.51734 
5441 1 13.8564 2.70286 2.88677 -7.2763 2.21952 0.560923 1.35018 
7561 1 14.8794 4.98645 4.1261 -8.59743 -0.150903 -1.77267 -0.468715 
3402 2 13.69 3.04754 5.32536 -23.8089 1.20907 0.209521 0.781321 
11441 1 14.2616 4.61787 0.686717 -7.66115 3.02401 0.414591 1.00981 
7361 1 19.6041 2.03978 2.93793 -7.68298 0.12883 -0.113611 0.506152 
2442 2 14.2354 5.53894 7.84662 -25.1933 -1.47394 -0.0506243 -1.53559 
642 2 16.78 5.60974 4.88631 -23.7604 0.416265 1.36951 0.503289 
1601 3 16.2267 3.09268 2.28412 -27.9361 1.30035 0.879276 -1.07241 
1602 2 16.9021 3.0862 8.07258 -24.895 1.61502 -0.311557 -1.78036 
2641 3 19.2114 5.79849 2.33647 -28.5624 -1.4094 -0.67535 -1.95374 
2642 2 19.8815 5.70025 7.75591 -23.54 -2.60506 1.0339 -1.55764 
3602 2 19.108 2.8181 5.00047 -24.8192 1.96146 -0.987498 -1.39341 
10402 1 17.4859 2.32335 0.806411 -6.8105 0.636476 0.940747 -0.697492 
8480 1 16.9183 5.10765 1.48923 -6.78582 -0.273314 -0.738567 -0.482092 
8401 1 14.3941 1.18489 5.71995 -7.49433 1.64543 -2.93039 0.150709 
4601 1 17.9752 4.19953 3.65006 -7.7518 -2.81302 -1.13559 0.39192 
7441 1 16.7272 1.48443 3.43424 -7.62616 -0.209303 0.473584 -0.113964 
11961 1 15.0517 3.4651 7.14105 -7.22385 -3.44942 1.69139 -1.67547 
9802 1 15.0463 1.88331 0.898097 -8.16519 -1.64801 -0.679464 -0.910806 
5603 1 17.1065 5.01849 6.83934 -6.99908 1.70982 -0.139114 0.813542 
8443 1 20.4123 4.18597 6.1607 -8.14164 -0.23031 0.925254 1.97443 
4123 1 17.304 2.3101 6.03365 -7.31013 0.914 0.151581 -0.872194 
4602 1 20.3273 0.96345 7.70298 -6.70735 2.12325 2.98787 0.340188 
11879 1 19.2918 4.59334 0.288102 -6.8431 -2.1837 3.57683 0.855449 
6683 1 19.1722 6.11874 4.57604 -7.75462 0.623704 1.68484 1.17777 
2402 2 14.3506 0.334289 7.9353 -24.7605 0.343901 -0.979838 -2.0088 
601 3 16.2432 0.727131 -0.19386 -28.2812 2.81848 -0.503 -0.454508 
602 3 16.4346 0.18637 4.83901 -28.1366 -1.06202 -0.175818 2.22594 
2601 3 19.7122 0.549942 1.85844 -27.1189 -0.789639 -2.61267 -0.28565 
8001 1 16.5942 0.124758 7.37689 -7.18458 -0.255951 -1.8948 0.466127 
5562 1 18.943 0.0664995 5.67843 -7.09874 -1.51626 -0.440034 -2.15251 
11362 1 26.6998 1.80947 3.78097 -7.27175 -0.149306 3.99429 -2.7986 
9761 1 26.0991 1.54953 6.48552 -6.9676 2.01332 0.261285 0.719513 
10639 1 21.5315 3.99258 0.375526 -6.83588 2.98368 0.622088 -0.0840745 
6362 1 23.7797 1.5985 0.639752 -7.50063 -2.55264 -0.703019 1.75889 
4002 1 26.0554 4.382 3.5136 -9.42242 0.108451 1.26029 0.765316 
11880 1 23.3878 4.71139 6.32108 -8.52033 0.165448 0.805022 0.898256 
11800 1 21.2715 1.9779 5.3776 -6.8704 -0.267321 0.0157636 -0.777913 
7641 1 20.5704 4.41776 2.99948 -7.90608 1.00534 3.33714 2.15319 
5602 1 22.0713 0.998574 2.80896 -7.89382 0.999275 0.00573187 -1.08097 
842 3 21.9224 5.77381 4.59849 -26.5056 -3.49551 -2.91356 1.14576 
1801 3 21.5798 3.16702 2.21902 -27.3623 1.40759 -2.97789 -1.69436 
1802 3 21.7753 2.66435 7.72819 -28.0808 -1.68565 -0.904815 -0.113483 
2841 3 24.7546 5.4435 1.97373 -27.4138 0.120536 0.852912 1.63976 
2842 2 25.1843 5.55525 8.03114 -22.0945 -0.575119 1.94621 2.07427 
3802 2 24.6411 3.50346 5.1097 -23.2888 -0.788258 -4.74923 -1.57475 
6842 1 24.2441 1.14718 4.72112 -7.60979 -0.731243 -0.144831 -3.1416 
8842 1 26.1347 4.26716 6.54964 -10.4482 1.46393 1.95638 -0.446959 
7841 1 23.2368 4.09403 3.31443 -8.56971 0.533414 -1.75689 0.0590327 
10882 1 25.269 4.28528 0.547429 -7.61649 -0.420115 -0.220187 0.0570225 
8640 1 23.358 6.49047 3.93591 -8.03702 2.44971 3.29968 0.0996433 
2801 2 24.4839 0.243268 2.57628 -24.5063 -0.049153 1.10139 -1.6312 
9842 1 23.3258 1.84984 7.06318 -6.95883 0.00492587 1.12523 -0.982477 
802 2 22.2995 0.0865331 5.08558 -25.7057 -1.25632 -1.82305 1.12798 
7680 1 23.2703 6.32642 1.15054 -7.97004 -0.100633 0.402267 -1.44126 
2 2 27.0334 0.0650911 4.68322 -25.0457 2.26471 -2.30214 5.41838 
10801 1 26.3431 1.68976 1.13619 -6.51878 1.3544 0.17359 0.351489 
10000 1 20.7704 1.55956 0.208173 -8.2648 -0.505259 -0.67738 2.65707 
2802 3 24.6966 0.463112 7.61385 -29.8935 0.331519 0.122622 2.10959 
11801 1 4.23364 7.46864 1.38331 -7.00692 -1.14271 -2.08605 0.272985 
9162 1 1.22577 7.17588 6.47089 -8.4961 0.70887 -1.79801 -0.669977 
10401 1 6.4018 7.45585 3.91934 -8.27715 0.724236 2.65816 -2.91374 
6643 1 3.75069 6.9993 4.19109 -7.58346 -1.67349 -0.863651 -1.09597 
10081 1 6.68601 13.4598 4.55794 -8.01737 0.983908 0.85551 -2.04262 
11842 1 4.28742 7.19455 6.65558 -7.53956 0.380275 -0.066168 -0.33086 
8841 1 5.62698 12.5555 0.714925 -7.47633 0.318064 1.11527 -1.96791 
9281 1 4.3612 9.93414 0.346784 -7.70338 -0.0107641 0.307846 2.03148 
282 2 5.89877 11.542 4.95176 -25.655 -3.1724 -2.50494 0.7266 
1241 2 5.75214 8.743 1.99564 -24.4118 0.824021 0.475329 1.80185 
1242 2 6.16204 8.5892 7.44943 -25.8558 -3.71389 -0.415621 0.75695 
2081 2 3.06904 11.3272 2.31201 -24.3893 0.519137 -2.26886 1.67968 
2082 2 2.90834 11.0563 8.04082 -24.9687 0.453561 1.23193 -3.48511 
3042 3 3.38259 8.53019 5.46214 -28.1808 -0.503387 2.03606 -1.36172 
5081 1 4.15266 9.94806 3.6725 -7.04925 -0.0557891 -0.694014 -1.76015 
7201 1 1.93922 9.99457 5.93633 -7.81297 -0.917562 -1.45429 1.92824 
5879 1 1.51713 9.83269 2.14601 -6.45599 0.0173594 -0.828797 0.848674 
8041 1 1.59282 7.23347 0.832115 -7.48321 -1.15734 -0.804754 -0.173414 
11324 1 4.59121 9.99301 6.17185 -6.29005 0.292824 -0.283626 1.39783 
5483 1 3.46571 12.6212 6.11076 -6.48676 0.690051 0.937236 0.358118 
6161 1 2.04331 12.0751 0.676435 -6.79253 0.41915 0.117192 -1.20167 
1041 3 -0.0226336 8.21986 2.34144 -28.8339 1.58564 0.013813 -2.26214 
82 2 0.1366 10.9326 5.15705 -24.5307 -0.485059 -0.0832748 -0.267231 
9843 1 0.069381 8.70663 4.21787 -6.64448 2.77232 -0.332164 2.19896 
9043 1 1.32588 12.416 3.96423 -7.71048 0.829619 -2.22832 -0.733634 
5118 1 6.72919 10.7173 3.04152 -7.89158 1.03522 -0.83539 -1.39029 
3081 2 3.32262 13.6076 -0.351656 -24.9751 -1.88302 0.548374 -2.03491 
1042 3 0.256859 8.51733 7.64204 -27.1699 0.806693 -1.47708 1.21638 
1081 2 0.474389 13.6387 2.45961 -25.6759 -3.25186 0.999239 -1.15406 
10281 1 4.4622 12.7626 3.0113 -7.18019 -0.391809 1.44176 1.95094 
9122 1 6.00808 12.389 7.10613 -6.77471 0.806026 -1.39556 -2.4175 
5843 1 0.68474 12.4619 6.84471 -6.74844 -1.26604 -3.35095 -1.8068 
6119 1 10.4569 9.92628 0.654747 -8.85805 -0.247698 0.525928 1.88476 
1481 2 11.0058 13.3936 2.82449 -24.3443 1.5512 2.91733 -2.27169 
5241 1 7.08652 6.84675 6.36192 -7.59809 -3.65322 -2.33199 -1.31867 
6041 1 7.02668 9.76379 5.77267 -7.22574 2.40222 0.400622 0.186673 
4523 1 10.2581 10.4164 7.19361 -6.57469 -1.41695 1.01064 -0.165734 
10441 1 9.91856 8.96529 4.8638 -6.27175 -0.0719255 0.26568 -0.0865156 
7241 1 8.4347 8.06818 2.59102 -7.13193 0.242398 0.771593 0.136403 
9681 1 12.7273 7.05415 3.16838 -7.44376 2.88872 2.5297 -1.10141 
9042 1 12.1631 12.5739 0.76476 -7.5374 0.0379495 -2.75993 1.59669 
4842 1 9.04132 12.6153 6.48128 -7.71072 -0.544317 0.287508 0.397595 
11281 1 12.3569 6.91474 -0.0293916 -7.23869 2.24679 2.51462 -0.43736 
8083 1 12.3767 12.6141 6.38515 -6.94252 1.0498 -2.18664 -0.500174 
5481 1 13.2444 9.59039 0.856833 -7.94738 -1.01914 0.151247 -1.45151 
5842 1 8.58974 11.8763 0.0383476 -8.01204 0.00351336 -0.659468 -1.2678 
10480 1 12.2909 10.2906 3.4132 -8.56865 -1.52423 0.882247 -1.39797 
10042 1 9.83618 11.6678 3.83852 -8.008 -1.55855 -0.844513 -4.53216 
482 3 10.8396 11.3058 5.23492 -28.4364 2.04013 -1.87582 5.03835 
1441 2 11.4612 8.64526 2.12637 -23.6877 -0.294951 -3.58807 -0.528863 
1442 3 10.8447 8.43373 7.60854 -28.1871 -0.927726 -0.111222 -1.58295 
2281 2 8.6279 10.7238 1.90885 -23.5512 -0.180615 0.0643986 0.406263 
2282 3 7.96002 11.483 7.93241 -28.0865 1.12056 -1.74306 -0.7898 
3242 3 8.19374 7.6546 4.79272 -28.2476 4.09438 3.26901 0.756945 
6320 1 7.34868 9.26915 0.503131 -8.47637 -0.314403 1.77805 0.388628 
6722 1 12.4403 9.99711 6.05527 -7.33046 0.601558 -1.47309 1.04749 
9402 1 8.25928 8.38825 7.977 -7.29958 1.44139 0.855181 2.35155 
9442 1 12.6722 7.03823 8.58026 -7.58249 -2.10853 -0.818712 1.50139 
2482 3 13.2983 10.996 7.99291 -28.6551 0.655881 0.538634 -0.67235 
3442 2 13.5399 8.80523 4.45416 -24.42 -0.217106 -1.16128 4.90356 
7320 1 13.0719 13.1383 3.42171 -6.99321 -0.154061 -3.1182 1.37045 
7281 1 8.91838 13.3409 2.10777 -7.05648 0.355792 -0.214305 1.19119 
8880 1 9.83316 7.00399 0.341819 -7.30016 -2.44205 2.9873 -0.54426 
11923 1 7.63661 13.2234 8.65115 -6.76792 0.719776 1.37594 1.69277 
4682 1 18.209 7.81922 1.35826 -7.82487 0.366709 -2.27993 1.14024 
1682 3 16.7898 13.3593 7.84144 -28.9114 -0.688445 -2.45256 1.61346 
8601 1 15.2852 7.16522 0.805472 -6.80254 0.246858 2.4579 -0.474935 
10680 1 17.1012 7.51337 3.99615 -8.10186 -0.494215 -0.125053 -1.96896 
10881 1 15.8706 11.5637 3.20306 -6.62511 -3.08075 1.32865 -3.81524 
2481 3 13.8367 11.5219 1.85194 -28.0305 -0.451369 -0.0615553 3.14183 
10202 1 17.7483 10.245 1.33017 -7.88542 -3.03367 -2.80359 -2.1366 
9680 1 18.1073 9.94917 4.02817 -7.8145 0.375379 0.306421 -1.34315 
7644 1 15.1027 9.9833 5.6436 -6.69239 0.270337 -0.0252893 -0.112396 
682 3 16.5162 11.4304 4.83917 -28.7296 1.69346 -2.98123 2.75866 
1641 3 16.557 8.50354 2.30814 -27.4885 -0.478864 0.431915 -0.871769 
1642 3 16.2947 8.43366 7.77727 -30.2944 0.282475 1.30605 0.0463393 
2681 3 18.7962 11.3049 2.2671 -27.7349 2.73393 2.16239 2.83289 
2682 2 19.8705 11.278 7.65677 -22.7906 -0.998057 -1.27178 2.94714 
3642 2 19.2424 8.29654 4.84423 -23.8483 -1.42127 -0.019931 0.642372 
9642 1 14.7538 9.4235 2.89313 -7.55489 2.10826 -1.69643 -1.73217 
7681 1 15.4466 7.11916 6.55261 -6.55523 -1.4905 -1.78167 -1.66207 
10482 1 15.633 12.6757 6.17283 -8.2784 -1.36196 0.817771 -0.215995 
9840 1 17.9044 12.624 1.01172 -7.45095 -2.09695 0.0840687 1.45954 
9682 1 17.7783 12.7565 3.85556 -8.00357 2.32613 2.80003 0.15612 
11601 1 17.8114 8.66948 6.53586 -5.71628 1.4297 0.178673 -2.21265 
7481 1 17.9431 11.6403 6.79154 -7.73756 1.79225 2.29264 -1.71482 
6480 1 15.1454 11.8953 0.45234 -8.46075 -1.03756 -0.939681 -0.155666 
6682 1 20.0791 11.717 3.85275 -7.54471 -0.690382 0.627973 0.391116 
8520 1 20.4378 9.50523 6.31148 -9.28114 1.24997 1.20188 -0.764189 
10642 1 17.7779 7.2641 8.59987 -6.85973 2.28834 -2.57334 3.69507 
3641 2 19.4549 8.1426 -0.409102 -24.8056 -2.62896 2.68175 -1.73135 
681 3 16.4715 10.9042 -0.439666 -27.8251 3.33225 0.78747 -1.03499 
4684 1 14.3212 9.24252 8.48066 -7.59258 0.944048 2.38074 -2.26677 
3681 3 19.3188 13.3983 -0.322556 -27.8417 1.44621 1.91154 0.940025 
3882 3 24.5713 13.3955 4.38967 -28.842 1.53823 1.92827 -0.163074 
881 2 22.1662 11.351 -0.027963 -24.2575 0.664444 -1.72773 0.605239 
7803 1 21.3073 6.87709 6.32169 -8.85148 -0.243566 -0.162565 -1.28019 
7880 1 25.8978 7.13837 6.08774 -8.62151 2.72028 -6.99491 4.06507 
7079 1 26.3173 6.87619 0.27463 -8.4083 2.35459 -2.62888 2.22385 
7082 1 26.3785 9.66119 6.78291 -8.44939 0.326807 2.01474 -0.551689 
10720 1 20.7439 7.42165 2.92158 -7.78771 -1.65981 -0.983782 5.765 
5520 1 20.7246 12.4164 1.1729 -7.27064 -1.11192 -0.548762 0.277914 
6202 1 21.1593 9.64014 0.787632 -7.28868 -1.02611 0.394184 1.41818 
11802 1 24.8928 12.2251 6.33522 -6.7476 0.885712 -1.68599 0.572147 
6801 1 25.5158 9.6792 3.9173 -7.3221 -2.72948 4.05173 -0.865093 
4802 1 24.1873 11.2213 0.384088 -6.89099 2.87569 0.159836 -0.477516 
5401 1 21.9744 9.75903 3.63232 -7.04876 0.540299 -1.47687 0.727221 
10802 1 24.026 8.91516 1.53109 -7.6353 -1.05128 -1.43799 -0.484289 
9921 1 20.7734 7.06212 0.666545 -7.37725 1.89604 -4.41317 -1.6191 
9882 1 23.9411 8.82194 6.30649 -8.79288 -2.53145 1.06931 0.840215 
10879 1 23.5311 12.9247 1.91602 -6.42413 -0.572831 1.34185 -1.0062 
9962 1 22.2205 10.8888 7.54728 -8.77025 0.183258 -0.845516 -0.447167 
882 3 21.4253 11.0434 5.05539 -26.9518 3.0048 0.708481 -1.87966 
1841 3 22.1502 8.15459 1.89471 -28.5396 0.889816 0.82127 0.0763844 
1842 2 22.2505 8.38926 7.57522 -23.0834 -0.800573 0.865256 2.39034 
2881 3 25.0213 10.5479 2.10465 -28.4312 -0.046459 1.8255 0.139725 
2882 3 24.5724 10.5416 7.60483 -26.7536 0.362989 1.20634 0.317252 
3842 3 25.2222 8.05699 4.85805 -26.813 -2.28823 3.17729 -4.15537 
11682 1 25.7092 7.22347 2.9384 -7.91822 0.221778 -2.26479 0.237028 
11520 1 25.9109 12.2038 2.98895 -7.17671 0.702446 -0.641622 2.88685 
7920 1 23.085 12.2941 4.53214 -6.85199 -1.6798 -0.846799 0.536651 
4921 1 26.5539 9.75842 0.846618 -7.61464 -0.067058 -1.09515 1.46324 
4722 1 20.7014 12.8321 6.15737 -9.50128 -1.12267 -1.43236 1.60874 
3881 2 24.8173 13.5931 -0.169686 -25.464 -0.254067 0.604794 2.07132 
6802 1 26.7593 12.7547 0.648818 -7.00547 -0.634591 -0.791474 -1.5362 
204 2 5.68111 0.300281 16.0112 -23.4145 -0.465189 0.79949 2.0823 
7482 1 5.8582 6.79031 9.00634 -6.5173 2.81692 1.02303 -0.494111 
9243 1 6.76986 1.06041 12.0537 -7.50611 1.75547 -0.62282 0.471926 
7962 1 4.74791 4.58865 12.2098 -7.62731 0.509547 0.524439 1.53013 
10363 1 2.0197 1.22013 14.8471 -7.09713 0.237814 0.47057 -1.17502 
4361 1 3.68893 5.09268 9.54395 -6.73679 -0.335225 -2.02565 1.03414 
7043 1 1.8085 1.62909 11.8542 -6.71038 -3.33183 0.684722 -0.11702 
243 3 5.77741 5.41121 10.5207 -28.4927 -2.64138 0.608332 -0.339842 
244 2 5.48976 5.5057 16.4409 -23.9149 0.101611 -0.351055 -1.8027 
1203 3 5.81442 2.98646 13.5339 -27.6499 0.418706 -0.208182 -3.13627 
2043 3 3.25177 5.04519 13.6709 -27.0639 0.580603 1.53739 -0.441349 
3003 3 2.69919 3.12807 10.4824 -28.5131 0.916571 -0.405369 0.349094 
3004 3 2.94292 2.83476 16.0497 -27.9514 -2.73341 -1.07271 1.15611 
1003 3 0.133791 2.42398 13.7141 -26.9795 2.29669 -0.528552 -3.3863 
9003 1 1.66722 3.83816 14.2502 -8.13625 0.486113 1.24413 0.687532 
5042 1 4.12479 2.0247 11.7861 -6.87097 2.43245 0.985931 -0.727732 
4042 1 4.45955 3.87047 15.0094 -9.3859 0.754094 -1.18703 -0.116304 
10440 1 2.17871 4.75814 11.8696 -7.65649 1.13812 1.86393 0.572238 
6044 1 0.881896 5.03245 8.80814 -8.53253 0.0478746 -1.70318 -3.0438 
8203 1 4.82313 1.3125 14.2361 -8.28282 0.575433 0.829387 2.307 
43 2 0.480348 5.55421 10.8133 -25.1566 -3.8658 2.85502 1.70719 
44 3 0.287924 5.80493 16.1378 -27.0902 0.269637 -1.09195 1.86026 
6124 1 6.78477 1.58772 17.473 -8.16488 -0.538023 0.854142 -0.0102567 
7802 1 0.0237645 1.36258 8.99033 -6.85471 1.43489 -0.413779 1.26803 
203 2 5.62368 0.461703 10.382 -24.876 -3.42113 -0.392785 0.859609 
10006 1 1.50464 1.15423 17.5141 -7.33298 -2.39926 -1.13572 0.331632 
7002 1 0.254249 3.44721 11.1123 -6.5655 -1.82442 -1.05597 -0.320511 
2003 2 3.16705 0.405061 12.9975 -26.3119 0.572727 -0.465136 -0.106874 
5883 1 3.17859 5.90325 15.7456 -6.82787 -1.15403 -1.48756 2.19923 
4 2 0.0146102 0.0316407 16.2942 -24.0145 2.31199 1.65546 -2.21576 
5802 1 3.82576 1.38152 17.2184 -7.72587 4.14221 -0.547787 -1.96885 
4683 1 4.79197 2.2061 8.99123 -7.10413 0.994076 -1.39119 0.842893 
6843 1 1.475 3.95972 17.2314 -8.0562 0.688282 1.41546 0.830942 
3 3 0.163761 0.0463076 10.5384 -28.7991 1.04748 -0.250531 1.13299 
9204 1 7.35541 4.47179 17.3942 -7.32527 -1.17597 -0.0124238 -0.765088 
5563 1 7.37314 0.876913 9.2083 -8.02564 -1.15148 1.89188 0.559366 
403 3 11.3093 0.276393 10.7044 -28.0261 -4.91061 1.02583 1.24939 
11604 1 7.537 1.77828 14.5461 -9.00411 -1.64122 0.702403 0.750683 
9924 1 11.9989 0.951688 17.5727 -7.42216 1.12182 -1.06401 1.26658 
404 3 10.8334 0.289947 15.8438 -28.0185 3.07733 -1.64028 0.726748 
6163 1 7.76755 6.22861 10.9639 -8.44115 0.112007 0.346613 0.33481 
7005 1 7.01575 4.8571 14.7022 -7.76434 -0.408027 -2.55039 -0.510679 
8002 1 6.83606 4.26223 8.79932 -8.90238 0.471405 -1.98088 0.896765 
7403 1 7.13904 3.70673 12.078 -7.76789 1.39421 0.695879 -0.987777 
10004 1 12.4029 4.44916 14.7032 -8.09426 -2.5978 1.63426 -2.09445 
11003 1 9.84518 1.44023 9.20442 -7.98801 0.314162 -0.384697 -1.48675 
8482 1 12.6919 4.62907 12.0051 -7.58238 0.853573 -2.31558 0.455064 
6164 1 10.378 1.93683 15.3843 -7.21002 -1.52261 3.50662 -2.94904 
11804 1 9.80063 4.78442 14.774 -8.20068 -0.715336 -0.618476 -2.73244 
10044 1 12.5984 1.72845 14.0588 -8.77028 0.31594 -1.27431 0.0229222 
5363 1 9.99245 3.99787 9.17683 -8.31248 -1.74411 0.986242 -1.08472 
11244 1 11.8158 2.26319 10.9819 -7.32711 2.25988 -1.14116 0.700593 
443 2 11.2243 5.68732 10.1461 -24.7029 2.33544 -0.923934 2.94421 
444 3 11.1349 5.66017 15.9476 -28.6615 2.09379 0.894563 0.920094 
1403 2 11.3268 3.16105 13.1299 -24.2291 -1.18714 -0.061141 -1.27934 
2243 2 8.79287 5.87766 13.1283 -24.1333 -2.26934 2.17812 0.112388 
3203 2 8.6944 2.85818 10.6837 -24.1007 0.726083 -1.52129 0.410401 
3204 2 8.56241 3.26972 15.6055 -23.8521 -0.293456 1.31702 4.56368 
10603 1 9.95006 4.37761 11.9803 -8.49412 -1.04698 1.54798 -1.06962 
10564 1 12.7158 6.20605 17.438 -7.7661 -2.25805 2.81678 -1.1204 
3404 2 13.6071 3.06828 15.4694 -23.9491 3.91989 -3.51402 4.63801 
9403 1 12.7932 4.17776 9.35151 -7.41189 -0.364614 3.23386 -0.957525 
8162 1 10.0826 3.84174 17.1128 -6.53437 1.16819 0.64606 2.17867 
7282 1 9.86504 6.64334 8.83787 -8.28237 0.524412 2.05984 0.884759 
11444 1 9.74807 1.71061 12.3468 -7.46745 -1.26589 -0.415392 0.729722 
2203 3 8.06444 0.0517248 13.6344 -28.5193 2.6799 -0.65318 -3.60314 
4284 1 9.86203 6.51297 17.6371 -9.07849 -0.353961 1.69569 -0.93231 
11204 1 13.0451 3.65132 17.7247 -6.51306 -0.565888 -1.49436 0.0633933 
6766 1 19.344 0.290007 15.558 -6.96283 -0.860154 -1.66911 -2.18236 
603 3 16.9235 0.0765952 10.4916 -28.495 -0.926508 0.430265 0.772601 
4443 1 15.2875 1.63217 14.6957 -7.99406 1.8517 1.0725 -0.78455 
7324 1 17.6562 0.842103 17.2686 -7.84452 -1.71483 0.926652 0.310566 
2403 3 13.9257 0.336048 13.4044 -28.3347 0.289247 0.0405667 -3.15976 
9165 1 17.4013 1.29317 11.9405 -8.08639 2.10643 0.489385 2.11368 
7402 1 15.9097 1.85459 9.31396 -7.15148 -4.16775 -3.84471 2.77757 
4843 1 14.6761 2.14723 12.0198 -6.93305 -1.20212 -1.31604 -1.01825 
9803 1 18.5164 4.23464 8.87399 -8.27973 0.604051 1.74148 1.96519 
6603 1 15.5031 4.42651 9.70021 -8.1649 -1.99454 -2.69093 -0.291095 
10964 1 19.2385 2.0651 13.8151 -8.1825 -2.91955 3.96931 -0.09255 
3403 3 13.8899 3.4367 10.6918 -27.7728 0.681949 -2.16083 1.07197 
2443 3 14.0573 5.89397 13.1631 -28.5068 -2.34806 0.893487 1.0945 
4243 1 18.1457 6.51602 14.577 -8.06153 1.28648 0.547888 -1.82698 
11242 1 15.5318 6.62231 11.945 -7.28374 0.820694 -1.78641 0.126713 
4966 1 14.778 1.09842 17.1802 -7.63277 1.62245 0.0676531 1.79271 
8604 1 17.436 3.56214 15.3759 -8.65599 1.27766 -0.659481 0.380376 
11803 1 18.4835 1.64856 9.45335 -7.4834 -0.404456 -1.46648 -0.590345 
643 2 16.898 5.77495 10.2201 -24.103 3.73145 3.99962 2.07713 
644 3 16.5381 5.46572 15.5256 -27.1527 3.95623 3.48177 1.353 
1603 2 17.0004 3.02918 13.2891 -23.3883 -2.88734 -2.43522 0.24202 
2643 2 20.161 6.10274 13.2115 -24.6187 -0.040578 0.375927 1.60345 
3603 2 19.4727 3.00922 10.6861 -23.7454 0.620371 2.45268 0.151252 
3604 2 19.6382 2.69131 15.9226 -25.3513 -0.00964052 0.376445 2.78867 
9963 1 17.9154 4.20098 11.7992 -8.55888 0.0377249 0.798193 -1.12657 
8242 1 15.187 4.24568 13.3607 -7.43719 1.0763 0.881104 -1.16291 
4644 1 18.5559 5.89956 17.0817 -7.34791 -1.0287 1.67798 -1.56259 
2603 3 19.2612 0.177139 13.4348 -26.2993 -0.465382 -3.66341 -0.445274 
6206 1 14.9819 4.75098 15.6648 -6.81239 -2.96751 -1.08343 1.78777 
8562 1 22.5721 0.385792 9.31892 -5.41766 3.11965 -0.950038 -0.586163 
9522 1 24.9299 2.21297 9.18526 -6.41627 0.0321696 2.20884 1.01115 
5922 1 23.6695 2.01921 17.3533 -7.48146 -2.4088 -1.1287 1.04858 
7643 1 23.2275 6.50013 8.82994 -8.46172 3.54243 1.69779 -6.55609 
8004 1 25.9973 1.27934 12.1317 -8.11511 4.45405 -2.28319 0.736531 
6764 1 26.0627 1.27382 17.5286 -7.98002 1.99213 -0.00273401 1.1754 
7604 1 21.5537 1.66429 15.3843 -7.49975 1.57273 3.65716 -4.25941 
4764 1 21.2653 2.42354 9.70356 -6.73724 -0.188398 -1.46796 1.60503 
10643 1 20.6395 1.10945 12.2615 -8.48877 -1.42462 -3.55013 -5.54737 
6562 1 20.7408 4.4373 12.0098 -6.88571 -1.97751 -5.21629 -1.41552 
7645 1 27.283 2.52231 15.5782 -7.76667 -3.52648 -0.00572957 -0.0872384 
10961 1 26.3823 6.32085 12.4582 -5.59258 0.979895 -1.4052 1.81174 
10844 1 22.5024 6.05459 13.3687 -6.53171 1.24786 2.33368 1.60236 
10762 1 23.4687 1.50561 12.4646 -6.82929 -1.81914 0.534025 1.71166 
8801 1 26.1015 6.03755 15.0762 -7.57884 -0.469839 -0.0867368 0.388553 
8879 1 25.6861 5.19962 10.3111 -6.32641 -1.70264 -4.26409 -2.55771 
4603 1 24.8875 0.591808 15.2342 -7.6622 1.13989 2.17942 1.92402 
4203 1 21.0884 4.68816 9.16001 -7.63925 1.44347 0.768465 -1.88882 
843 3 22.4618 5.82789 10.1335 -27.4902 -3.47989 -1.91034 9.18249 
844 3 22.1235 5.64125 16.0163 -29.2236 -0.310023 -1.55986 -0.694326 
1803 2 21.6175 2.64496 13.1107 -24.0534 3.51905 4.19813 2.59581 
2843 3 24.3955 5.44428 13.2453 -29.1955 1.80821 1.60311 -1.00452 
3803 2 24.8224 2.82611 11.3627 -24.573 1.52753 -0.533896 -3.25966 
3804 2 24.9198 2.84456 15.8301 -24.4492 0.770012 0.0201086 1.18385 
4803 1 25.2826 3.51164 13.4692 -8.20841 2.86082 -0.717463 0.826684 
11843 1 23.3957 4.2931 11.6558 -7.64304 -0.895837 0.317152 -1.23567 
4884 1 23.6653 4.43454 15.1394 -7.34074 0.580015 0.688015 0.233718 
10763 1 21.1115 4.19149 16.7637 -6.03117 -2.35601 -1.25014 5.10774 
11044 1 20.9601 4.23891 14.5593 -6.59899 -2.81096 0.986324 -3.10001 
8484 1 20.9603 6.75089 11.4201 -6.40017 1.08499 3.08051 -3.60009 
11603 1 20.6289 1.1491 17.7468 -8.00857 1.29143 0.309114 2.05025 
5083 1 6.14737 7.56514 17.0429 -8.64137 0.585668 -0.303579 0.138608 
11042 1 2.15727 12.7131 14.9475 -7.39259 0.513118 -1.28516 -2.91121 
11884 1 6.80624 12.9664 16.3459 -7.36876 -0.503562 0.286921 -0.83973 
11282 1 4.42415 12.7629 9.20794 -8.44211 -2.63145 -2.16848 2.23301 
8163 1 2.37575 7.58213 8.96365 -6.66915 -1.54909 -0.605335 0.586862 
7203 1 4.49279 7.01729 14.2733 -7.40886 0.997334 -0.880798 -1.47858 
7926 1 1.10835 7.51182 15.4405 -8.29563 -0.764813 0.994681 -2.23 
9164 1 1.86832 10.2713 15.1873 -8.7189 -0.591021 -2.21491 0.459401 
6243 1 4.2968 12.7704 13.3362 -7.8519 0.273297 -2.02985 -2.47943 
10320 1 1.00355 9.96201 8.85153 -8.12025 0.793025 0.586771 -0.47104 
10203 1 2.55839 8.70846 13.2021 -8.59634 -1.89957 0.701294 0.439926 
7881 1 4.63927 7.34896 11.4208 -6.94725 0.0697713 -2.86008 0.103241 
8922 1 4.19049 9.49659 8.6886 -6.84676 -0.411137 0.374406 2.21963 
9242 1 2.63256 10.5941 10.9276 -7.86291 -0.41077 0.684585 0.261028 
7042 1 4.66947 9.58128 12.0151 -7.33209 0.659414 5.50033 -1.232 
283 2 5.59295 11.304 10.623 -23.4933 -0.431312 -0.385959 -0.812792 
284 3 6.44355 10.8573 16.1342 -27.0615 0.0447223 0.995718 -1.25808 
1243 3 5.49234 8.26506 13.1347 -28.5208 3.43546 0.23965 0.544254 
2083 2 2.79494 11.1238 13.4939 -22.7402 2.14873 0.201159 -2.45597 
3043 3 3.08725 8.6208 10.7437 -28.3469 0.544593 -1.51161 -1.53266 
3044 3 3.22924 8.53881 15.3866 -27.7533 -0.228311 -2.1932 0.53294 
8284 1 4.97848 9.49832 14.7341 -7.76493 -0.966256 1.51293 0.672517 
5723 1 1.35508 12.5267 12.0098 -8.88788 1.30045 -1.30242 1.11359 
83 2 0.249931 11.374 10.454 -24.1242 -0.51342 -0.842845 -0.841143 
84 3 0.151321 11.1137 16.2275 -28.2157 -2.14308 1.53833 -3.93737 
7124 1 0.544133 7.79639 11.4814 -7.29738 3.61685 0.290326 -1.84299 
1043 2 0.233908 8.48556 13.488 -23.6888 -2.71518 -0.485437 0.611057 
10484 1 4.79331 10.8196 17.0278 -7.89968 -0.161088 0.910806 0.738769 
7242 1 2.47078 12.5703 17.5064 -7.67167 -2.80762 4.71937 -2.138 
5084 1 6.60754 10.1871 8.97516 -7.97737 1.28699 0.865968 1.11907 
8160 1 1.814 12.7003 9.15267 -8.73437 1.18402 -1.35259 2.05021 
11083 1 3.41951 8.60637 17.3211 -7.58952 0.0120093 -0.538114 0.29697 
7443 1 9.63071 12.5168 12.0602 -7.90856 2.79099 1.73056 -2.14476 
4402 1 7.59193 7.41722 14.6323 -6.80045 0.689751 -0.0400821 -0.103691 
4083 1 10.3936 7.18768 14.2648 -6.95797 -4.35014 -2.7609 0.75637 
6444 1 12.7428 7.00486 14.79 -6.92586 1.43241 -1.11603 -0.550633 
6484 1 12.7206 13.3377 14.4478 -8.56679 0.364975 -0.806514 1.9298 
5203 1 7.30573 11.3506 11.8357 -6.51609 -1.93559 2.25037 -1.327 
4244 1 8.14308 10.2675 17.1564 -8.6306 -0.298882 -2.12865 -1.06139 
10641 1 12.3327 12.6267 8.84472 -7.73173 -2.12477 0.474853 1.50181 
4242 1 7.57196 8.82503 12.2537 -6.24087 -0.633793 -3.02524 -1.89596 
4283 1 10.3998 7.37724 11.555 -7.45135 -4.83345 -0.364741 -1.25308 
11202 1 10.2572 10.1 13.4319 -7.78351 0.785283 1.88301 2.29458 
9484 1 13.3062 11.3233 16.5562 -9.27935 -1.13675 1.05703 -2.51729 
9045 1 10.1225 12.6398 14.9864 -8.87149 -0.340387 -1.53471 0.243658 
11403 1 9.20245 10.5329 9.94359 -7.34519 -1.2705 -0.059277 -0.670237 
7204 1 13.1896 9.37649 14.1006 -8.0839 -0.38803 3.61725 1.57001 
6123 1 12.6959 6.92531 11.6534 -7.12902 2.73334 1.89775 -0.133273 
5323 1 12.1056 9.66407 11.7462 -7.24579 1.33833 -0.707181 1.17868 
6441 1 12.0828 12.4079 12.3235 -9.42823 3.52939 -1.45361 -2.58975 
483 2 11.0454 11.3191 10.7024 -24.3085 -0.293527 -1.90166 -2.15326 
484 2 11.4998 10.9902 15.39 -21.9442 -2.02212 -2.60082 0.588279 
1443 3 11.2974 8.27515 13.1713 -28.8613 2.99623 1.46621 -1.26995 
2283 3 8.59634 11.5942 13.3487 -28.4451 -0.612241 -1.43928 -0.359269 
3243 2 8.44527 8.38276 10.3247 -24.2348 0.633969 0.798755 0.061439 
3244 2 8.68806 8.21133 16.3531 -23.1324 -1.13287 -1.01958 -1.33881 
8121 1 11.4415 9.47059 9.19949 -7.19028 2.34153 -0.56711 0.0445018 
11243 1 10.7313 8.77781 16.1398 -7.63057 0.68228 2.74973 1.41699 
8124 1 7.54887 10.5122 14.4215 -6.9824 -0.762638 0.449224 3.91806 
6323 1 7.90048 13.6362 13.4034 -7.5371 -2.45745 1.54312 1.0074 
3443 2 13.5811 8.40706 10.251 -25.0336 -3.45394 -1.52092 -0.0997419 
7243 1 13.3905 11.1138 10.3959 -7.38977 1.60935 0.428002 1.89465 
8483 1 15.3465 12.6599 11.6963 -8.97158 -3.73915 1.41155 -0.262548 
8763 1 20.4818 10.9399 14.7261 -7.16975 -1.94583 -0.102586 -3.03763 
6642 1 17.5227 10.0026 9.02325 -6.28253 -0.104196 -1.74269 1.4444 
11684 1 19.9813 12.6439 17.317 -7.20547 -0.340698 -0.620633 0.628936 
5404 1 15.6681 10.5256 13.3498 -8.21883 1.34769 -3.1928 -0.759964 