LAMMPS (11 May 2018)
# Sample LAMMPS input script for thermal conductivity of UO2
units       metal
atom_style full
boundary p p p

# Reading the input structure file
atom_modify map array
read_data U50.5x5x40.lmpstr
  orthogonal box = (0 0 0) to (27.341 27.341 218.728)
  1 by 2 by 12 MPI processor grid
  reading atoms ...
  12000 atoms
  0 = max # of 1-2 neighbors
  0 = max # of 1-3 neighbors
  0 = max # of 1-4 neighbors
  1 = max # of special neighbors

# Setting the variables to elements as they are assigned in the input structure file

variable O equal 1
variable U equal 2
variable Zr equal 3

# setting charges as these were previously unset

set type $O charge -1.1104
set type 1 charge -1.1104
  8000 settings made for charge
set type ${U} charge 2.2208
set type 2 charge 2.2208
  2000 settings made for charge
set type ${Zr} charge 2.2208
set type 3 charge 2.2208
  2000 settings made for charge

pair_style      hybrid/overlay  coul/wolf 0.275 10.96 eam/alloy
pair_coeff      * * coul/wolf
pair_coeff   *    *  eam/alloy  UZrO.eam.alloy O U Zr

compute   peratom all pe/atom pair bond
compute   pe all reduce sum c_peratom
compute   ke all ke/atom


variable    T equal 3000
variable THERMO_DAMP equal 0.100
variable BARO_DAMP equal 0.500
variable  etol equal 1.0e-8
variable  ftol equal 1.0e-10
variable  equilsteps equal 10000
variable  half_equilsteps equal v_equilsteps*0.5
variable  TCsteps equal 2500000
variable  zunits equal 20
variable  nslabs equal 20
variable  thickness equal 1.0/v_nslabs
variable  swapsteps equal 50
variable  dimension string z
variable  temp atom c_ke/0.0001292355
variable  dt equal 0.002
variable  currenttime equal ${dt}*step
variable  currenttime equal 0.002*step
variable  initialsteps equal 5000
variable  rampsteps equal 10000


timestep     ${dt}
timestep     0.002
thermo ${swapsteps}
thermo 50

velocity all create 300 164336

fix thermostat_fix1 all npt temp 300 300 ${THERMO_DAMP} aniso 0.0 0.0 ${BARO_DAMP}
fix thermostat_fix1 all npt temp 300 300 0.1 aniso 0.0 0.0 ${BARO_DAMP}
fix thermostat_fix1 all npt temp 300 300 0.1 aniso 0.0 0.0 0.5

run ${initialsteps}
run 5000
Neighbor list info ...
  update every 1 steps, delay 10 steps, check yes
  max neighbors/atom: 2000, page size: 100000
  master list distance cutoff = 12.96
  ghost atom cutoff = 12.96
  binsize = 6.48, bins = 5 5 34
  2 neighbor lists, perpetual/occasional/extra = 2 0 0
  (1) pair coul/wolf, perpetual
      attributes: half, newton on
      pair build: half/bin/newton
      stencil: half/bin/3d/newton
      bin: standard
  (2) pair eam/alloy, perpetual, copy from (1)
      attributes: half, newton on
      pair build: copy
      stencil: none
      bin: none
Per MPI rank memory allocation (min/avg/max) = 7.896 | 7.905 | 7.922 Mbytes
Step Temp E_pair E_mol TotEng Press Volume 
       0          300   -170396.12            0   -169930.82   -165407.61     163505.8 
      50    207.77155   -171006.11            0   -170683.86    2322.1564    149438.16 
     100     222.0376   -170983.39            0   -170639.01   -195.48084    149638.21 
     150    248.14845   -170974.66            0   -170589.78    109.98918    149647.77 
     200    257.47415   -170938.84            0    -170539.5   -5.5437118    149716.73 
     250    276.80353   -170920.36            0   -170491.04   -171.20651    149799.86 
     300    289.46366   -170896.67            0   -170447.71    606.74644       149797 
     350    298.31471   -170875.47            0   -170412.79    99.051619    149870.35 
     400    307.23094   -170870.37            0   -170393.85   -155.87738     149922.3 
     450    305.92676   -170867.58            0   -170393.09    267.04624    149917.89 
     500    302.15292   -170878.18            0   -170409.55   -165.47028     149893.3 
     550    295.60446    -170884.3            0   -170425.82   -51.569156    149861.07 
     600    296.02887   -170889.94            0    -170430.8   -5.3769382    149858.13 
     650     296.2882   -170880.57            0   -170421.02    13.294582    149861.68 
     700    299.58205   -170870.18            0   -170405.53    254.42142    149875.28 
     750     307.4997    -170874.7            0   -170397.77   -505.79356    149926.05 
     800    305.29771   -170877.43            0   -170403.92    711.13991    149842.56 
     850     298.1345   -170880.42            0   -170418.01   -264.23327     149904.5 
     900    296.37588   -170884.84            0   -170425.16    50.383251       149867 
     950    297.36262   -170884.47            0   -170423.27    350.79939    149847.23 
    1000    301.91311    -170879.4            0   -170411.13   -44.579836    149892.66 
    1050    302.04165   -170871.46            0      -170403    96.098366    149899.82 
    1100    303.67231   -170875.95            0   -170404.96     223.5973    149889.21 
    1150    300.17577   -170880.75            0   -170415.18   -46.524634    149904.95 
    1200    299.39587   -170887.99            0   -170423.63    444.56591    149837.85 
    1250    294.60887   -170879.87            0   -170422.93    229.72596    149861.54 
    1300    300.57726   -170879.72            0   -170413.52   -480.00181    149920.08 
    1350    303.37535   -170875.89            0   -170405.36    398.17655     149877.7 
    1400    298.48995   -170867.32            0   -170404.37   -306.71526    149933.46 
    1450    301.11161   -170878.19            0   -170411.17    434.20832     149862.2 
    1500     298.1011   -170881.03            0   -170418.68   -202.72496    149885.02 
    1550    296.14409   -170880.63            0   -170421.32    10.931083    149884.44 
    1600    299.92274   -170880.93            0   -170415.75    347.42148    149859.85 
    1650    300.45513   -170875.09            0   -170409.09    615.02529    149872.41 
    1700    301.54258   -170874.77            0   -170407.08    -35.77067    149897.03 
    1750    300.78518   -170876.84            0   -170410.32    463.85286     149851.6 
    1800     299.6159   -170881.66            0   -170416.96    -485.3148     149926.2 
    1850    296.62003   -170880.47            0   -170420.41    696.41372    149838.26 
    1900    300.00936   -170883.39            0   -170418.08    93.600947    149870.56 
    1950    298.89428   -170876.25            0   -170412.66    390.33395    149888.93 
    2000    302.49536   -170876.96            0   -170407.79    295.44045    149871.31 
    2050    299.54489   -170873.04            0   -170408.45    110.13934    149882.95 
    2100    302.12758   -170881.02            0   -170412.42    428.26969    149867.74 
    2150    299.51186   -170882.36            0   -170417.82    250.49092    149863.59 
    2200    298.91898   -170884.14            0   -170420.51   -149.75484    149878.67 
    2250    300.04518   -170882.52            0   -170417.15   -69.235925    149881.66 
    2300    301.96667   -170879.08            0   -170410.73    33.228707    149893.51 
    2350    302.12443   -170875.35            0   -170406.76    -154.5516    149929.58 
    2400    300.99983   -170875.25            0    -170408.4   -70.971695    149907.17 
    2450    299.84314   -170879.49            0   -170414.44   -474.37109    149896.93 
    2500    297.06644   -170879.95            0    -170419.2    336.97787    149857.23 
    2550    297.77179   -170880.98            0   -170419.13   -332.17238    149900.82 
    2600    298.76554   -170877.34            0   -170413.95    365.24764    149862.41 
    2650    298.94601   -170872.44            0   -170408.78   -107.73232    149902.05 
    2700    301.52121   -170875.64            0   -170407.98   -140.42369    149919.05 
    2750    299.09601   -170876.33            0   -170412.43    531.51828    149858.14 
    2800     296.5115    -170878.3            0   -170418.41   -623.84696    149926.08 
    2850    302.20135   -170888.63            0   -170419.91    519.91926    149833.71 
    2900    296.01076    -170875.2            0   -170416.09    69.754136    149891.99 
    2950    299.63451   -170874.31            0   -170409.58   -470.77983    149926.86 
    3000     304.4518   -170878.54            0   -170406.34     444.2468    149873.91 
    3050    304.06694   -170880.62            0   -170409.01   -54.445802    149899.45 
    3100    298.12442    -170877.7            0   -170415.31   -331.16476     149908.5 
    3150    298.80078   -170882.02            0   -170418.59    815.89759    149812.24 
    3200      297.899   -170879.23            0   -170417.19   -296.73634    149909.95 
    3250    298.96389   -170875.28            0   -170411.59   -526.15866     149911.3 
    3300     302.6429   -170878.34            0   -170408.94    500.32447    149841.23 
    3350    303.59177   -170882.24            0   -170411.37    -1069.894    149974.61 
    3400    297.58817   -170878.15            0   -170416.59    615.47757    149853.58 
    3450    299.00681   -170882.25            0   -170418.49   -1098.6874     149945.8 
    3500    298.55204   -170879.47            0   -170416.42    543.50199     149838.9 
    3550    301.52493    -170878.7            0   -170411.04   -452.08428    149910.36 
    3600    303.69861   -170878.41            0   -170407.38   -344.00356     149902.7 
    3650    300.52988   -170875.52            0    -170409.4    458.21938    149858.76 
    3700    299.32621   -170883.29            0   -170419.04   -471.97075    149904.51 
    3750    297.42482   -170881.16            0   -170419.85    1102.6076    149800.39 
    3800    297.95044   -170877.53            0   -170415.41   -1047.6102    149959.12 
    3850    298.73462    -170874.1            0   -170410.76    927.11696    149836.53 
    3900    301.94041    -170878.3            0   -170409.99   -151.60216    149887.72 
    3950    299.81306   -170877.15            0   -170412.14   -783.35273    149929.34 
    4000    302.02665   -170881.78            0   -170413.34     1433.194    149779.08 
    4050    301.01095   -170880.82            0   -170413.96   -1184.0484    149961.94 
    4100    301.34689   -170881.51            0   -170414.12    717.84996    149830.47 
    4150    298.85911   -170879.33            0    -170415.8   -353.97173    149888.71 
    4200    300.95519   -170883.14            0   -170416.36   -562.20193    149890.84 
    4250    298.87753   -170877.65            0   -170414.09    227.54619    149858.72 
    4300    301.09287    -170876.5            0    -170409.5   -243.89416    149923.64 
    4350    301.03415   -170874.01            0    -170407.1   -254.96428    149901.22 
    4400    299.50644   -170877.13            0   -170412.59   -315.35558     149888.5 
    4450     295.4509   -170878.34            0   -170420.09   -67.021538    149878.91 
    4500    296.39817   -170878.17            0   -170418.46   -157.05589    149880.29 
    4550    299.63826   -170878.37            0   -170413.64   -20.788103    149883.36 
    4600    300.00404    -170874.9            0   -170409.59    333.79767    149882.09 
    4650    299.55821   -170874.54            0   -170409.93    -307.5631    149928.72 
    4700    298.99381   -170875.36            0   -170411.62     345.1488    149866.62 
    4750    301.79498   -170880.74            0   -170412.66    159.90327    149876.47 
    4800    298.20408   -170877.88            0   -170415.37   -128.44527    149894.31 
    4850    299.28571   -170885.49            0    -170421.3    517.99514    149835.18 
    4900    292.77233   -170880.65            0   -170426.56   -325.99889    149894.36 
    4950    297.95701   -170882.44            0   -170420.31    29.171677    149878.24 
    5000    297.94346   -170876.52            0   -170414.41    53.197271    149894.35 
Loop time of 82.3876 on 24 procs for 5000 steps with 12000 atoms

Performance: 10.487 ns/day, 2.289 hours/ns, 60.689 timesteps/s
99.6% CPU use with 24 MPI tasks x no OpenMP threads

MPI task timing breakdown:
Section |  min time  |  avg time  |  max time  |%varavg| %total
---------------------------------------------------------------
Pair    | 78.478     | 79.912     | 81.295     |   8.5 | 97.00
Bond    | 0.00069678 | 0.0012045  | 0.0017479  |   0.8 |  0.00
Neigh   | 0.010753   | 0.011677   | 0.012251   |   0.4 |  0.01
Comm    | 0.62632    | 1.8164     | 3.2567     |  57.6 |  2.20
Output  | 0.004525   | 0.0046602  | 0.0068483  |   0.7 |  0.01
Modify  | 0.274      | 0.49254    | 1.3231     |  40.4 |  0.60
Other   |            | 0.1491     |            |       |  0.18

Nlocal:    500 ave 524 max 464 min
Histogram: 1 3 3 1 0 0 2 6 5 3
Nghost:    6665.33 ave 6714 max 6575 min
Histogram: 4 4 0 0 0 0 0 0 3 13
Neighs:    177520 ave 189903 max 164056 min
Histogram: 2 3 1 2 3 4 2 3 2 2

Total # of neighbors = 4260475
Ave neighs/atom = 355.04
Ave special neighs/atom = 0
Neighbor list builds = 3
Dangerous builds = 2

unfix thermostat_fix1

fix thermostat_ramp all npt temp 300 $T ${THERMO_DAMP} aniso 0.0 0.0 ${BARO_DAMP}
fix thermostat_ramp all npt temp 300 3000 ${THERMO_DAMP} aniso 0.0 0.0 ${BARO_DAMP}
fix thermostat_ramp all npt temp 300 3000 0.1 aniso 0.0 0.0 ${BARO_DAMP}
fix thermostat_ramp all npt temp 300 3000 0.1 aniso 0.0 0.0 0.5

run ${rampsteps}
run 10000
Per MPI rank memory allocation (min/avg/max) = 7.896 | 7.907 | 7.926 Mbytes
Step Temp E_pair E_mol TotEng Press Volume 
    5000    297.94346   -170876.52            0   -170414.41    53.197271    149894.35 
    5050    300.86297   -170875.89            0   -170409.25    383.79572    149851.97 
    5100    305.04316   -170865.81            0   -170392.69    414.90499     149894.8 
    5150    314.81808   -170856.16            0   -170367.88   -391.26554    149971.85 
    5200    328.26841    -170845.8            0   -170336.66   -557.18388    150020.02 
    5250      335.393   -170820.45            0   -170300.26    194.36999    150007.04 
    5300    343.77358   -170792.79            0    -170259.6    -779.6866    150158.03 
    5350    362.84202   -170778.45            0   -170215.68    375.00584    150115.04 
    5400    377.65949   -170754.66            0   -170168.91   -234.03532    150223.47 
    5450    393.74755   -170730.87            0   -170120.17   -34.681197    150288.06 
    5500    408.60584   -170704.02            0   -170070.28    437.65234    150318.84 
    5550    420.11392   -170671.36            0   -170019.77    9.9284939    150435.57 
    5600     441.4554   -170652.86            0   -169968.17    515.43735    150447.15 
    5650    453.70339   -170621.05            0   -169917.36   -550.43862    150604.36 
    5700     473.5798   -170601.14            0   -169866.63   -435.64625    150674.94 
    5750    487.19913   -170572.46            0   -169816.82    1108.3318    150645.83 
    5800    505.96112    -170551.9            0   -169767.16   -480.86625    150835.59 
    5850    517.35646   -170521.51            0   -169719.09    1034.5981    150778.91 
    5900    532.06434      -170497            0   -169671.77   -356.06854    150931.58 
    5950    544.86933   -170471.32            0   -169626.24   -697.34201    151024.43 
    6000    560.30031   -170449.19            0   -169580.17    519.72936    151018.93 
    6050    576.10071      -170428            0   -169534.47   -95.114276    151118.91 
    6100    590.38065    -170405.5            0   -169489.82    146.54623     151157.9 
    6150    606.87303   -170385.22            0   -169443.97   -242.84786    151268.97 
    6200    615.99607   -170355.84            0   -169400.43    2028.2791    151173.86 
    6250    639.99552   -170347.67            0   -169355.04   -1575.9411    151457.82 
    6300    638.78248   -170302.98            0   -169312.23    270.40374    151438.04 
    6350    658.98651   -170288.37            0   -169266.29    120.71076    151499.28 
    6400    672.50575    -170265.1            0   -169222.05    707.57907    151537.22 
    6450    682.26997   -170236.91            0   -169178.71   -1098.7412    151686.41 
    6500    703.03215   -170225.93            0   -169135.53   -33.917232    151682.45 
    6550    707.89729   -170191.53            0   -169093.59    1200.8421    151635.48 
    6600    721.41753   -170167.25            0   -169048.34   -697.38931    151869.65 
    6650    739.03394   -170151.66            0   -169005.43    639.63241    151828.69 
    6700    754.46179   -170130.75            0   -168960.59    475.69275    151904.44 
    6750    767.59438   -170105.86            0   -168915.33   -2033.9072    152149.49 
    6800    780.62072   -170080.34            0    -168869.6    1923.5836    151926.19 
    6850    786.80044   -170046.31            0   -168825.99    339.65329    152187.58 
    6900    801.53836   -170023.11            0   -168779.93   -15.728009    152232.51 
    6950    819.06668   -170005.89            0   -168735.52    146.40133    152281.26 
    7000    835.60679   -169986.35            0   -168690.33   -214.66041    152339.14 
    7050    861.47312   -169982.93            0   -168646.79    96.657495    152354.83 
    7100    856.33306    -169932.1            0   -168603.93    -884.6675    152574.52 
    7150    869.12463   -169905.56            0   -168557.56    1624.7781    152524.76 
    7200    881.70027    -169881.4            0   -168513.89   -587.70706    152695.52 
    7250     900.4501   -169869.06            0   -168472.46   -1248.4971     152829.2 
    7300    914.49322   -169846.58            0   -168428.21    287.28087    152698.34 
    7350    928.02813   -169825.09            0   -168385.73   -1071.9965    152898.15 
    7400    937.84284   -169794.54            0   -168339.95     1225.692    152835.49 
    7450    966.34614    -169791.9            0    -168293.1    -1509.383    152988.66 
    7500    967.81693   -169753.38            0   -168252.31    719.69474    152985.97 
    7550    984.24125   -169731.31            0   -168204.76    -1709.452    153225.52 
    7600       993.44   -169699.94            0   -168159.12    571.14499    153071.99 
    7650    1000.9245   -169671.48            0   -168119.05   -271.52833    153246.78 
    7700    1015.4559   -169648.08            0   -168073.11   -1124.9015    153391.47 
    7750     1039.687    -169641.1            0   -168028.55    564.24859    153388.18 
    7800    1046.2343   -169608.11            0   -167985.41    298.26814     153408.3 
    7850    1054.5868   -169577.69            0   -167942.04   -19.924005     153532.6 
    7900    1076.1317    -169564.5            0   -167895.43   -57.671238    153575.72 
    7950    1087.1608   -169537.57            0   -167851.39    37.604336    153611.15 
    8000    1096.1875   -169508.84            0   -167808.66    1127.3896    153568.05 
    8050    1125.4704   -169510.97            0   -167765.38   -2296.0254     153816.2 
    8100    1117.9176   -169456.37            0   -167722.49    212.32131    153830.98 
    8150    1141.1562   -169449.16            0   -167679.23   -1948.8799    154028.93 
    8200    1155.8315   -169429.57            0   -167636.88     2109.311    153833.79 
    8250    1160.1271    -169390.7            0   -167591.35    381.73488    154027.62 
    8300    1177.5894   -169374.98            0   -167548.55   -972.78959    154178.94 
    8350    1185.9344   -169341.76            0   -167502.39   -1245.9164    154334.93 
    8400    1187.8848   -169302.12            0   -167459.72   -492.35845    154391.75 
    8450    1213.8388   -169295.46            0    -167412.8   -930.76705    154428.41 
    8500    1221.9436   -169262.05            0   -167366.82    3177.8203    154173.63 
    8550    1249.6759   -169259.23            0      -167321    229.10578    154508.34 
    8600    1238.5314   -169195.33            0   -167274.38    714.63899    154617.77 
    8650    1269.1936   -169196.36            0   -167227.85     1170.021    154520.05 
    8700    1287.2195   -169179.73            0   -167183.26    812.17349    154696.07 
    8750    1303.1297   -169155.17            0   -167134.03   -1919.7427    154931.24 
    8800    1309.6661   -169122.47            0   -167091.19    1886.6727    154684.11 
    8850    1334.9027    -169117.2            0   -167046.77   -1302.9717    154948.88 
    8900    1342.6665   -169085.72            0   -167003.26   -1035.9491    155023.58 
    8950    1353.1724   -169058.93            0   -166960.17    2654.0334     154796.9 
    9000    1343.7844   -168999.84            0   -166915.64   -1716.3417     155303.1 
    9050    1377.6879   -169004.62            0   -166867.83    345.16848    155188.59 
    9100    1400.1656   -168990.98            0   -166819.33   -2020.5762    155350.51 
    9150    1394.3242   -168937.55            0   -166774.97   -750.00524    155465.33 
    9200     1422.671   -168929.74            0   -166723.19    3729.9081    155186.45 
    9250    1427.4087   -168891.26            0   -166677.36   -2669.2498    155713.43 
    9300    1444.3582   -168868.69            0    -166628.5     1134.783    155581.03 
    9350    1447.6015   -168825.92            0    -166580.7   -103.15461    155742.38 
    9400    1477.2243   -168823.86            0   -166532.69   -1587.8418    155821.83 
    9450    1490.6661   -168797.72            0   -166485.71   -827.82143    155953.93 
    9500    1494.6177   -168758.95            0   -166440.81    -1682.747    156143.14 
    9550     1511.857   -168736.14            0   -166391.26    3882.3528    155791.39 
    9600    1532.6579   -168722.01            0   -166344.87   -2557.0961    156260.04 
    9650    1536.2262   -168679.61            0   -166296.94   -49.901446    156207.85 
    9700    1572.0814    -168694.4            0   -166256.11    1564.0292    156068.98 
    9750    1563.8878    -168634.8            0   -166209.22   -2484.3886    156526.57 
    9800     1574.514    -168600.2            0   -166158.14    1785.0435    156377.44 
    9850    1587.2283   -168574.14            0   -166112.36    -929.9948    156605.15 
    9900    1610.4796   -168561.56            0   -166063.71   -836.51085    156693.35 
    9950    1626.7327   -168538.97            0   -166015.92    2440.1079    156403.64 
   10000    1633.9376   -168503.12            0   -165968.89   -1307.4419    156856.22 
   10050     1637.067   -168461.38            0    -165922.3   -1192.4795    156941.66 
   10100    1652.5598   -168440.39            0   -165877.29    796.08182    156841.25 
   10150    1685.5772   -168440.75            0   -165826.43   -1013.5165    157033.14 
   10200    1679.5216   -168386.05            0   -165781.12    -1252.429    157156.68 
   10250    1722.1438   -168403.29            0   -165732.26     1542.135    156996.72 
   10300    1709.6823   -168337.54            0   -165685.83    88.242179    157194.73 
   10350    1727.2274   -168312.44            0   -165633.53   -615.15217    157344.03 
   10400    1721.2433   -168257.33            0   -165587.69   -431.62212    157468.68 
   10450    1759.2034   -168267.23            0   -165538.72   -899.95655    157542.74 
   10500    1782.0175   -168248.53            0   -165484.63   -19.596537    157497.68 
   10550    1780.7508   -168199.08            0   -165437.15    517.21747    157629.26 
   10600    1814.3181    -168200.9            0   -165386.91   -2091.0298    157837.06 
   10650    1805.8934   -168142.16            0   -165341.23    1960.3632    157817.66 
   10700     1831.694   -168132.56            0   -165291.62   -2087.5334    158043.19 
   10750    1820.6446   -168072.47            0   -165248.67    3264.5532    157851.65 
   10800    1869.8422   -168094.84            0   -165194.73   -476.08408     158091.4 
   10850    1886.0201   -168080.13            0   -165154.93   -441.00838     158114.2 
   10900    1871.1071   -168006.89            0   -165104.82   -177.24876    158329.93 
   10950    1879.7699   -167971.74            0   -165056.23     1226.088    158255.77 
   11000    1884.6538   -167932.91            0   -165009.83   -1160.1096     158575.1 
   11050    1937.1233   -167956.37            0   -164951.91    3.0141737     158363.5 
   11100    1921.9332   -167893.07            0   -164912.16    2575.6213    158327.57 
   11150    1943.4451   -167873.37            0    -164859.1   -225.31608    158653.89 
   11200    1941.2234   -167818.63            0   -164807.81    828.21855    158808.48 
   11250    1962.2894   -167796.86            0   -164753.36    289.51304    158977.67 
   11300    1979.1941   -167774.35            0   -164704.64   -124.99852    158979.86 
   11350    1993.1736   -167741.58            0   -164650.19    579.93188    159072.96 
   11400    2005.2393   -167705.67            0   -164595.56    42.071406     159177.8 
   11450    2003.2059   -167664.13            0   -164557.18    616.13965     159301.6 
   11500    2023.8302   -167640.58            0   -164501.63   -1309.7941    159393.13 
   11550    2065.6331   -167660.68            0    -164456.9   -1348.0347    159439.41 
   11600    2068.8362   -167623.75            0      -164415    137.41363     159355.5 
   11650    2081.5014   -167591.49            0    -164363.1   -875.62752    159575.58 
   11700    2100.2988   -167573.42            0   -164315.88   -180.03397     159700.9 
   11750    2101.1617   -167525.67            0   -164266.78   -1045.6408    159813.45 
   11800    2130.2852   -167512.58            0   -164208.52   -87.364777    159865.21 
   11850    2106.4447   -167423.54            0   -164156.46    494.13364    159928.31 
   11900    2152.1189   -167443.58            0   -164105.66    259.06019    160096.58 
   11950     2173.658   -167424.32            0      -164053   -1597.6909    160270.78 
   12000    2169.3125   -167359.09            0    -163994.5    442.19112    160273.25 
   12050    2187.5582   -167329.54            0   -163936.65    1740.2285    160114.08 
   12100    2206.3929   -167316.56            0   -163894.46    559.57939     160317.1 
   12150    2214.0795   -167267.22            0    -163833.2    2736.8873    160410.83 
   12200    2237.0547   -167246.43            0   -163776.77   -1790.1849    160807.31 
   12250    2264.9546   -167227.66            0   -163714.74      1830.14    160454.93 
   12300    2244.3014   -167153.61            0   -163672.72   -1746.6165    161003.29 
   12350    2258.5124   -167113.86            0   -163610.93   -1427.8215    161044.81 
   12400      2271.97   -167091.42            0   -163567.61    262.44748     160866.5 
   12450    2293.1535   -167074.18            0   -163517.52    1210.7174    160934.43 
   12500    2292.8902   -167022.27            0   -163466.02   -71.409004    161157.65 
   12550    2332.8925    -167022.4            0    -163404.1    510.90368    161235.78 
   12600    2350.8441   -166998.54            0    -163352.4   -287.51446     161401.4 
   12650    2347.8778   -166934.66            0   -163293.12   -1530.8351    161588.81 
   12700    2358.2893   -166898.16            0   -163240.47    2581.3671    161550.56 
   12750    2379.7022    -166872.1            0    -163181.2   -2464.2302    161833.95 
   12800    2392.0539   -166841.63            0   -163131.57      513.038    161643.55 
   12850    2420.4732   -166824.84            0   -163070.71    1303.4483    161767.46 
   12900    2395.8374   -166727.42            0   -163011.49    -336.6478    162193.62 
   12950    2421.6642   -166690.56            0   -162934.58    809.72926    161914.12 
   13000    2429.1334   -166636.44            0   -162868.87    661.96313    162047.16 
   13050    2462.6886   -166611.83            0   -162792.21   -300.24314     162439.5 
   13100    2462.3766   -166544.18            0   -162725.05   -87.974317    162551.95 
   13150    2457.8741    -166474.6            0   -162662.46    601.48117    162514.47 
   13200    2501.6049      -166477            0   -162597.03   -261.07807    162753.94 
   13250    2465.1765   -166373.14            0   -162549.67    755.12307    162851.87 
   13300    2541.2533    -166422.9            0   -162481.44     938.6725    162643.44 
   13350    2531.4478    -166359.9            0   -162433.64   -188.88052    162945.14 
   13400     2560.703   -166333.63            0      -162362    2480.8836    162798.18 
   13450    2558.7007   -166262.12            0    -162293.6    3905.1151    162691.67 
   13500    2579.4321    -166221.1            0   -162220.42    329.35587    163197.65 
   13550    2569.7185    -166132.9            0   -162147.29   -3055.5281    163532.77 
   13600    2600.2728   -166105.65            0   -162072.64   -180.60443    163398.41 
   13650    2640.1882   -166082.69            0   -161987.78    32.423174    163386.11 
   13700    2609.5483   -165973.36            0   -161925.97     132.8543    163570.09 
   13750    2654.8187   -165957.86            0   -161840.26    488.62124    163578.05 
   13800    2644.1542   -165869.15            0   -161768.09   -2056.1206    164082.79 
   13850     2697.363   -165869.37            0   -161685.78    -965.0937    163939.01 
   13900    2670.0406   -165758.49            0   -161617.28    1749.2717    163811.25 
   13950    2699.1633   -165737.02            0   -161550.64   -1814.5284     164131.3 
   14000    2711.1482   -165679.43            0   -161474.45    -405.4968    164239.78 
   14050    2725.8116   -165645.48            0   -161417.76     1087.604    164074.85 
   14100    2727.6185   -165594.46            0   -161363.94   -369.94559    164295.68 
   14150    2743.0663    -165549.4            0   -161294.92   -795.22021    164495.33 
   14200    2785.0988   -165545.08            0   -161225.41    2844.6957    164080.85 
   14250    2777.1968   -165479.42            0      -161172   -277.58582    164408.63 
   14300    2795.6007   -165433.86            0   -161097.91   -1421.6637    164633.79 
   14350    2832.2737   -165423.73            0    -161030.9   -1720.8802    164461.41 
   14400    2808.8774   -165338.74            0    -160982.2    207.37036    164376.95 
   14450    2803.4413   -165261.43            0   -160913.31    1606.8122    164688.53 
   14500    2845.3115   -165261.96            0   -160848.91   -2350.6771     164732.2 
   14550    2851.7974   -165215.19            0   -160792.08    422.88355    164642.56 
   14600    2864.9372    -165164.4            0   -160720.91   -1895.7902    165076.33 
   14650    2877.5893   -165125.69            0   -160662.57   -1709.7674    165319.91 
   14700    2904.6323   -165111.93            0   -160606.87   -819.40378    165156.76 
   14750    2887.4683   -165015.63            0   -160537.19   -269.91065    165441.02 
   14800    2946.2948   -165044.86            0   -160475.18   -148.98026    165420.98 
   14850    2948.0504   -164997.28            0   -160424.87    77.659851    165558.54 
   14900    2950.9899   -164922.12            0   -160345.16    2632.1799    165272.55 
   14950    2939.4979   -164848.11            0   -160288.97    4732.2087    165261.16 
   15000    2983.2969   -164832.36            0   -160205.29    591.28378     165648.7 
Loop time of 161.55 on 24 procs for 10000 steps with 12000 atoms

Performance: 10.696 ns/day, 2.244 hours/ns, 61.900 timesteps/s
99.5% CPU use with 24 MPI tasks x no OpenMP threads

MPI task timing breakdown:
Section |  min time  |  avg time  |  max time  |%varavg| %total
---------------------------------------------------------------
Pair    | 150.27     | 153.67     | 156.33     |  12.4 | 95.12
Bond    | 0.0015     | 0.0023913  | 0.0033136  |   1.1 |  0.00
Neigh   | 2.2053     | 2.3531     | 2.4625     |   4.3 |  1.46
Comm    | 1.8983     | 3.9624     | 6.6766     |  66.9 |  2.45
Output  | 0.0090465  | 0.009235   | 0.011593   |   0.5 |  0.01
Modify  | 0.59503    | 1.3053     | 2.1404     |  51.5 |  0.81
Other   |            | 0.2503     |            |       |  0.15

Nlocal:    500 ave 518 max 482 min
Histogram: 1 2 3 3 4 3 1 2 4 1
Nghost:    6331.54 ave 6393 max 6279 min
Histogram: 2 0 1 8 4 3 3 1 1 1
Neighs:    164968 ave 176238 max 156667 min
Histogram: 5 2 0 3 5 4 1 1 2 1

Total # of neighbors = 3959240
Ave neighs/atom = 329.937
Ave special neighs/atom = 0
Neighbor list builds = 615
Dangerous builds = 202

unfix thermostat_ramp

fix thermostat_eq all npt temp $T $T ${THERMO_DAMP} aniso 0.0 0.0 ${BARO_DAMP}
fix thermostat_eq all npt temp 3000 $T ${THERMO_DAMP} aniso 0.0 0.0 ${BARO_DAMP}
fix thermostat_eq all npt temp 3000 3000 ${THERMO_DAMP} aniso 0.0 0.0 ${BARO_DAMP}
fix thermostat_eq all npt temp 3000 3000 0.1 aniso 0.0 0.0 ${BARO_DAMP}
fix thermostat_eq all npt temp 3000 3000 0.1 aniso 0.0 0.0 0.5

variable AVE_START equal 20000
variable V equal vol
variable LX equal lx
variable LY equal ly
variable LZ equal lz
fix avg_V_fix all ave/time 1 1000 1000 v_V start ${AVE_START}
fix avg_V_fix all ave/time 1 1000 1000 v_V start 20000
fix avg_LX_fix all ave/time 1 1000 1000 v_LX start ${AVE_START}
fix avg_LX_fix all ave/time 1 1000 1000 v_LX start 20000
fix avg_LY_fix all ave/time 1 1000 1000 v_LY start ${AVE_START}
fix avg_LY_fix all ave/time 1 1000 1000 v_LY start 20000
fix avg_LZ_fix all ave/time 1 1000 1000 v_LZ start ${AVE_START}
fix avg_LZ_fix all ave/time 1 1000 1000 v_LZ start 20000

variable AVG_V equal f_avg_V_fix
variable AVG_LX equal f_avg_LX_fix
variable AVG_LY equal f_avg_LY_fix
variable AVG_LZ equal f_avg_LZ_fix

variable VOL equal ${AVG_V}
variable VOL equal 0
variable LP equal (${VOL}/(4*4*${zunits}))^(1/3)
variable LP equal (0/(4*4*${zunits}))^(1/3)
variable LP equal (0/(4*4*20))^(1/3)

print "OUTPUT:${AVG_V}:${AVG_LX}:${AVG_LY}:${AVG_LZ}:${LP}"
OUTPUT:0:0:0:0:0

unfix avg_V_fix
unfix avg_LX_fix
unfix avg_LY_fix
unfix avg_LZ_fix

run ${equilsteps}
run 10000
Per MPI rank memory allocation (min/avg/max) = 7.896 | 7.908 | 7.928 Mbytes
Step Temp E_pair E_mol TotEng Press Volume 
   15000    2983.2969   -164832.36            0   -160205.29    591.28378     165648.7 
   15050    3016.6805   -164879.47            0   -160200.62    137.29829    165610.62 
   15100    2983.0951   -164819.13            0   -160192.37    2204.9494    165525.89 
   15150     3029.453    -164825.3            0   -160126.64   -2345.0431    166089.22 
   15200    3011.0435   -164742.24            0   -160072.13    1415.2057    165859.57 
   15250     3051.551   -164791.98            0   -160059.04   -55.801687    165801.94 
   15300    2968.2996   -164710.11            0    -160106.3   -1635.3765    165906.07 
   15350    2970.5305   -164790.33            0   -160183.06   -1120.6347     165840.8 
   15400    3008.5187   -164857.85            0   -160191.66   -795.05925    165527.63 
   15450    2979.7175    -164789.5            0   -160167.98    1296.8762    165587.32 
   15500    2981.9634   -164746.26            0   -160121.25    -1652.413    165818.11 
   15550    3022.8773   -164810.48            0   -160122.02    723.46496    165666.76 
   15600    2985.8983   -164816.23            0   -160185.13    297.66779    165702.62 
   15650     2976.182   -164816.19            0   -160200.15    -2388.583    165911.56 
   15700    2991.9394    -164786.7            0   -160146.22   -88.332311    165795.13 
   15750    2976.5439   -164713.48            0   -160096.89    365.15866    165768.58 
   15800    3029.4405   -164773.53            0   -160074.89   -396.32461    165830.24 
   15850    2988.2346   -164735.36            0   -160100.63    2123.5908    165709.79 
   15900     3007.476    -164775.7            0   -160111.12   -3550.8943    166072.72 
   15950    2979.8423   -164748.43            0   -160126.72    1576.1275    165654.46 
   16000    3016.3069   -164796.04            0   -160117.77   -774.80459    165862.18 
   16050    3020.8812   -164762.27            0   -160076.91   -1104.9389    166132.27 
   16100    3021.9375   -164772.89            0   -160085.89    540.33126     165674.1 
   16150    2995.4505   -164793.88            0   -160147.96   -1000.2368    165662.27 
   16200    2983.2536   -164810.19            0   -160183.18    247.20739    165703.99 
   16250    2977.4488   -164777.82            0   -160159.82   -2319.3851    165809.84 
   16300    3014.6545   -164733.81            0    -160058.1    1034.0894     165783.3 
   16350    3012.7369      -164711            0   -160038.27   -327.22753    166019.97 
   16400    3020.0063   -164762.36            0   -160078.35    604.44328     165786.2 
   16450    2994.7176   -164777.81            0   -160133.02     202.5648    165680.29 
   16500    3015.6886   -164825.71            0    -160148.4   -595.39162    165817.21 
   16550    2982.9947   -164782.53            0   -160155.93    1583.2201    165708.38 
   16600    3001.5551   -164781.77            0   -160126.38   -3195.6687    165993.93 
   16650    3036.4718   -164792.63            0   -160083.08    325.94263    165827.26 
   16700    3010.0041   -164800.22            0   -160131.73    796.11871    165709.27 
   16750    2975.3513    -164810.3            0   -160195.55   -2370.2844    165976.84 
   16800    3002.7146   -164830.19            0      -160173    1466.0652    165503.85 
   16850    3015.0863    -164809.8            0   -160133.42    -1911.682    165915.92 
   16900    3024.4695   -164822.74            0   -160131.81   -1366.6659    165845.45 
   16950    2991.4399   -164829.43            0   -160189.73    537.63141    165615.17 
   17000    2944.9511   -164839.15            0   -160271.56    499.54128    165648.95 
   17050    2977.6566   -164863.69            0   -160245.37     1559.996    165526.11 
   17100    2999.6411      -164850            0   -160197.58    421.05562    165474.61 
   17150    2994.5817   -164805.49            0   -160160.92   -1866.6931    165975.61 
   17200    3003.1498   -164790.78            0   -160132.92    479.72467    165686.23 
   17250     3014.601   -164822.65            0   -160147.03   -1530.7266    165900.39 
   17300    2988.0197   -164808.43            0   -160174.04    2256.3433    165793.77 
   17350    3013.1277   -164849.39            0   -160176.06   -1479.7391    165773.82 
   17400    2984.9143   -164806.06            0   -160176.48     1040.804    165603.34 
   17450    2951.1401   -164778.11            0   -160200.92   -735.64091    165747.09 
   17500    2999.8678   -164838.01            0   -160185.24   -707.22968    165763.22 
   17550    3018.3613   -164809.55            0   -160128.09   -2832.9562    166132.13 
   17600     3023.154   -164769.98            0   -160081.09   -684.29402    166246.81 
   17650    3040.1965   -164791.78            0   -160076.46    1679.4148    166027.99 
   17700    2988.0212    -164811.1            0    -160176.7   -2555.1556     165832.2 
   17750    3010.6154   -164885.81            0   -160216.37     2753.808    165428.18 
   17800    2973.5701   -164815.37            0   -160203.39   -4700.3608    166195.16 
   17850    2994.0014   -164783.74            0   -160140.07     1470.925     165541.2 
   17900    3008.7346    -164766.8            0   -160100.28   -1155.7564     165726.3 
   17950     3002.907   -164780.51            0   -160123.03    866.30602    165804.42 
   18000    3011.1439   -164824.57            0   -160154.31    470.16202    165841.31 
   18050    2970.1443   -164784.75            0   -160178.08    1980.1593    165600.04 
   18100    2972.3969   -164767.86            0    -160157.7   -991.38748    165909.11 
   18150    2993.1379   -164794.39            0   -160152.06    3785.6789    165420.12 
   18200     3011.616   -164815.37            0   -160144.38   -1251.8004    165708.29 
   18250    3010.9618   -164799.28            0    -160129.3   -2107.2828    166006.48 
   18300    2987.1418   -164707.85            0   -160074.82    1344.3479    165812.38 
   18350    3034.0243   -164734.67            0   -160028.93    1008.2549    165788.22 
   18400    3005.7085   -164761.36            0   -160099.53   -1716.4401    165753.01 
   18450    2978.8078   -164761.53            0   -160141.42     2791.412    165620.53 
   18500    2984.1718   -164763.56            0   -160135.13   -1573.2225    166094.55 
   18550    3036.3414   -164808.64            0    -160099.3    1443.0436    165980.32 
   18600    3012.0025   -164749.92            0   -160078.32    70.981252    165783.44 
   18650    3019.5268   -164766.63            0   -160083.37   -94.277078    165790.66 
   18700    3000.1448   -164813.83            0   -160160.63   -2004.8575    166019.24 
   18750     2964.031   -164778.34            0   -160181.15    1680.3943    165666.81 
   18800    2991.6817   -164768.34            0   -160128.27    1864.0255    165728.61 
   18850    3029.2878   -164772.64            0   -160074.24   -2300.8536    166078.18 
   18900    2996.2961   -164747.73            0    -160100.5    573.26609    165725.51 
   18950    2972.1802   -164728.85            0   -160119.02    2142.1063    165671.53 
   19000    3012.1078   -164804.25            0   -160132.49    356.49303    165818.88 
   19050    2994.5284   -164803.35            0   -160158.86    488.82424    165728.85 
   19100     2969.226   -164852.32            0   -160247.08   -781.71023    165672.64 
   19150    2996.8106   -164889.91            0   -160241.88    1190.8499    165536.48 
   19200    2978.7872   -164810.32            0   -160190.24    1773.2978    165636.76 
   19250    3015.4371   -164832.41            0   -160155.49    3034.0617    165668.77 
   19300    2992.1902   -164783.83            0   -160142.96   -2007.5773    165755.88 
   19350    3026.4207   -164816.13            0   -160122.17    283.89694    165666.43 
   19400    2996.5318   -164782.96            0   -160135.37   -661.90905    165974.39 
   19450    2989.1363   -164828.75            0   -160192.62   -58.478376    165737.27 
   19500    2978.9954   -164803.29            0   -160182.89   -345.25971     165660.6 
   19550    3028.2133   -164818.74            0   -160122.01     271.4758    165596.02 
   19600    3019.2531   -164762.02            0   -160079.18   -2886.0719    165972.91 
   19650     3041.727   -164745.42            0   -160027.73    2299.6004    165721.88 
   19700    3030.0004   -164722.61            0   -160023.11    601.94296    165911.74 
   19750    2982.6291   -164739.11            0   -160113.08    2046.0284    165811.09 
   19800    3014.2878   -164813.41            0   -160138.28   -971.08451    165811.99 
   19850    2993.0603   -164792.17            0   -160149.96    1641.7198    165759.03 
   19900    2997.1096   -164760.29            0    -160111.8   -953.70938    165887.19 
   19950    3026.8064    -164746.6            0   -160052.04    1741.0438    165594.69 
   20000    3024.4994   -164767.58            0    -160076.6   -1612.9262    165797.97 
   20050    2974.9777   -164781.92            0   -160167.75    481.74637    165720.93 
   20100    2967.2633    -164781.4            0   -160179.19    4127.3005    165392.26 
   20150    2985.5223   -164789.29            0   -160158.77    -1292.116    165951.63 
   20200    3026.6016   -164816.85            0   -160122.62   -347.84491    165735.58 
   20250     3018.085   -164747.08            0   -160066.06    2686.0158    165801.64 
   20300    3009.9479   -164668.49            0   -160000.08   -2798.6958    166423.33 
   20350    3057.6707   -164766.43            0      -160024   -259.92685    165833.88 
   20400    2989.3782   -164741.22            0   -160104.72   -1266.3288    165984.31 
   20450    2984.4864   -164763.92            0   -160135.01    -1564.353    166168.86 
   20500    3013.4614      -164835            0   -160161.14    2575.4949    165631.79 
   20550    2999.7221   -164865.38            0   -160212.83    -1859.701    165971.72 
   20600    2961.5461   -164833.88            0   -160240.55    1330.8877    165695.86 
   20650    3006.1846   -164832.23            0   -160169.66    605.68176    165720.26 
   20700    3027.0585   -164802.62            0   -160107.68   -1215.2022    166027.57 
   20750    3014.4762   -164785.01            0   -160109.58   -211.85611    165871.93 
   20800    3014.9515   -164819.86            0   -160143.69   -699.06893    165645.65 
   20850    2995.6402   -164890.07            0   -160243.85    509.62454    165444.07 
   20900    2985.8065   -164881.54            0   -160250.58    181.72211       165583 
   20950    2977.7982   -164812.11            0   -160193.57    9.9439238    165702.98 
   21000    2969.4124   -164742.98            0   -160137.44   -289.48242    165850.76 
   21050    3027.8558   -164799.06            0   -160102.88    438.36928    165674.44 
   21100    3014.8094   -164800.33            0   -160124.38    636.82252    165937.87 
   21150    2986.5715   -164778.92            0   -160146.77   -2511.1765    166314.79 
   21200     3010.082   -164798.59            0   -160129.98    1884.8094    165697.28 
   21250    3017.7114    -164782.5            0   -160102.05    27.410163    165799.51 
   21300    3001.3968   -164739.32            0   -160084.17   -1134.6402    165783.53 
   21350    3033.1104   -164776.81            0   -160072.48   -45.501031    165739.37 
   21400    2998.5035   -164785.28            0   -160134.63   -2853.6957     166105.6 
   21450    2993.5118    -164826.3            0   -160183.39    1651.0536    165534.98 
   21500    2988.1931   -164867.91            0   -160233.24    -82.36591    165710.53 
   21550    2949.7339   -164811.07            0   -160236.05   -2837.4376    166003.18 
   21600    2964.1631   -164794.43            0   -160197.04    1939.7087    165617.26 
   21650    2960.4133   -164742.98            0    -160151.4    140.43118    165971.93 
   21700    2969.0981   -164705.21            0   -160100.16   -664.50665    165983.55 
   21750    3046.7359   -164793.62            0   -160068.15    117.27514     165864.4 
   21800    3001.3729   -164764.96            0   -160109.85   -2220.8619    166134.86 
   21850    2981.6039   -164798.25            0    -160173.8    1834.9531    165645.28 
   21900    2987.7449    -164821.8            0   -160187.83    2009.1761    165460.96 
   21950    2955.1572   -164774.23            0   -160190.81    1531.0214    165820.81 
   22000    2989.6252   -164755.56            0   -160118.68    401.47536    165940.82 
   22050    2989.1006   -164725.83            0   -160089.76   -403.30177    165858.11 
   22100    2996.9238   -164779.29            0   -160131.08   -14.073659    165956.35 
   22150    2990.8058   -164809.38            0   -160170.66    1486.5495    165510.65 
   22200    2989.3246   -164820.69            0   -160184.27    232.72926    165611.96 
   22250    2994.2864   -164803.48            0   -160159.36    -3439.145    166065.77 
   22300    3015.3585   -164811.87            0   -160135.07    3425.4691    165585.96 
   22350    3003.0691   -164824.41            0   -160166.67   -300.52136    165977.98 
   22400    2993.3506   -164797.46            0    -160154.8    370.99493    166025.06 
   22450    3015.7495   -164780.55            0   -160103.15    751.53651     165785.4 
   22500    3036.5706   -164745.81            0   -160036.11    744.66602    165784.11 
   22550    3022.6447   -164713.84            0   -160025.74   -1253.0956    165987.82 
   22600    2980.0574   -164714.03            0   -160091.99     458.5678     165946.2 
   22650    3014.5187   -164778.66            0   -160103.17    823.92041    165522.38 
   22700    2997.7085      -164763            0   -160113.58   -1907.9724    165917.54 
   22750     3007.337   -164760.51            0   -160096.15    49.030332    165767.89 
   22800    3037.7129   -164763.69            0   -160052.22    364.12646    165720.25 
   22850    3038.4427   -164813.32            0   -160100.72   -333.33271    165848.81 
   22900    3002.1112    -164828.9            0   -160172.65    1937.8805    165644.53 
   22950     3004.241   -164852.11            0   -160192.56   -951.79604    165649.59 
   23000    3003.3382   -164853.22            0   -160195.06   -855.29896    165762.17 
   23050    2974.0045   -164814.54            0   -160201.88    1352.0503    165618.79 
   23100    3018.8912    -164839.6            0   -160157.33   -935.34937    165931.16 
   23150     3004.243   -164755.47            0   -160095.91    2269.7131    165847.94 
   23200    2979.6625   -164677.31            0   -160055.87   -581.53853    166053.06 
   23250    3043.6798   -164756.02            0    -160035.3    440.10203    165871.05 
   23300    2983.7006   -164765.48            0   -160137.78    1600.2161    165943.79 
   23350    2970.1414   -164748.89            0   -160142.22   -809.16495    165908.75 
   23400    3009.3881   -164769.02            0   -160101.49    2241.3435    165582.16 
   23450    3012.1681   -164782.13            0   -160110.28   -1538.2479    166099.79 
   23500     2979.939   -164775.38            0   -160153.52    254.13326    165724.46 
   23550    2986.2665    -164839.7            0   -160208.02   -1289.1667    165607.99 
   23600     2933.854   -164793.57            0   -160243.18    552.18718    165645.12 
   23650    2994.1239   -164816.15            0   -160172.29    1349.6907    165613.45 
   23700     3000.578    -164758.8            0   -160104.93    679.35064    165906.18 
   23750    3017.7017   -164768.63            0    -160088.2   -2582.9859    166079.88 
   23800    2997.7085   -164739.95            0   -160090.52    3033.9212    165568.16 
   23850    2974.1336   -164765.18            0   -160152.32    -1514.913    165857.81 
   23900    2993.4891   -164841.07            0   -160198.19    1717.3376    165473.47 
   23950    3011.9042   -164841.77            0   -160170.33    20.159156    165691.71 
   24000    3016.1082   -164750.33            0   -160072.37    906.91959    165833.66 
   24050    3025.5524   -164740.76            0   -160048.15    297.76914     166010.5 
   24100    2997.0193   -164730.36            0      -160082   -3462.3716    166123.04 
   24150    3016.9729   -164808.91            0   -160129.61    1272.8328    165593.96 
   24200    3007.3744   -164857.45            0   -160193.03   -2786.5084    165884.37 
   24250    2991.3102   -164837.33            0   -160197.83    144.57487    165688.47 
   24300    3002.3792   -164839.43            0   -160182.77   -1284.5665    165925.24 
   24350    3003.9759   -164796.31            0   -160137.17    28.285023     165989.1 
   24400    3009.5891   -164780.41            0   -160112.56    2763.2441    165695.99 
   24450     3003.274   -164787.68            0   -160129.63   -2407.8092    165971.18 
   24500    2993.3257   -164787.49            0   -160144.87    1325.7723    165835.77 
   24550    3005.3915   -164834.52            0   -160173.18    2133.7653    165626.17 
   24600    2972.6949   -164875.52            0   -160264.89   -210.22815    165618.46 
   24650    2973.9663    -164893.8            0    -160281.2    1511.6718    165573.24 
   24700    2946.4723   -164809.51            0   -160239.56    -1467.298    165640.81 
   24750    2972.5627   -164781.71            0   -160171.28    1431.0972    165811.76 
   24800    2972.9975   -164732.94            0   -160121.84   -1834.7054    166034.17 
   24850    3030.7054   -164788.23            0   -160087.63    3050.6508    165459.33 
   24900    2969.9414   -164717.99            0   -160111.63   -2607.4094     166092.5 
   24950    2995.9941    -164804.2            0   -160157.44    67.781571    165727.37 
   25000    2948.5379   -164807.95            0   -160234.79     939.8793    165391.78 
Loop time of 155.002 on 24 procs for 10000 steps with 12000 atoms

Performance: 11.148 ns/day, 2.153 hours/ns, 64.515 timesteps/s
99.6% CPU use with 24 MPI tasks x no OpenMP threads

MPI task timing breakdown:
Section |  min time  |  avg time  |  max time  |%varavg| %total
---------------------------------------------------------------
Pair    | 144.39     | 145.86     | 147.87     |   8.9 | 94.10
Bond    | 0.0015269  | 0.0023866  | 0.0032591  |   1.1 |  0.00
Neigh   | 3.6357     | 3.7858     | 3.8765     |   2.7 |  2.44
Comm    | 2.1201     | 3.6519     | 5.04       |  43.3 |  2.36
Output  | 0.0090557  | 0.0092422  | 0.011623   |   0.5 |  0.01
Modify  | 0.81145    | 1.4711     | 2.7354     |  48.9 |  0.95
Other   |            | 0.2194     |            |       |  0.14

Nlocal:    500 ave 518 max 479 min
Histogram: 2 0 1 2 3 6 5 4 0 1
Nghost:    6332.67 ave 6409 max 6273 min
Histogram: 2 1 5 5 4 2 1 1 2 1
Neighs:    165200 ave 171607 max 155620 min
Histogram: 1 1 1 2 5 1 3 5 3 2

Total # of neighbors = 3964810
Ave neighs/atom = 330.401
Ave special neighs/atom = 0
Neighbor list builds = 988
Dangerous builds = 874

unfix thermostat_eq

fix thermostat_nvt all nvt temp ${T} ${T} ${THERMO_DAMP}
fix thermostat_nvt all nvt temp 3000 ${T} ${THERMO_DAMP}
fix thermostat_nvt all nvt temp 3000 3000 ${THERMO_DAMP}
fix thermostat_nvt all nvt temp 3000 3000 0.1

run ${equilsteps}
run 10000
Per MPI rank memory allocation (min/avg/max) = 7.896 | 7.909 | 7.928 Mbytes
Step Temp E_pair E_mol TotEng Press 
   25000    2948.5379   -164807.95            0   -160234.79     939.8793 
   25050    3010.2413   -164866.81            0   -160197.95    2129.4651 
   25100    3024.9496   -164812.55            0   -160120.88    2910.3429 
   25150    3033.5609   -164813.27            0   -160108.24     1480.985 
   25200    2988.8327   -164776.24            0   -160140.59    3703.9016 
   25250    2964.2953   -164756.63            0   -160159.03   -82.723847 
   25300    3024.4919   -164829.11            0   -160138.15    2137.3393 
   25350    3035.6654   -164784.04            0   -160075.75    2924.2768 
   25400     3068.464    -164803.2            0   -160044.03    3314.9708 
   25450    2993.1643   -164771.76            0   -160129.39    3537.4915 
   25500    2986.5531   -164799.86            0   -160167.74    1012.8697 
   25550    2994.3157   -164818.07            0   -160173.91    1326.4959 
   25600    2995.4987    -164825.3            0   -160179.31    1784.2278 
   25650    3024.9201   -164830.68            0   -160139.05    525.35106 
   25700     3030.126   -164780.23            0   -160080.53    1783.1981 
   25750    3011.6461   -164763.59            0   -160092.55    1886.4872 
   25800    2976.2616   -164803.97            0   -160187.81    2597.7425 
   25850    2994.9211    -164849.5            0    -160204.4    1059.1974 
   25900    3019.2891   -164862.45            0   -160179.55    997.34686 
   25950    3000.9051   -164779.24            0   -160124.86    4641.0597 
   26000    2992.6306   -164738.28            0   -160096.73    2899.7911 
   26050    2992.1731   -164807.01            0   -160166.17    1335.9393 
   26100     2994.794   -164891.47            0   -160246.57    625.35442 
   26150    2987.4549   -164854.52            0      -160221     1438.797 
   26200       2962.7   -164746.98            0   -160151.86    3383.0967 
   26250    3025.9477   -164804.53            0   -160111.31    2672.6212 
   26300    3027.1197   -164808.47            0   -160113.43    2913.0239 
   26350    2999.6199   -164830.23            0   -160177.84    3135.2567 
   26400    3013.3371   -164875.59            0   -160201.93    1444.8349 
   26450     2992.086   -164835.68            0   -160194.98    2760.9882 
   26500     3005.932   -164842.03            0   -160179.85    2534.9974 
   26550    3009.0882   -164810.49            0   -160143.42    3480.4328 
   26600    3018.5006   -164773.91            0   -160092.24    2675.7707 
   26650    3007.2194   -164788.85            0   -160124.67    4251.0672 
   26700    2981.0206   -164844.77            0   -160221.23    626.17619 
   26750    3030.8215   -164915.81            0   -160215.03   -298.38774 
   26800     3025.851   -164875.51            0   -160182.44     1436.757 
   26850    3001.1955   -164772.04            0   -160117.21    3151.8075 
   26900    3026.5769   -164788.04            0   -160093.85    4897.7365 
   26950    3015.4238   -164792.82            0   -160115.92      3048.14 
   27000    2996.2831   -164789.83            0   -160142.61    3969.4895 
   27050    3004.3539   -164823.53            0    -160163.8    2836.8023 
   27100    3021.3892   -164854.67            0   -160168.52    2246.0932 
   27150    2974.7675    -164824.8            0   -160210.95    2311.4561 
   27200    2989.5943   -164886.03            0   -160249.19    594.96245 
   27250    2976.4063   -164828.29            0    -160211.9    1576.6122 
   27300    3013.0954   -164811.17            0   -160137.88    3735.8674 
   27350    2995.9416   -164796.14            0   -160149.45    2341.3805 
   27400    2983.8778   -164830.87            0    -160202.9    3175.7254 
   27450     3020.329   -164905.88            0   -160221.37     263.0414 
   27500    2995.1087   -164869.37            0   -160223.98     2709.805 
   27550     2986.712   -164831.72            0   -160199.35    3231.3214 
   27600    2991.8389    -164810.7            0   -160170.38    2587.3686 
   27650    3014.1382   -164813.23            0   -160138.33    4308.0874 
   27700     3018.982   -164803.98            0   -160121.57    4295.6044 
   27750     3002.512   -164783.16            0   -160126.28    4772.0899 
   27800    2997.0315   -164841.43            0   -160193.06     3138.453 
   27850    2965.7688   -164845.24            0   -160245.36    3387.6366 
   27900    2988.6698   -164866.55            0   -160231.14    3310.9433 
   27950    3025.2101   -164848.91            0   -160156.83    1282.9161 
   28000    2987.8239   -164770.06            0   -160135.97    4542.4791 
   28050    2984.5733   -164790.81            0   -160161.76    3089.9066 
   28100    2988.5802   -164816.17            0    -160180.9     3601.279 
   28150    2997.6031   -164861.54            0   -160212.28    3536.2447 
   28200    2977.0921   -164862.71            0   -160245.27    3788.9613 
   28250    2979.9356   -164863.17            0   -160241.31    1067.6529 
   28300    2988.3945   -164839.69            0   -160204.72     1783.942 
   28350    3007.2314   -164828.08            0   -160163.88    1880.3932 
   28400    3027.3262    -164821.9            0   -160126.54    2993.4281 
   28450     3016.076   -164794.43            0   -160116.52    1413.7528 
   28500    2989.4877   -164808.56            0   -160171.89    2203.7693 
   28550    2969.8515   -164830.21            0   -160223.99    2615.1588 
   28600    3000.8907   -164860.05            0   -160205.69    1850.9104 
   28650    3016.1999    -164812.4            0    -160134.3    1765.7168 
   28700     2999.119   -164765.77            0   -160114.15    6001.0138 
   28750    3013.9401   -164788.19            0    -160113.6    3818.2439 
   28800    3007.4337   -164805.19            0   -160140.68    4005.6643 
   28850    2999.2308   -164818.18            0    -160166.4    2060.2973 
   28900    2962.5296   -164793.02            0   -160198.16    2923.0493 
   28950    2971.3484   -164803.86            0   -160195.32    2607.4586 
   29000    3023.4041   -164810.98            0    -160121.7    1736.9995 
   29050     2992.587   -164733.98            0    -160092.5    2621.9824 
   29100     2993.064   -164761.82            0    -160119.6    1956.9519 
   29150    2997.3529   -164837.36            0   -160188.48    1388.2363 
   29200    2957.2136   -164808.71            0    -160222.1    2480.6301 
   29250    2993.7937   -164842.39            0   -160199.04    1332.5261 
   29300    3021.1099   -164863.28            0   -160177.56    985.62329 
   29350    3029.5564   -164863.78            0   -160164.96    2720.5593 
   29400    3022.0504   -164856.63            0   -160169.46    2034.5211 
   29450    2988.4124   -164850.42            0   -160215.41    2575.7342 
   29500    3010.8352   -164873.91            0   -160204.12    223.07221 
   29550    3035.1559   -164833.47            0   -160125.97    1265.1602 
   29600    2992.7797   -164782.54            0   -160140.76    5518.9769 
   29650    2983.0656   -164836.02            0   -160209.31    2506.4535 
   29700    2976.4576   -164873.55            0   -160257.08    1336.2216 
   29750    2985.0258   -164863.63            0   -160233.88    1230.2097 
   29800    3003.9151   -164852.22            0   -160193.17    2788.7389 
   29850    3014.6064   -164815.22            0   -160139.59    4758.7256 
   29900    2966.8614   -164744.44            0   -160142.86    4730.3945 
   29950    3006.5574   -164802.58            0   -160139.43    2889.6448 
   30000    2961.8796   -164739.51            0   -160145.66    3867.1566 
   30050    2987.3658   -164835.63            0   -160202.25    4213.2968 
   30100    2971.5121   -164846.96            0   -160238.17     3385.323 
   30150    2994.6574   -164819.46            0   -160174.77    2963.1904 
   30200    2972.5808   -164732.01            0   -160121.56    3251.2898 
   30250    3034.4991   -164825.85            0   -160119.36    3402.9675 
   30300    3000.2811   -164793.19            0   -160139.78     3230.161 
   30350     3007.035   -164831.77            0   -160167.88     2292.924 
   30400    2974.3178   -164853.96            0   -160240.81    1847.7302 
   30450    2982.4034    -164901.6            0   -160275.92    249.76966 
   30500    2966.8998   -164822.77            0   -160221.13   -513.65164 
   30550    3012.5199    -164829.5            0   -160157.11     1950.286 
   30600    3029.3668   -164844.92            0   -160146.39    1319.9836 
   30650    2975.9529   -164781.65            0   -160165.97    1824.1864 
   30700    2996.1048   -164837.73            0   -160190.79    1134.1473 
   30750    2966.2713   -164856.26            0    -160255.6    2998.3374 
   30800    2963.5368   -164870.81            0   -160274.39    2998.2326 
   30850    3004.4394   -164847.74            0   -160187.88    1087.1308 
   30900    2998.5584   -164796.39            0   -160145.65    1635.2177 
   30950    3004.2319      -164789            0   -160129.46    2451.0965 
   31000    2995.9035   -164741.41            0   -160094.79    2549.3511 
   31050    3053.0774   -164814.09            0   -160078.79    2527.5263 
   31100    2977.9032   -164798.12            0   -160179.41    2176.1534 
   31150    3005.4726   -164858.33            0   -160196.86    1134.3343 
   31200      2951.53   -164763.12            0   -160185.32    4090.9928 
   31250    3024.0713   -164822.92            0   -160132.61    2809.3343 
   31300     2984.083   -164739.35            0   -160111.06    3137.7985 
   31350    2963.3598   -164779.43            0   -160183.28    2033.3857 
   31400    2956.8236   -164830.06            0   -160244.04    518.68788 
   31450    2958.6788   -164809.82            0   -160220.93    672.59656 
   31500    2991.6684   -164806.12            0   -160166.07    2596.9544 
   31550    3009.3404   -164806.55            0   -160139.08    1027.9888 
   31600    3004.2646    -164820.9            0   -160161.31    383.53276 
   31650    2958.3011   -164777.21            0   -160188.91     371.2603 
   31700    2991.8971   -164842.98            0   -160202.57    1065.3474 
   31750      3002.79   -164857.06            0   -160199.75    3383.4868 
   31800    3007.7302   -164815.09            0   -160150.12    3282.7925 
   31850    3026.5186   -164811.31            0   -160117.21    3348.6075 
   31900    2942.6765   -164748.91            0   -160184.84    4962.2007 
   31950    2994.7571   -164847.23            0   -160202.38    2489.8772 
   32000    2982.3551   -164819.03            0   -160193.42    2739.3885 
   32050    2959.9976   -164753.14            0   -160162.21    3282.2355 
   32100    3011.7733   -164821.41            0   -160150.18    1410.8206 
   32150    3014.8039   -164816.44            0   -160140.51    4026.7756 
   32200    3014.5173   -164802.32            0   -160126.83    3648.9874 
   32250    3004.1573    -164845.9            0   -160186.48    640.58353 
   32300    2976.9013   -164868.67            0   -160251.52    1641.4132 
   32350    3003.8422   -164893.61            0   -160234.67    674.91246 
   32400    3008.1754   -164830.34            0   -160164.68    2167.0959 
   32450    3001.9588   -164802.62            0    -160146.6    4099.7982 
   32500    3027.2686   -164839.78            0   -160144.51    3170.6929 
   32550    3035.1743   -164867.52            0   -160159.98   -663.21371 
   32600    3004.8165   -164878.06            0   -160217.61    -1095.331 
   32650    2939.3205   -164870.49            0   -160311.63    739.00617 
   32700    2957.8644   -164860.19            0   -160272.56    195.39065 
   32750    2981.5608   -164826.12            0   -160201.75   -1036.3716 
   32800    3005.5854   -164800.91            0   -160139.27    2796.1756 
   32850    3008.7123   -164768.79            0    -160102.3    3997.6293 
   32900    3019.2286    -164820.5            0    -160137.7    2438.4924 
   32950    2978.1966   -164822.59            0   -160203.43    1400.1231 
   33000    2988.0854   -164829.32            0   -160194.82    5066.0903 
   33050    2991.3083   -164821.66            0   -160182.16    4102.6149 
   33100    3014.6173   -164800.97            0   -160125.32    922.66159 
   33150    3056.2369   -164794.94            0   -160054.74    5164.2809 
   33200     3010.163      -164765            0   -160096.26    4466.3855 
   33250    3007.5452   -164790.18            0    -160125.5    2666.9707 
   33300    3004.4382   -164820.59            0   -160160.73    2571.6685 
   33350    3011.1675   -164846.99            0   -160176.69    2655.9664 
   33400    2965.1964   -164823.61            0   -160224.61    579.89251 
   33450    2993.4392   -164923.42            0   -160280.62    978.17495 
   33500    2990.7447   -164884.53            0    -160245.9    852.14487 
   33550    2992.3068   -164795.53            0   -160154.49    3003.7552 
   33600      3004.35   -164792.86            0   -160133.14    2127.2211 
   33650    2993.9858    -164783.8            0   -160140.15    636.47794 
   33700    3011.7791   -164816.37            0   -160145.12     5185.269 
   33750    2982.1601   -164787.01            0   -160161.71    3368.8058 
   33800    2974.9612    -164830.8            0   -160216.66    1176.2438 
   33850    2974.5459   -164851.05            0   -160237.55    60.515164 
   33900    2974.0431   -164770.22            0    -160157.5    2019.8073 
   33950    2996.2425   -164758.49            0   -160111.34    2632.2738 
   34000    3026.2822   -164831.79            0   -160138.05    2650.4739 
   34050    3002.0941   -164854.05            0   -160197.82    1626.2474 
   34100    2989.0479    -164854.5            0   -160218.51    2773.3456 
   34150    2977.3442   -164826.22            0   -160208.38    3543.1955 
   34200     2983.058   -164800.57            0   -160173.87    2827.8399 
   34250    3051.4622   -164801.18            0   -160068.39    2975.7727 
   34300    3032.5395   -164786.48            0   -160083.04    3903.2277 
   34350    3017.1804   -164803.49            0   -160123.87    2951.7452 
   34400    3010.7646   -164860.22            0   -160190.55    2859.9028 
   34450    3012.4836    -164881.4            0   -160209.06    820.53243 
   34500    2995.1635   -164855.05            0   -160209.58    2068.8984 
   34550    2976.8579   -164808.84            0   -160191.76    2291.8742 
   34600     3024.934   -164782.37            0   -160090.72    3718.8714 
   34650    3027.3383   -164799.09            0   -160103.72     1763.887 
   34700     2995.245   -164803.13            0   -160157.52    2899.6627 
   34750    2988.2776   -164828.39            0    -160193.6     2064.772 
   34800    3008.3754   -164864.71            0   -160198.75    1949.8891 
   34850    2993.7334   -164832.52            0   -160189.27    3067.2212 
   34900    3012.3676   -164861.19            0   -160189.03    2092.9768 
   34950    3002.9818   -164853.52            0   -160195.92    3753.0817 
   35000    2984.8303   -164849.15            0    -160219.7    2476.0745 
Loop time of 154.344 on 24 procs for 10000 steps with 12000 atoms

Performance: 11.196 ns/day, 2.144 hours/ns, 64.790 timesteps/s
99.6% CPU use with 24 MPI tasks x no OpenMP threads

MPI task timing breakdown:
Section |  min time  |  avg time  |  max time  |%varavg| %total
---------------------------------------------------------------
Pair    | 144.14     | 145.81     | 147.95     |   8.8 | 94.47
Bond    | 0.0013453  | 0.0024001  | 0.0033977  |   1.1 |  0.00
Neigh   | 3.5835     | 3.7466     | 3.8484     |   2.9 |  2.43
Comm    | 1.8859     | 3.4555     | 5.1402     |  42.0 |  2.24
Output  | 0.009119   | 0.0093448  | 0.011775   |   0.5 |  0.01
Modify  | 0.42766    | 1.0988     | 2.2193     |  61.0 |  0.71
Other   |            | 0.2191     |            |       |  0.14

Nlocal:    500 ave 516 max 482 min
Histogram: 1 0 3 3 4 4 4 2 2 1
Nghost:    6352.67 ave 6409 max 6297 min
Histogram: 1 1 5 2 5 2 2 2 2 2
Neighs:    165186 ave 172749 max 157847 min
Histogram: 2 1 3 3 3 4 3 1 3 1

Total # of neighbors = 3964460
Ave neighs/atom = 330.372
Ave special neighs/atom = 0
Neighbor list builds = 976
Dangerous builds = 744

unfix thermostat_nvt

dump atoms all custom 1000000 lattice.out id type x y z c_peratom fx fy fz

reset_timestep 0

fix nve_fix all nve


thermo_modify line one format float %15.15g

variable tempsteps equal step

compute 1 all chunk/atom bin/1d ${dimension} lower ${thickness} units reduced
compute 1 all chunk/atom bin/1d z lower ${thickness} units reduced
compute 1 all chunk/atom bin/1d z lower 0.05 units reduced
fix 3 all ave/chunk 50 10 1050 1 v_temp file tmp_profile.out
fix flux all thermal/conductivity ${swapsteps} ${dimension} 20
fix flux all thermal/conductivity 50 ${dimension} 20
fix flux all thermal/conductivity 50 z 20

thermo_style custom step v_currenttime temp pe c_pe temp f_flux etotal press
WARNING: New thermo_style command, previous thermo_modify settings will be lost (../output.cpp:705)
thermo_style multi
thermo_modify line one format float %15.15g
thermo ${swapsteps}
thermo 50

variable fluxstep equal step-${tempsteps}
variable fluxstep equal step-0
variable fluxtime equal dt*v_fluxstep
variable fflux equal f_flux
variable eetotal equal etotal

fix fluxlog all print ${swapsteps} "${fluxstep} ${fluxtime} ${eetotal} ${fflux} " file flux_log.out
fix fluxlog all print 50 "${fluxstep} ${fluxtime} ${eetotal} ${fflux} " file flux_log.out

run         ${TCsteps}
run         2500000
Per MPI rank memory allocation (min/avg/max) = 9.557 | 9.569 | 9.589 Mbytes
TotEng KinEng Temp PotEng E_bond E_angle E_dihed E_impro E_vdwl E_coul E_long Press 
-160219.702426084 4629.4492917439 2984.83026312075 -164849.151717828               0               0               0               0 -12967.6717588787 -151881.479958949               0 2476.07448500021 
50 0.1 -160219.94366005 1.0755071673646 
-160219.94366005 4647.26805565363 2996.31888356293 -164867.211715704               0               0               0               0 -12925.0958531098 -151942.115862594               0 3659.21210339378 
100 0.2 -160219.860479376 2.08853042401585 
-160219.860479376 4650.02946271106 2998.09929648775 -164869.889942087               0               0               0               0 -12863.6502840993 -152006.239657988               0 4477.82380768369 
150 0.3 -160219.330777776 4.10102658843425 
-160219.330777776 4631.54753003839 2986.18309901244 -164850.878307815               0               0               0               0 -12955.3365342222 -151895.541773592               0 2811.2328259263 
200 0.4 -160219.697829107 4.45947223557976 
-160219.697829107   4649.15967288 2997.53850084086 -164868.857501987               0               0               0               0 -12920.5092485656 -151948.348253422               0 3962.38528395334 
250 0.5 -160219.923121609 6.9789302863035 
-160219.923121609 4674.99994120082 3014.19897383247 -164894.92306281               0               0               0               0 -12962.7798375014 -151932.143225309               0 3381.79675782716 
300 0.6 -160219.50139863 8.31264859531287 
-160219.50139863  4630.410403478 2985.44993842323 -164849.911802108               0               0               0               0 -13021.2400418005 -151828.671760308               0 688.956804669757 
350 0.7 -160219.262869249 8.77650295969351 
-160219.262869249 4630.96368481949 2985.80666571152 -164850.226554069               0               0               0               0 -13018.8654261897 -151831.361127879               0 1151.42914682459 
400 0.8 -160218.953913876 10.5223503019389 
-160218.953913876 4598.25566659815 2964.71822160481 -164817.209580474               0               0               0               0 -12960.5507042629 -151856.658876211               0 2515.73183424379 
450 0.9 -160219.277955979 13.0264840760675 
-160219.277955979 4623.51228923405 2981.00238994472 -164842.790245213               0               0               0               0 -12951.9380150991 -151890.852230114               0 2670.09781442047 
500 1 -160219.261745316 13.5891602964648 
-160219.261745316 4610.11860393487 2972.36683208539 -164829.380349251               0               0               0               0 -13039.6784346015 -151789.701914649               0 419.826017368526 
550 1.1 -160219.721454164 14.60473634785 
-160219.721454164 4683.34678634841 3019.58058931804 -164903.068240512               0               0               0               0 -13034.7130718061 -151868.355168706               0 1156.77122663765 
600 1.2 -160219.632573148 15.4122404180269 
-160219.632573148 4625.4267305407 2982.23672301308 -164845.059303689               0               0               0               0 -13047.0262279207 -151798.033075768               0 792.828904494393 
650 1.3 -160219.067176788 17.5904514650001 
-160219.067176788 4584.14380956559 2955.61962363232 -164803.210986354               0               0               0               0 -12981.0359845737 -151822.17500178               0 1999.82265745291 
700 1.4 -160219.47994509 18.7227514826976 
-160219.47994509 4590.8168339498 2959.92204577226 -164810.29677904               0               0               0               0 -12946.866728744 -151863.430050296               0 2801.95628918022 
750 1.5 -160218.662005355 20.845068528944 
-160218.662005355 4605.8656801855 2969.62476608275 -164824.52768554               0               0               0               0 -13001.4161727749 -151823.111512765               0 939.135006090647 
800 1.6 -160219.061422002 22.7393939832956 
-160219.061422002 4638.85577519316 2990.89507876069 -164857.917197195               0               0               0               0 -13030.9561064184 -151826.961090777               0 779.83645526068 
850 1.7 -160218.83317278 24.901515830717 
-160218.83317278 4629.76617883526 2985.03457558227 -164848.599351615               0               0               0               0 -13027.4772709208 -151821.122080694               0 -87.0029509174351 
900 1.8 -160219.222897132 25.548857702473 
-160219.222897132 4609.13409647294 2971.73207242361 -164828.356993605               0               0               0               0 -13003.7630676415 -151824.593925964               0 686.127437827006 
950 1.9 -160219.004629628 26.7497116372933 
-160219.004629628 4670.55630867749 3011.33394864309 -164889.560938305               0               0               0               0 -13103.6794141609 -151785.881524144               0 -466.139636104121 
1000 2 -160218.873177646 28.6004848764591 
-160218.873177646 4627.76739068933 2983.74586001989 -164846.640568335               0               0               0               0 -12967.6704698533 -151878.970098482               0 2223.0395516938 
1050 2.1 -160219.335299237 29.4775647935459 
-160219.335299237 4667.76698943896 3009.53553938272 -164887.102288676               0               0               0               0 -13048.4975520719 -151838.604736604               0 1493.06340169064 
1100 2.2 -160218.527694729 31.4977259776781 
-160218.527694729 4639.51814544105 2991.32214095248 -164858.04584017               0               0               0               0 -12962.4319006627 -151895.613939507               0 3070.08999533926 
1150 2.3 -160218.546470866 33.2958464842386 
-160218.546470866 4664.28264996416 3007.28901690111 -164882.82912083               0               0               0               0 -13032.4893704919 -151850.339750339               0 946.306903745592 
1200 2.4 -160218.41993169 36.0918662731684 
-160218.41993169 4667.28715219624 3009.2261650634 -164885.707083886               0               0               0               0 -13039.6329660063 -151846.07411788               0 588.327406109587 
1250 2.5 -160217.55471522 38.0735076678184 
-160217.55471522 4665.32368810932 3007.96022463338 -164882.878403329               0               0               0               0 -12962.4784262776 -151920.399977052               0 2910.74627603513 
1300 2.6 -160217.480078607 39.6571392677962 
-160217.480078607 4635.77895859966 2988.91130602584 -164853.259037207               0               0               0               0 -13015.6945601539 -151837.564477053               0 2245.20156711092 
1350 2.7 -160217.085613232 41.2836170392028 
-160217.085613232 4595.41034780393 2962.88370671762 -164812.495961036               0               0               0               0 -12888.8470411438 -151923.648919892               0 4025.06307912039 
1400 2.8 -160217.178223779 43.0814487535846 
-160217.178223779 4655.16328238772 3001.40931877563 -164872.341506167               0               0               0               0 -12999.0941291509 -151873.247377016               0 1526.3590344922 
1450 2.9 -160217.374321144 43.6055777378309 
-160217.374321144 4651.37028208939 2998.96378770595 -164868.744603233               0               0               0               0 -12944.6708031358 -151924.073800098               0 4324.66771604547 
1500 3 -160214.636254017 45.2694504216038 
-160214.636254017 4686.86574045365 3021.84942952903 -164901.501994471               0               0               0               0 -12974.6140754295 -151926.887919041               0 2443.37792738915 
1550 3.1 -160214.412563099 46.8388369403515 
-160214.412563099 4631.82357746066 2986.36108016054 -164846.236140559               0               0               0               0 -12985.2311552577 -151861.004985302               0 2189.54871230934 
1600 3.2 -160214.143932885 49.1931592829572 
-160214.143932885 4590.56276021885 2959.75823212761 -164804.706693104               0               0               0               0 -13005.4226565578 -151799.284036546               0 1459.4359839401 
1650 3.3 -160214.736138352 51.3326569398136 
-160214.736138352 4666.69145960392 3008.84209318681 -164881.427597956               0               0               0               0 -13040.5677235337 -151840.859874423               0 1215.07598954426 
1700 3.4 -160214.450971707 53.142269516916 
-160214.450971707 4637.51941431928 2990.03346215633 -164851.970386026               0               0               0               0 -12987.1168097262 -151864.8535763               0 1126.37168033949 
1750 3.5 -160214.27952857 53.6209727700559 
-160214.27952857 4647.74265279365 2996.62487933414 -164862.022181364               0               0               0               0 -12947.4920469668 -151914.530134397               0 2530.54019163203 
1800 3.6 -160214.543515231 56.0378130636916 
-160214.543515231 4670.3928436594 3011.22855482576 -164884.93635889               0               0               0               0 -12998.178888774 -151886.757470116               0 1718.94342458161 
1850 3.7 -160214.227448914 56.8367838614378 
-160214.227448914 4613.9026675038 2974.80660121263 -164828.130116418               0               0               0               0 -13025.1722602338 -151802.957856184               0 1162.24681672334 
[...]
-146669.396752892 10812.1833191802 6971.13845464358 -157481.580072073               0               0               0               0 -7923.89657282246 -149557.68349925               0 164908.452561262 
389100 778.2 -146584.281932854 11138.766097264 
-146584.281932854 10633.649744022 6856.02920848213 -157217.931676876               0               0               0               0 -7813.53991723847 -149404.391759638               0 169172.195984161 
389150 778.3 -146478.669182895 11141.9158061195 
-146478.669182895 10635.4372674229 6857.18171142722 -157114.106450318               0               0               0               0 -7817.71932839881 -149296.387121919               0 166904.490548176 
389200 778.4 -146374.662371705 11142.8331090487 
-146374.662371705 10783.9700307908 6952.94798063688 -157158.632402496               0               0               0               0 -7815.23548084255 -149343.396921653               0 167246.39437228 
389250 778.5 -146260.897420177 11143.435281034 
-146260.897420177 10876.2812090651 7012.46546990476 -157137.178629242               0               0               0               0 -7812.31738423874 -149324.861245004               0 167977.948079375 
389300 778.6 -146159.143805142 11144.2632096275 
-146159.143805142 10907.334622116 7032.48710988959 -157066.478427258               0               0               0               0 -7626.66143626591 -149439.816990992               0 173938.428246127 
389350 778.7 -146069.469399247 11147.3075179663 
-146069.469399247 10943.7666281103 7055.97658934709 -157013.236027358               0               0               0               0 -7558.98811280618 -149454.247914552               0 173905.080490386 
389400 778.8 -145950.743409674 11148.0434178806 
-145950.743409674 11021.5547217554 7106.13034228623 -156972.29813143               0               0               0               0 -7573.52450606448 -149398.773625365               0 174738.97163312 
389450 778.9 -145856.235422615 11148.6234760891 
-145856.235422615 11019.0379989386 7104.50768914674 -156875.273421553               0               0               0               0 -7462.23128789099 -149413.042133662               0 177063.329394978 
389500 779 -145745.945546315 11149.6342628616 
-145745.945546315 11177.2462469799 7206.51221211905 -156923.191793295               0               0               0               0 -7582.17869058053 -149341.013102714               0 175847.272143783 
389550 779.1 -145636.305347033 11152.3228318985 
-145636.305347033 11203.7201480162 7223.58121882291 -156840.025495049               0               0               0               0 -7618.72097990521 -149221.304515143               0 175925.716554281 
389600 779.2 -145529.158733394 11153.1730188006 
-145529.158733394 11152.4587451777 7190.53050871033 -156681.617478571               0               0               0               0 -7375.12848682836 -149306.488991743               0 180561.058108245 
389650 779.3 -145417.771827608 11155.8611497082 
-145417.771827608 11252.4459785656 7254.99712262793 -156670.217806173               0               0               0               0 -7649.01708076817 -149021.200725405               0 174041.459555172 
389700 779.4 -145316.925276817 11159.2495480491 
-145316.925276817 11264.3946381232 7262.70100237774 -156581.31991494               0               0               0               0 -7171.04314300182 -149410.276771939               0 184214.830147802 
389750 779.5 -145224.769710441 11160.7293171137 
-145224.769710441 11337.9058872826 7310.09726645648 -156562.675597724               0               0               0               0 -7376.59971801685 -149186.075879707               0 181092.170166342 
389800 779.6 -145124.966875592 11163.3317600492 
-145124.966875592 11466.3310560342 7392.89919516965 -156591.297931626               0               0               0               0 -7277.91074880276 -149313.387182823               0 185665.801651256 
389850 779.7 -145009.471472165 11166.3804691095 
-145009.471472165 11508.8216515103 7420.29494081506 -156518.293123675               0               0               0               0 -7149.1296498392 -149369.163473836               0 188801.537568169 
389900 779.8 -144883.625930319 11168.9839485317 
-144883.625930319  11549.79030613 7446.70941744979 -156433.416236449               0               0               0               0 -7119.50717062443 -149313.909065825               0 189737.035150432 
389950 779.9 -144749.692159617 11171.639406281 
-144749.692159617 11703.9412843342 7546.0980219765 -156453.633443952               0               0               0               0 -7364.36497247758 -149089.268471474               0 185003.844215809 
390000 780 -144655.178164971 11172.7697479544 
-144655.178164971 11767.3283456398 7586.96673161166 -156422.506510611               0               0               0               0 -7199.50307180247 -149223.003438808               0 187721.889836172 
390050 780.1 -144561.911572526 11175.9958417783 
-144561.911572526 11766.3769762654 7586.35333768055 -156328.288548791               0               0               0               0 -6988.10505257461 -149340.183496216               0 194171.922132698 
390100 780.2 -144448.169990326 11179.6787796326 
-144448.169990326 11828.924279489 7626.68061459256 -156277.094269815               0               0               0               0 -7015.14614827181 -149261.948121543               0 192858.02660989 
390150 780.3 -144326.923293425 11180.3799400932 
-144326.923293425 11792.4846582202 7603.18622519861 -156119.407951645               0               0               0               0 -6941.63273620544 -149177.77521544               0 194955.503083523 
390200 780.4 -144206.560629105 11182.1445625981 
-144206.560629105 11915.6797609127 7682.61607691782 -156122.240390018               0               0               0               0 -7027.04637830723 -149095.194011711               0 193393.117093316 
390250 780.5 -144048.82347207 11185.1540615212 
-144048.82347207 11984.7596225813 7727.15521077297 -156033.583094651               0               0               0               0 -6945.28435244016 -149088.298742211               0 196047.292185841 
390300 780.6 -143937.350991593 11187.9633940891 
-143937.350991593 12177.7452514122 7851.58239616396 -156115.096243006               0               0               0               0 -7027.72008652122 -149087.376156484               0 197038.046852397 
390350 780.7 -143802.364936371 11188.4789519869 
-143802.364936371 12204.3529421311 7868.73766355853 -156006.717878502               0               0               0               0 -6939.81425426635 -149066.903624236               0 199330.058231071 
390400 780.8 -143638.977051665 11189.2547562541 
-143638.977051665 12243.3667191834 7893.89173590836 -155882.343770848               0               0               0               0 -6801.64860052293 -149080.695170325               0 199955.694479673 
390450 780.9 -143485.954193754 11192.287920049 
-143485.954193754 12218.4430792916 7877.82225767717 -155704.397273046               0               0               0               0 -6499.54828341162 -149204.848989634               0 208168.916462283 
390500 781 -143349.790269098 11195.7795993204 
-143349.790269098 12356.9450125233 7967.12116468707 -155706.735281621               0               0               0               0 -6559.45151829423 -149147.283763327               0 207683.171462811 
390550 781.1 -143162.714747369 11197.4233356127 
-143162.714747369 12476.7374083109 8044.35712639776 -155639.45215568               0               0               0               0 -6598.17917395566 -149041.272981725               0 208384.415324278 
390600 781.2 -143008.381571286 11198.5642602275 
-143008.381571286 12649.3791402066 8155.66761573802 -155657.760711492               0               0               0               0 -6445.56018258176 -149212.200528911               0 213300.578707952 
390650 781.3 -142869.041866976 11202.0975083348 
-142869.041866976 12642.0351762656 8150.93260635763 -155511.077043242               0               0               0               0 -6655.56892999819 -148855.508113244               0 209065.561246786 
390700 781.4 -142693.333793677 11202.987347441 
-142693.333793677 12662.4058328064 8164.06655562259 -155355.739626484               0               0               0               0 -6421.17050705503 -148934.569119429               0 215342.28732195 
390750 781.5 -142529.869573596 11204.7593542008 
-142529.869573596 12876.6512168062 8302.20093524249 -155406.520790402               0               0               0               0 -6432.700941556 -148973.819848846               0 216516.463203274 
390800 781.6 -142293.846804683 11206.1621383802 
-142293.846804683 12998.5909419749 8380.82138424689 -155292.437746658               0               0               0               0 -6295.52748302293 -148996.910263635               0 220090.860004766 
390850 781.7 -142108.471170204 11206.8412397191 
-142108.471170204 13090.9971599556 8440.40015021833 -155199.46833016               0               0               0               0 -6185.35877572291 -149014.109554437               0 223084.063041218 
390900 781.8 -141873.203802696 11208.8990047577 
-141873.203802696 13287.5739044485 8567.14270187225 -155160.777707144               0               0               0               0 -6338.39572990308 -148822.381977241               0 221536.570995795 
390950 781.9 -141722.585890101 11210.1674273183 
-141722.585890101 13275.969788608 8559.66096615061 -154998.555678709               0               0               0               0 -6081.77776719274 -148916.777911516               0 229382.277923893 
391000 782 -141483.952558353 11213.1693093728 
-141483.952558353 13535.3142944334 8726.87293474101 -155019.266852786               0               0               0               0 -6193.18739012577 -148826.079462661               0 227177.849020389 
391050 782.1 -141255.099247186 11214.635851206 
-141255.099247186 13661.1495107186 8808.00499561141 -154916.248757905               0               0               0               0 -6138.38016502777 -148777.868592877               0 227596.78949262 
391100 782.2 -141017.221648222 11217.7250177867 
-141017.221648222  13686.98030936 8824.65936304193 -154704.201957582               0               0               0               0 -6020.45389582043 -148683.748061761               0 232739.503001923 
391150 782.3 -140753.39468679 11221.3761463327 
-140753.39468679 13764.8136266806 8874.84227387582 -154518.208313471               0               0               0               0 -5811.16112116587 -148707.047192305               0 236180.510803045 
391200 782.4 -140535.279095991 11222.1490749771 
-140535.279095991 14024.4749872152 9042.25853404935 -154559.754083206               0               0               0               0 -5847.03448631408 -148712.719596892               0 237496.821376002 
391250 782.5 -140260.220537311 11224.9065216213 
-140260.220537311 14090.2422660773 9084.6618852688 -154350.462803389               0               0               0               0 -5883.29586636033 -148467.166937028               0 237705.496996204 
391300 782.6 -139977.74689182 11225.4630875984 
-139977.74689182 14417.9661898206 9295.96137769057 -154395.713081641               0               0               0               0 -5629.38092026418 -148766.332161377               0 245373.77661319 
391350 782.7 -139654.303824884 11230.3397879056 
-139654.303824884 14541.9803671697 9375.91932652647 -154196.284192054               0               0               0               0 -5610.03028684177 -148586.253905212               0 245605.394703688 
391400 782.8 -139314.79808281 11231.0329504833 
-139314.79808281 14820.6127606209 9555.56713080029 -154135.410843431               0               0               0               0 -5736.95022989042 -148398.460613541               0 246020.96227548 
391450 782.9 -138957.920121656 11232.1390413744 
-138957.920121656 14985.2830484045 9661.7380438914 -153943.20317006               0               0               0               0 -5465.65944522873 -148477.543724832               0 253176.026906521 
391500 783 -138659.396220059 11236.0393650374 
-138659.396220059 15099.6470758971 9735.47407354852 -153759.043295956               0               0               0               0 -5404.46669748921 -148354.576598467               0 256779.350886071 
391550 783.1 -138380.446783154 11236.9663204479 
-138380.446783154 15182.0383908536 9788.59574630104 -153562.485174008               0               0               0               0 -5277.96193779493 -148284.523236213               0 257468.902145778 
391600 783.2 -137977.569150579 11239.9849334308 
-137977.569150579 15532.7460280478 10014.7139523848 -153510.315178627               0               0               0               0 -5135.36639312691 -148374.9487855               0 265575.645143001 
391650 783.3 -137437.165437983 11241.9566794263 
-137437.165437983 15858.301870486 10224.6155777419 -153295.467308468               0               0               0               0 -5086.87763986019 -148208.589668608               0 268301.73731006 
391700 783.4 -136934.240068857 11243.3741274167 
-136934.240068857 16291.1311867299 10503.6816092447 -153225.371255587               0               0               0               0 -5027.77605314293 -148197.595202444               0 273519.222588201 
391750 783.5 -136373.020751502 11246.4044024193 
-136373.020751502 16507.9374620476 10643.4671195768 -152880.95821355               0               0               0               0 -4803.94995481152 -148077.008258738               0 280183.633286363 
391800 783.6 -135874.544070634 11248.3536574995 
-135874.544070634 16795.6093124486 10828.9430997233 -152670.153383082               0               0               0               0 -4542.42817636727 -148127.725206715               0 289472.645370421 
391850 783.7 -135290.340950274 11249.9158496026 
-135290.340950274 17280.4184061961 11141.5230122919 -152570.75935647               0               0               0               0 -4406.50217206956 -148164.257184401               0 296557.433708422 
391900 783.8 -134623.73852749 11253.5000862087 
-134623.73852749 17595.4421250711 11344.6340672883 -152219.180652561               0               0               0               0 -4317.13674074266 -147902.043911818               0 300703.76150518 
391950 783.9 -133930.076375063 11255.59669228 
-133930.076375063 17843.3730726281 11504.4871618567 -151773.449447691               0               0               0               0 -4070.33499658353 -147703.114451107               0 307104.640785577 
392000 784 -133043.027595688 11260.0429100551 
-133043.027595688 18620.6536815513 12005.6376310039 -151663.681277239               0               0               0               0 -4111.26643693327 -147552.414840306               0 313033.414370209 
392050 784.1 -132133.816909382 11264.1859785284 
-132133.816909382 19083.8447838247 12304.2793770404 -151217.661693207               0               0               0               0 -3670.05339202944 -147547.608301178               0 326111.616964818 
392100 784.2 -131363.334677053 11266.7613249601 
-131363.334677053 19580.8527177858 12624.7244729493 -150944.187394838               0               0               0               0 -3648.09549674222 -147296.091898096               0 332539.069907303 
392150 784.3 -130304.10846486 11271.434414253 
-130304.10846486 20435.4759075578 13175.7414513501 -150739.584372418               0               0               0               0 -3281.52269752455 -147458.061674893               0 344149.855569804 
392200 784.4 -129239.028749975 11273.5311590289 
-129239.028749975 20897.6813918624 13473.7477217272 -150136.710141837               0               0               0               0 -3220.57214649954 -146916.137995338               0 350648.152162345 
392250 784.5 -128044.719201824 11276.8558689826 
-128044.719201824 21980.2021236773 14171.7012875087 -150024.921325501               0               0               0               0 -2870.33789368057 -147154.58343182               0 367072.091430984 
392300 784.6 -126546.617451932 11279.0630300128 
-126546.617451932 22473.7246576053 14489.8991771426 -149020.342109538               0               0               0               0 -2426.57700931245 -146593.765100225               0  383305.3490202 
392350 784.7 -124880.140815126 11281.9554930773 
-124880.140815126 23958.7499991992 15447.366966885 -148838.890814325               0               0               0               0 -2077.06781728722 -146761.822997038               0 399257.436156889 
392400 784.8 -122915.187176704 11285.399110145 
-122915.187176704 25253.3206405806 16282.0393835446 -148168.507817284               0               0               0               0 -1753.4138485461 -146415.093968738               0 418432.265095609 
392450 784.9 -121001.412476446 11286.9092753952 
-121001.412476446 26527.5136127637 17103.5733295391 -147528.92608921               0               0               0               0 -1576.1170834763 -145952.809005734               0 433366.168467228 
392500 785 -118574.213273469 11292.4453230869 
-118574.213273469 28001.3408021787 18053.8211280022 -146575.554075648               0               0               0               0 -500.949397295898 -146074.604678352               0 471241.963133184 
392550 785.1 -115603.180440292 11296.0879401328 
-115603.180440292 30148.9089835626 19438.4623878906 -145752.089423854               0               0               0               0 -167.467973917306 -145584.621449937               0 491619.069292772 
392600 785.2 -112206.357241995 11299.9154079893 
-112206.357241995 32924.6292374519 21228.1037239652 -145130.986479447               0               0               0               0 519.382931105787 -145650.369410553               0 529818.19015126 
392650 785.3 -108458.876682184 11300.7600228511 
-108458.876682184 34864.0313233868 22478.5302161144 -143322.908005571               0               0               0               0 1499.73629529992 -144822.644300871               0 563341.659703592 
392700 785.4 -104069.80532659 11304.8317751983 
-104069.80532659 37963.0200480139 24476.5983981837 -142032.825374604               0               0               0               0 2558.47209099478 -144591.297465598               0 613023.591691434 
392750 785.5 -98770.3126431723 11309.5780134763 
-98770.3126431723 42257.4101864538 27245.3997909805 -141027.722829626               0               0               0               0 3102.67598980784 -144130.398819434               0 657583.123178725 
392800 785.6 -92577.460989987 11310.8784247075 
-92577.460989987 47275.4509296368 30480.7737907643 -139852.911919624               0               0               0               0 3875.44323947507 -143728.355159099               0 711815.359290855 
392850 785.7 -86054.3467365256 11314.6947126676 
-86054.3467365256 51482.131334971 33193.0244689413 -137536.478071497               0               0               0               0 5975.04273152298 -143511.52080302               0 786977.362266784 
392900 785.8 -78137.6861387114 11316.7472956889 
-78137.6861387114 57748.5577280368 37233.2931836237 -135886.243866748               0               0               0               0 6485.07883417713 -142371.322700925               0 846247.849397106 
392950 785.9 -67829.454330929 11320.7116363394 
-67829.454330929 65290.591212008 42096.0075951574 -133120.045542937               0               0               0               0 8819.45180923719 -141939.497352174               0 950427.25844361 
393000 786 -54580.8243565484 11322.0838424939 
ERROR: Lost atoms: original 12000 current 11997 (../thermo.cpp:441)
Last command: run         ${TCsteps}
