LAMMPS data file via write_data, version 18 Jun 2019, timestep = 31000

320 atoms
5 atom types

-9.0066340399800051e+00 9.0066340399800051e+00 xlo xhi
-7.2053072319840252e+00 7.2053072319840252e+00 ylo yhi
-7.2053072319840252e+00 7.2053072319840252e+00 zlo zhi

Masses

1 58.933
2 58.69
3 51.96
4 55.847
5 54.94

Atoms # atomic

1 4 -8.9544918967669798e+00 -5.3310560175391490e+00 -5.5253351566492785e+00 0 0 0
2 1 -8.9294545005245993e+00 -7.0509181370768932e+00 -7.1863858399050846e+00 0 0 0
3 1 -7.1397915891590085e+00 7.1289414175531007e+00 -5.4258434929719845e+00 0 -1 0
4 1 -7.3327333410718243e+00 -5.2914396023115708e+00 7.1888760273700631e+00 0 0 -1
82 4 8.9685820550033544e+00 7.1670857564517183e+00 -3.5767328022373164e+00 -1 -1 0
84 1 -7.2938120462844873e+00 -5.3213065980959726e+00 -3.7264713265394587e+00 0 0 0
22 5 8.9169108288622461e+00 -3.5250068889760566e+00 -7.1291031325800081e+00 -1 0 0
23 2 -7.3625979550699894e+00 -3.5605898116726302e+00 -5.3364240028570364e+00 0 0 0
102 1 8.9453492651686233e+00 -3.5736352297942071e+00 -3.5681365302792623e+00 -1 0 0
5 2 -5.4400619548742792e+00 -5.4886695237474745e+00 -5.3276845778734749e+00 0 0 0
6 1 -5.3703330620354732e+00 -7.1622531906716311e+00 7.1680058356324894e+00 0 0 -1
86 4 -5.3833994095573567e+00 -7.1926815430866542e+00 -3.4475173094896698e+00 0 0 0
26 5 -5.3036071753213152e+00 -3.6132339627702379e+00 -7.1984742630130372e+00 0 0 0
106 5 -5.4732387612385986e+00 -3.7108032933265367e+00 -3.5140903833505166e+00 0 0 0
7 5 -3.6014871784961193e+00 -7.1076491999221023e+00 -5.2814506843367868e+00 0 0 0
8 2 -3.6741795053357258e+00 -5.4416561319917767e+00 -7.1255518765482435e+00 0 0 0
88 1 -3.5380546371913115e+00 -5.3954230128836453e+00 -3.4833610316182169e+00 0 0 0
27 5 -3.5025174003797845e+00 -3.5087437273005215e+00 -5.2689402454380483e+00 0 0 0
9 3 -1.8229334703119453e+00 -5.3603595395770069e+00 -5.2564635042931274e+00 0 0 0
10 5 -1.7675784195067761e+00 -7.1223445767061238e+00 7.1748034716705620e+00 0 0 -1
11 5 -2.6440481434355595e-02 7.1504753134292542e+00 -5.5075599071641612e+00 0 -1 0
12 2 -3.9922353115058110e-02 -5.4764733025503523e+00 7.1866352385968737e+00 0 0 -1
90 4 -1.8477020449690365e+00 7.1995095487160503e+00 -3.5707334497184435e+00 0 -1 0
92 1 5.0776384255301260e-02 -5.4910077029645690e+00 -3.5764369107864504e+00 0 0 0
30 5 -1.8690308214824030e+00 -3.7794680436027956e+00 -7.1957116112669190e+00 0 0 0
31 2 -6.8242590327341562e-02 -3.6035158016833178e+00 -5.4853558119547472e+00 0 0 0
110 2 -1.7201033159185162e+00 -3.6195708961579482e+00 -3.5424998614865308e+00 0 0 0
13 4 1.7501794295335922e+00 -5.4603056775888446e+00 -5.5050863860977293e+00 0 0 0
14 5 1.8541164579505660e+00 -7.1950736478079316e+00 7.1001780700615136e+00 0 0 -1
15 1 3.5907434936301925e+00 7.1759910493228194e+00 -5.4403241676942518e+00 0 -1 0
16 1 3.6039489933511000e+00 -5.3872922550187452e+00 7.1764814309047145e+00 0 0 -1
94 5 1.8034088821686776e+00 -7.1538435458558238e+00 -3.5675636102574040e+00 0 0 0
96 2 3.5406541062623060e+00 -5.3959015621241999e+00 -3.5918783695328482e+00 0 0 0
34 2 1.8230122573324816e+00 -3.6635820314291867e+00 7.1612402708644050e+00 0 0 -1
35 1 3.5062728524052256e+00 -3.5669424658635611e+00 -5.4599431201672228e+00 0 0 0
114 5 1.7719080796742850e+00 -3.6946293325595376e+00 -3.8143350226099941e+00 0 0 0
17 5 5.3585439983151160e+00 -5.5349570272322293e+00 -5.4570433175780968e+00 0 0 0
18 2 5.3945737292223841e+00 7.1109149666068427e+00 -7.1282956804311715e+00 0 -1 0
19 4 7.1624893042334525e+00 7.1831240857669538e+00 -5.3594792528532107e+00 0 -1 0
20 1 7.0841363610164798e+00 -5.4271875030352588e+00 7.1835700520909036e+00 0 0 -1
98 4 5.3410373273477232e+00 7.1381285844815263e+00 -3.6257669678007192e+00 0 -1 0
100 4 7.2152824594578648e+00 -5.5224007572692484e+00 -3.6929858125746136e+00 0 0 0
38 4 5.3463447191200091e+00 -3.7450925668836992e+00 7.1910561686051411e+00 0 0 -1
39 4 7.2818234799794253e+00 -3.5459261843476160e+00 -5.4770034155653331e+00 0 0 0
118 2 5.2544072316570212e+00 -3.6418000959391010e+00 -3.7052101774729009e+00 0 0 0
21 1 8.9592018911308653e+00 -1.7834724834771167e+00 -5.4146433742095033e+00 -1 0 0
24 4 -7.2549144250452313e+00 -1.8077091461456802e+00 -7.1711766740683753e+00 0 0 0
104 4 -7.1996816519206028e+00 -1.7728668957635962e+00 -3.6737430682144119e+00 0 0 0
41 4 -8.9504710423416061e+00 1.7934705415214971e+00 -5.3607072786922636e+00 0 0 0
42 1 8.9405003591020904e+00 5.3142663212930145e-02 -7.0374115965042900e+00 -1 0 0
43 1 -7.1869483802425540e+00 9.5043308153245395e-02 -5.3477976175616142e+00 0 0 0
44 1 -7.1491373651204784e+00 1.8767782292035551e+00 -7.1631970355658492e+00 0 0 0
122 2 -8.9578574321902362e+00 -1.3431523253995281e-01 -3.5795344241038389e+00 0 0 0
124 4 -7.1306982794040445e+00 1.7169083269889094e+00 -3.5984564515186244e+00 0 0 0
25 2 -5.3552607766391196e+00 -1.8269008520708634e+00 -5.4112692811413936e+00 0 0 0
45 1 -5.5550957486977870e+00 1.9134415024328091e+00 -5.3296933332535374e+00 0 0 0
46 5 -5.5497784636183303e+00 1.2954899393634647e-01 -7.1153096224396286e+00 0 0 0
126 1 -5.3727853020563439e+00 -1.2207393069730145e-01 -3.6726664639561464e+00 0 0 0
28 3 -3.6725494408864638e+00 -1.8892341185730210e+00 7.0270834011019634e+00 0 0 -1
108 5 -3.6141395758739425e+00 -1.7952848229309739e+00 -3.4237416399800020e+00 0 0 0
47 3 -3.7044606304450118e+00 1.7221271260425955e-02 -5.3746756680611556e+00 0 0 0
48 3 -3.7635979441493546e+00 1.7293025533538493e+00 -7.1957361352236662e+00 0 0 0
128 5 -3.8026696549669081e+00 1.6376010020314866e+00 -3.5189523530415010e+00 0 0 0
29 3 -1.8471508249502759e+00 -1.7840969587599820e+00 -5.4238284126973602e+00 0 0 0
32 3 -1.1275471884913357e-02 -1.9173020845758084e+00 7.1417278447863533e+00 0 0 -1
112 5 1.5336157919250662e-01 -1.8349148852827399e+00 -3.4934302427433392e+00 0 0 0
49 3 -1.7701222909281065e+00 1.7962494180261033e+00 -5.4445440939536836e+00 0 0 0
50 3 -1.8854760357184150e+00 -2.8183185161661212e-02 7.1211626714453855e+00 0 0 -1
51 3 -2.1719535808414177e-02 -1.4500690833295868e-01 -5.4809956017048611e+00 0 0 0
52 3 5.3864542767208680e-02 1.8556810987521939e+00 7.0095090853225184e+00 0 0 -1
130 3 -1.8679290110277611e+00 -1.0839437536438233e-02 -3.3988932387040922e+00 0 0 0
132 3 1.2913730274309605e-02 1.6418792117035803e+00 -3.6501098545710313e+00 0 0 0
33 5 1.8737896586361460e+00 -1.8987620037502704e+00 -5.5279595403815014e+00 0 0 0
36 1 3.6014944824873183e+00 -1.8780974822629555e+00 7.0945501498643120e+00 0 0 -1
116 3 3.6063612386606181e+00 -1.9663793070951190e+00 -3.7019495339870803e+00 0 0 0
53 5 1.5618876556597783e+00 1.7322090888895811e+00 -5.4688684561004388e+00 0 0 0
54 3 1.8070543074395997e+00 3.7833365324246575e-02 7.1535978605675341e+00 0 0 -1
55 3 3.7834762229624044e+00 5.5505952009477950e-02 -5.5980136018638360e+00 0 0 0
56 5 3.6389644712296607e+00 1.9287571737698146e+00 7.0439144608868922e+00 0 0 -1
134 3 1.9052417679491480e+00 -1.6027932285743878e-02 -3.5080708755635723e+00 0 0 0
136 3 3.7281297547353760e+00 1.8000716807459409e+00 -3.5848043531562142e+00 0 0 0
37 2 5.2988053551718624e+00 -1.8176827916634815e+00 -5.5217556229456903e+00 0 0 0
40 5 7.2254582846101929e+00 -1.7562879175506017e+00 7.0516448960727693e+00 0 0 -1
120 5 7.1476041819962219e+00 -1.9067508791085772e+00 -3.7069977525045008e+00 0 0 0
57 1 5.3302396388310251e+00 1.8036976613770341e+00 -5.4629239374922500e+00 0 0 0
58 2 5.5983032835723501e+00 6.0018431415541799e-02 7.1983256553931154e+00 0 0 -1
59 5 7.1568753285266595e+00 2.8593202638642456e-02 -5.3357755762063617e+00 0 0 0
60 4 7.0983218945553554e+00 1.8679491541736057e+00 7.1571177898189031e+00 0 0 -1
138 5 5.3521122624647006e+00 -3.8201673226798821e-02 -3.6268527468775575e+00 0 0 0
140 4 7.2811074228674366e+00 1.8721093730264122e+00 -3.5968916084459068e+00 0 0 0
61 4 -8.8930120539231901e+00 5.4324633183001731e+00 -5.4349320718435212e+00 0 0 0
62 4 9.0036587280132547e+00 3.5931929556470585e+00 7.1867137684852480e+00 -1 0 -1
63 5 -7.0853004461254301e+00 3.6813865094660723e+00 -5.3796189786043440e+00 0 0 0
64 5 -7.0482412019646477e+00 5.4370958007019299e+00 -7.1126235584646968e+00 0 0 0
142 2 8.9201262043586524e+00 3.6673266658234196e+00 -3.5998150280908563e+00 -1 0 0
144 4 -7.1459133520126636e+00 5.4870212428837650e+00 -3.5444958314184447e+00 0 0 0
65 1 -5.4208639709319097e+00 5.3965169689549581e+00 -5.3361994731010025e+00 0 0 0
66 2 -5.3321383909314770e+00 3.6487048322345004e+00 -7.1045992061695857e+00 0 0 0
146 5 -5.3916684831550468e+00 3.5961180138228506e+00 -3.5158991243882012e+00 0 0 0
67 2 -3.5789936208415329e+00 3.6323204836037561e+00 -5.3869705426120840e+00 0 0 0
68 4 -3.5714739763744587e+00 5.4909111610665109e+00 -7.1356832073143455e+00 0 0 0
148 1 -3.6332532096714130e+00 5.4144949629324444e+00 -3.5350595483888432e+00 0 0 0
69 2 -1.9533075911843734e+00 5.4307971206474601e+00 -5.3461237679391056e+00 0 0 0
70 5 -1.9470655867654831e+00 3.7618428638829160e+00 7.1587738443056832e+00 0 0 -1
71 3 3.3819766908804588e-02 3.7829851458212986e+00 -5.4021771928905835e+00 0 0 0
72 3 -9.5262483156753050e-02 5.3368521743720558e+00 7.1357692136469364e+00 0 0 -1
150 5 -1.8211563917756777e+00 3.6719562426400816e+00 -3.6378231391171325e+00 0 0 0
152 3 1.0544847972083847e-01 5.3697343993263376e+00 -3.5411837099377372e+00 0 0 0
73 3 1.8987526205523886e+00 5.4924690292859228e+00 -5.3174839211698917e+00 0 0 0
74 5 1.7733438882757608e+00 3.5796696388880815e+00 7.0842070148053260e+00 0 0 -1
75 3 3.4792737406360130e+00 3.5607606549362276e+00 -5.4878011811094085e+00 0 0 0
76 2 3.5841072715300220e+00 5.4278838661163054e+00 7.1463786773591584e+00 0 0 -1
154 3 1.7652445039246649e+00 3.5328321831525860e+00 -3.4831321468668421e+00 0 0 0
156 5 3.5628324769321789e+00 5.3784137887328498e+00 -3.7041853448394422e+00 0 0 0
77 4 5.4507607720276470e+00 5.3173361239674950e+00 -5.3454413809462880e+00 0 0 0
78 1 5.4310399920616064e+00 3.8155520860265657e+00 7.2002257193520371e+00 0 0 -1
79 1 7.2296201420087334e+00 3.6623737363762077e+00 -5.3961990535322499e+00 0 0 0
80 4 7.3350487962985476e+00 5.3341217987916050e+00 -7.0948357005273008e+00 0 0 0
158 4 5.4335770549768183e+00 3.6593501163195268e+00 -3.5720781911723267e+00 0 0 0
160 1 7.1710462001814461e+00 5.3233774162033471e+00 -3.5886366970627801e+00 0 0 0
81 1 -8.9950722650085844e+00 -5.2923324465168786e+00 -1.8054440558744211e+00 0 0 0
83 4 -7.2884013630774538e+00 -7.1776267576960642e+00 -1.7271722381306045e+00 0 0 0
161 4 -8.9681463226690266e+00 -5.4825104493000554e+00 1.8244766279441162e+00 0 0 0
162 5 -8.9502671256926991e+00 -7.2020893250620688e+00 5.6606806780401489e-02 0 0 0
163 1 -7.1734295593487847e+00 -7.1783354988233290e+00 1.6941749174502221e+00 0 0 0
164 2 -7.2925340504557070e+00 -5.3480135192546001e+00 1.9643349505651775e-01 0 0 0
103 1 -7.2426451563286367e+00 -3.6893773652895918e+00 -1.8756658838969162e+00 0 0 0
182 5 8.9424767187955130e+00 -3.5616610828444371e+00 3.9188856860210605e-02 -1 0 0
183 2 -7.2119512870984259e+00 -3.5227085983809192e+00 1.7994197059407240e+00 0 0 0
85 4 -5.4499903767027540e+00 -5.3139257441505547e+00 -1.8348631307758561e+00 0 0 0
165 5 -5.4723247566626831e+00 -5.3946525164615959e+00 1.8841431342738300e+00 0 0 0
166 4 -5.4864772180000356e+00 -7.1153456030944975e+00 -7.1209863488379974e-02 0 0 0
186 1 -5.4267328099183398e+00 -3.6928018212011851e+00 1.0713849823462678e-01 0 0 0
87 1 -3.6841415583479673e+00 -7.1663548492151659e+00 -1.8039193783343572e+00 0 0 0
167 2 -3.7419316269170091e+00 7.1834625541945130e+00 1.7750714524442230e+00 0 -1 0
168 3 -3.6528706388646399e+00 -5.3973335781534297e+00 -3.3739506210706011e-02 0 0 0
107 2 -3.5608112876912474e+00 -3.5839960292663484e+00 -1.8676608285173675e+00 0 0 0
187 2 -3.6169971045562659e+00 -3.6014867725977640e+00 1.8571086935698937e+00 0 0 0
89 5 -1.8444151233114168e+00 -5.5192047368744257e+00 -1.9042611043061104e+00 0 0 0
91 2 8.8604199168769979e-02 -7.1668345060628162e+00 -1.8217829958082397e+00 0 0 0
169 5 -1.8220435444169250e+00 -5.3611286657327382e+00 1.8495253587841598e+00 0 0 0
170 4 -1.8465040433447586e+00 7.1838912124486534e+00 3.6703272167940837e-02 0 -1 0
171 5 -1.4222022506429085e-02 6.9659116690822867e+00 1.8152850831573193e+00 0 -1 0
172 3 2.4416910321330122e-02 -5.3925846851707524e+00 1.5543208365352243e-01 0 0 0
111 2 -3.1413227011429977e-02 -3.7598834591687176e+00 -1.8647079623443070e+00 0 0 0
190 3 -1.7687993225510237e+00 -3.6809706180871800e+00 -2.9946174709848991e-02 0 0 0
191 2 -1.4301140648267494e-02 -3.5804308388382684e+00 1.8806414463082572e+00 0 0 0
93 5 1.8878853692701143e+00 -5.3653696656183554e+00 -1.8731133998569918e+00 0 0 0
95 2 3.6651336655969962e+00 7.2025286311954515e+00 -1.7708896910809133e+00 0 -1 0
173 3 1.8950962890284391e+00 -5.4019170704611330e+00 1.8083641551848744e+00 0 0 0
174 5 1.8513637730126073e+00 7.1413691129932912e+00 -1.0549718812210913e-01 0 -1 0
175 1 3.6944429294212289e+00 -7.1835202518951684e+00 1.8700484694305377e+00 0 0 0
176 5 3.6816869264613015e+00 -5.3936429202230656e+00 8.0020926369203133e-02 0 0 0
115 3 3.7120045816565415e+00 -3.6964917570349645e+00 -1.7531409221326357e+00 0 0 0
194 2 1.8397573056487102e+00 -3.6917453431505263e+00 8.4490887657292180e-02 0 0 0
195 2 3.6038430600169136e+00 -3.5121287835372126e+00 1.8389000396530721e+00 0 0 0
97 5 5.5383707514867817e+00 -5.5089458861866953e+00 -1.9393402442484780e+00 0 0 0
99 2 7.3500807160418224e+00 -7.1881468937571400e+00 -1.7708379907579659e+00 0 0 0
177 1 5.3947811981185527e+00 -5.2485283652345593e+00 1.8560078841334311e+00 0 0 0
178 4 5.4138897734713982e+00 -7.0628146500568851e+00 1.3652559566858760e-01 0 0 0
179 5 7.1576516745297196e+00 -7.1213591848187532e+00 2.0322143270927686e+00 0 0 0
180 2 7.3347982892093855e+00 -5.3392834832814842e+00 -3.5999366229572102e-02 0 0 0
119 2 7.1805722639852547e+00 -3.4907741189294526e+00 -1.7513393658933669e+00 0 0 0
198 3 5.6349738360474868e+00 -3.7193725810787313e+00 -5.3907307562681535e-02 0 0 0
199 1 7.2818587871709584e+00 -3.5830871411969261e+00 1.8188581153015118e+00 0 0 0
101 1 8.9700801005960411e+00 -1.7979859698260652e+00 -1.7357998256228242e+00 -1 0 0
181 1 -8.9728909151111456e+00 -1.7994920928527289e+00 1.8905699759098251e+00 0 0 0
184 4 -7.2631635330560975e+00 -1.8281536382864352e+00 -2.3057220797665916e-02 0 0 0
121 4 -9.0043572403037953e+00 1.6917877480590062e+00 -1.7278673681746504e+00 0 0 0
123 4 -7.2324088130655673e+00 3.9347712692750302e-02 -1.9062603329903103e+00 0 0 0
201 4 -9.0062875074425772e+00 1.8912443755719890e+00 1.8579484987581134e+00 0 0 0
202 2 8.9919098367206853e+00 1.3305235109472185e-02 5.4501918178911507e-02 -1 0 0
203 5 -7.1274823947333523e+00 -1.1129389276500309e-01 1.7816098093557591e+00 0 0 0
204 1 -7.2598086068484182e+00 1.6616893647532975e+00 -9.0888383015628904e-02 0 0 0
105 4 -5.5085859664062271e+00 -1.9589655744195598e+00 -1.6619969016284526e+00 0 0 0
185 2 -5.4864677810445199e+00 -1.7842129468567003e+00 1.8808159227639958e+00 0 0 0
125 1 -5.4861878661855608e+00 1.6671609573534427e+00 -1.6823160943351942e+00 0 0 0
205 2 -5.4174918872576505e+00 1.7546748656790052e+00 1.7287260570228071e+00 0 0 0
206 2 -5.5223065524558752e+00 -1.4165779905183132e-01 3.0332722514929435e-02 0 0 0
188 5 -3.7616315013955499e+00 -1.9081020833830082e+00 -1.1883594701621041e-01 0 0 0
127 3 -3.7511115319195336e+00 -2.9024879296538023e-03 -1.7934347540174036e+00 0 0 0
207 1 -3.6019132304858759e+00 -8.5029358882932518e-02 1.7833467107957872e+00 0 0 0
208 5 -3.4966309214052282e+00 1.8642694573966723e+00 1.4761350259600280e-02 0 0 0
109 2 -1.7911842396749955e+00 -1.7988282066707884e+00 -1.7429943971219128e+00 0 0 0
189 3 -1.7996794032622878e+00 -1.8057927196847430e+00 1.6670535000442803e+00 0 0 0
192 3 1.5966629563910878e-01 -1.8505686944427957e+00 -7.9873917403932695e-02 0 0 0
129 2 -1.8330190902344756e+00 1.8591957340417995e+00 -1.8290740222215744e+00 0 0 0
131 3 1.1692045732798531e-01 5.0413043092830713e-04 -1.6939974084284009e+00 0 0 0
209 2 -1.8239099006129276e+00 1.6843120368436051e+00 1.7578945888453383e+00 0 0 0
210 5 -1.6810498377767513e+00 5.0980355828575671e-02 -2.0386113550784529e-01 0 0 0
211 3 7.1494180220417719e-04 1.3770918405511239e-02 1.7749197016606004e+00 0 0 0
212 3 -7.7584799658270115e-02 1.7666060964926316e+00 -9.0277564465061164e-03 0 0 0
113 3 2.0304501359546712e+00 -2.0567037764685705e+00 -1.7742162823797996e+00 0 0 0
193 5 1.8083016076529410e+00 -1.7233629098753842e+00 1.8068916845407728e+00 0 0 0
196 5 3.7588064272300996e+00 -1.8205790290047417e+00 1.1023932857204308e-01 0 0 0
133 5 1.9126082822088235e+00 1.7338430945401095e+00 -1.7091535713269128e+00 0 0 0
135 3 3.6649479822916544e+00 -7.0725214510779497e-02 -1.7754759421105477e+00 0 0 0
213 3 1.9422976228642514e+00 1.7306622294808411e+00 1.7669528832415078e+00 0 0 0
214 3 1.8267942742880579e+00 -1.4826412474891473e-01 -8.2389386557994451e-02 0 0 0
215 3 3.7902930073638217e+00 5.9393853080745677e-02 2.0261414342643183e+00 0 0 0
216 2 3.8834823633987159e+00 1.7782640435658530e+00 4.7406697135251051e-02 0 0 0
117 2 5.3565909418495021e+00 -1.9057770184322393e+00 -1.7933476043057421e+00 0 0 0
197 5 5.3767849587481820e+00 -1.8615297832086506e+00 1.7974523014889412e+00 0 0 0
200 4 7.2464955327529967e+00 -1.7294698540932592e+00 -1.0108008220971789e-02 0 0 0
137 2 5.4863841820427144e+00 1.8174154980027895e+00 -1.8551035741920432e+00 0 0 0
139 4 7.3588328450464404e+00 -5.5692596714837339e-02 -1.9093334195416136e+00 0 0 0
217 5 5.4184361860803110e+00 1.8362260460898727e+00 1.9466877393828383e+00 0 0 0
218 3 5.5274944278702494e+00 -7.4606677854000769e-02 -2.2754669463158747e-01 0 0 0
219 4 7.3080135435159876e+00 4.7746696583093440e-02 1.8016419081111217e+00 0 0 0
220 1 7.1522254324142613e+00 1.6223363766609276e+00 -5.9254833106820344e-02 0 0 0
141 1 8.9411049010565851e+00 5.3077734926248636e+00 -1.7893447114215697e+00 -1 0 0
143 4 -7.2738069183068124e+00 3.6132281826343502e+00 -1.8167383625047016e+00 0 0 0
221 4 8.9230692215407910e+00 5.3718227524598694e+00 1.7732562648768877e+00 -1 0 0
222 1 -8.9711797635336747e+00 3.6836309660940474e+00 -4.7580337992103039e-02 0 0 0
223 4 -7.2016963055316072e+00 3.4848956890649192e+00 1.7144924545002749e+00 0 0 0
224 1 -7.1812473479851162e+00 5.3415396746364801e+00 -3.6431465022312942e-03 0 0 0
145 4 -5.4171292103160891e+00 5.4570179492422870e+00 -1.7457769104065481e+00 0 0 0
225 1 -5.5000305246994063e+00 5.4206443724634124e+00 1.7218074862363169e+00 0 0 0
226 2 -5.4390108120844252e+00 3.5834621046402799e+00 -6.5093502670668629e-02 0 0 0
147 2 -3.5953310586734459e+00 3.5408521096450323e+00 -1.9187629713740042e+00 0 0 0
227 4 -3.8439941597917837e+00 3.6434172491977681e+00 1.6262730595864334e+00 0 0 0
228 1 -3.6570755348945623e+00 5.4861032249568895e+00 2.9703040104455521e-02 0 0 0
149 4 -1.8447036190574695e+00 5.2835611367973945e+00 -1.7219926455807777e+00 0 0 0
151 3 -1.1208156957466989e-01 3.4556553016251406e+00 -1.7627340391481221e+00 0 0 0
229 3 -1.9543446022722037e+00 5.4402347202737387e+00 1.5518180295211725e+00 0 0 0
230 5 -1.8578261626995827e+00 3.6667490926098543e+00 6.1467117924967125e-02 0 0 0
231 2 3.5420133517505697e-03 3.5139093444687122e+00 1.7238041295245174e+00 0 0 0
232 1 4.0067066247478224e-02 5.5049591030450538e+00 -7.0428796082541475e-02 0 0 0
153 4 1.9136891198658803e+00 5.3333962737846869e+00 -1.7566401431736225e+00 0 0 0
155 3 3.8227228786187122e+00 3.6353220695892294e+00 -1.6688011763610471e+00 0 0 0
233 3 1.8671341939040280e+00 5.4665853909343278e+00 1.8714274972406417e+00 0 0 0
234 5 1.8433648302431085e+00 3.7737517479105422e+00 4.9585834337946354e-02 0 0 0
235 2 3.7073676563787052e+00 3.6304513621397909e+00 1.8101245007967888e+00 0 0 0
236 2 3.7128297376736490e+00 5.4527562912872094e+00 1.4968478597595922e-01 0 0 0
157 3 5.4114249690553091e+00 5.5517775903541784e+00 -1.7606755406570984e+00 0 0 0
159 4 7.2464771914278456e+00 3.6222594590877422e+00 -1.6855514795923832e+00 0 0 0
237 2 5.4393504008404623e+00 5.3521705170550149e+00 1.9178346285413019e+00 0 0 0
238 5 5.4879622420442642e+00 3.7539246959181995e+00 -1.9849702146580297e-02 0 0 0
239 4 7.2846759017440688e+00 3.5248225899954693e+00 1.7584132109051367e+00 0 0 0
240 1 7.2463777864665895e+00 5.5083758081653800e+00 1.0174343218547484e-01 0 0 0
241 4 -8.9481131816930084e+00 -5.2826833192049563e+00 5.4236601834145253e+00 0 0 0
242 4 -8.8831394662501921e+00 7.1164177825425572e+00 3.6128383768753665e+00 0 -1 0
243 4 -7.1715428081425330e+00 -7.0903769518871398e+00 5.3980693471003391e+00 0 0 0
244 1 -7.1943954916053903e+00 -5.4406662526292182e+00 3.6057578061391888e+00 0 0 0
262 5 -8.9825545123409185e+00 -3.5803216377697189e+00 3.4883737358040552e+00 0 0 0
263 1 -7.1868267909667614e+00 -3.6232607020794925e+00 5.3449195353185939e+00 0 0 0
245 5 -5.3911686715202123e+00 -5.3240908802535953e+00 5.4850008343505676e+00 0 0 0
246 2 -5.3998960527178070e+00 -7.1245928767634874e+00 3.6768024630925895e+00 0 0 0
266 4 -5.5182480201635293e+00 -3.5726571927156625e+00 3.6610124079226796e+00 0 0 0
247 1 -3.5889887801125653e+00 -7.1386040527029708e+00 5.4166013121118306e+00 0 0 0
248 3 -3.6332806066943055e+00 -5.4011703904020942e+00 3.5962425244361036e+00 0 0 0
267 2 -3.6184239106158995e+00 -3.6036167441867337e+00 5.4495273312042762e+00 0 0 0
249 5 -1.8167069308963930e+00 -5.4329350466675868e+00 5.3438298605213186e+00 0 0 0
250 2 -1.9293168913876673e+00 7.1925787713453824e+00 3.5509907336174589e+00 0 -1 0
251 3 -1.0466772977397860e-01 7.2037038565524076e+00 5.3817646446109011e+00 0 -1 0
252 3 1.2149766361090657e-01 -5.4232392218671635e+00 3.4998521119042154e+00 0 0 0
270 3 -1.8874994550642814e+00 -3.4871727795766105e+00 3.6757307787005877e+00 0 0 0
271 3 2.0248031243282873e-02 -3.6204657142460523e+00 5.4517445697543181e+00 0 0 0
253 3 1.8439374168657903e+00 -5.3166719369152426e+00 5.2725437500068182e+00 0 0 0
254 2 1.8135003897974096e+00 -7.1419663701095510e+00 3.4928521513834769e+00 0 0 0
255 2 3.5290216781262163e+00 -7.0598301931489686e+00 5.3878355863728506e+00 0 0 0
256 2 3.6333047188889025e+00 -5.3741246755860308e+00 3.5505226886024297e+00 0 0 0
274 3 1.8130298709976862e+00 -3.5910939631378911e+00 3.4903534251286081e+00 0 0 0
275 4 3.6390178005489404e+00 -3.5833322002368875e+00 5.3333668917546539e+00 0 0 0
257 4 5.3923426033406479e+00 -5.4629055139588587e+00 5.3736894499893504e+00 0 0 0
258 1 5.3725108582039960e+00 -7.1807365200795807e+00 3.5743345442297465e+00 0 0 0
259 1 7.3852498590766453e+00 -7.1252739116316191e+00 5.4414393254643389e+00 0 0 0
260 1 7.2071495903668241e+00 -5.3861169801536954e+00 3.8032147497476299e+00 0 0 0
278 4 5.3264940065748592e+00 -3.5959414983199283e+00 3.6844834277197016e+00 0 0 0
279 2 7.2147517399199019e+00 -3.5544137442891008e+00 5.4141877515676295e+00 0 0 0
261 4 -8.9306824119671884e+00 -1.7464239277295477e+00 5.3987138606313039e+00 0 0 0
264 1 -7.2885003950301446e+00 -1.8260094085150624e+00 3.5583790066822427e+00 0 0 0
281 4 8.9787081466030259e+00 1.8627383401313402e+00 5.3931996348249651e+00 -1 0 0
282 1 -8.9526509652555166e+00 1.0544914486835318e-02 3.6944260868644507e+00 0 0 0
283 4 -7.3222095744784133e+00 2.7717098912527011e-02 5.4876877136872437e+00 0 0 0
284 4 -7.3088913595960108e+00 1.8890053056721929e+00 3.5621603903926480e+00 0 0 0
265 1 -5.5873905937438941e+00 -1.9487151793825592e+00 5.4787454561076290e+00 0 0 0
285 4 -5.5029639121479512e+00 1.7015768226268024e+00 5.2837312205195923e+00 0 0 0
286 1 -5.4483103760139890e+00 4.1955243174113394e-02 3.5141617052299798e+00 0 0 0
268 5 -3.8204000115241881e+00 -1.7751980709175397e+00 3.7594903325889040e+00 0 0 0
287 2 -3.7174484303039130e+00 -1.0892631866268070e-01 5.3275067413670598e+00 0 0 0
288 5 -3.6682030242521724e+00 1.7669261744323208e+00 3.4068937769869678e+00 0 0 0
269 3 -1.8895278346589135e+00 -1.9194070276915052e+00 5.5169150342964182e+00 0 0 0
272 3 -5.8816066662846542e-02 -1.7184192394265512e+00 3.5073028335464822e+00 0 0 0
289 3 -1.9097494697943727e+00 1.7925428222226263e+00 5.3252329784975210e+00 0 0 0
290 2 -1.9380276780822976e+00 -1.2476994242780781e-01 3.6251811415454540e+00 0 0 0
291 3 -4.5794006240296552e-03 -7.4663155166153461e-02 5.4432148386022536e+00 0 0 0
292 5 6.0255133858371016e-02 1.7087894990064751e+00 3.6778106118655374e+00 0 0 0
273 5 1.9380763648075738e+00 -1.9556934046255183e+00 5.3243056376592683e+00 0 0 0
276 2 3.6563735162990252e+00 -1.7649584591571510e+00 3.6082376139232331e+00 0 0 0
293 2 1.8481576633471202e+00 1.6917434574173047e+00 5.3723119407343365e+00 0 0 0
294 2 1.9012807443954745e+00 -3.4681070340581842e-02 3.6103565796636587e+00 0 0 0
295 5 3.6599884853771076e+00 -4.5135197044016466e-02 5.4505595218966647e+00 0 0 0
296 3 3.6502559718670580e+00 1.8788247379652661e+00 3.6502227733083470e+00 0 0 0
277 1 5.4838417941493027e+00 -1.6289188541758757e+00 5.3867627602784776e+00 0 0 0
280 4 7.3027273150995171e+00 -1.7510804104078137e+00 3.6046985567648147e+00 0 0 0
297 4 5.4477040531805185e+00 1.9478666475368527e+00 5.4291750432201935e+00 0 0 0
298 2 5.4666842229674835e+00 1.0426142824312976e-01 3.6580692910320658e+00 0 0 0
299 2 7.2970162147201156e+00 1.7378932032923564e-01 5.4696882811474445e+00 0 0 0
300 1 7.2960527418216374e+00 1.7769572084609755e+00 3.7837093134689010e+00 0 0 0
301 1 -8.8649543795494594e+00 5.5686632359390122e+00 5.5284104326740975e+00 0 0 0
302 4 -8.9190070211174142e+00 3.8117354645175445e+00 3.7319422088194409e+00 0 0 0
303 1 -7.0883140305792836e+00 3.6722061680595202e+00 5.4932830558727677e+00 0 0 0
304 4 -7.1769405418845338e+00 5.5514161647937286e+00 3.6797457571684702e+00 0 0 0
305 4 -5.3490152014049848e+00 5.3816768638547572e+00 5.5076575383420288e+00 0 0 0
306 1 -5.3776137575853022e+00 3.6372877570278788e+00 3.4669910447428731e+00 0 0 0
307 3 -3.8095327858018644e+00 3.5115667954472376e+00 5.2433598297031416e+00 0 0 0
308 5 -3.7168396303548752e+00 5.4376984722658115e+00 3.4571836986131279e+00 0 0 0
309 3 -1.9716466032245419e+00 5.3631087208487287e+00 5.2723045740922094e+00 0 0 0
310 3 -1.9178136206398466e+00 3.5713820571256782e+00 3.3464453550119351e+00 0 0 0
311 3 -9.2211449890342620e-02 3.6029745815379317e+00 5.2985887063013895e+00 0 0 0
312 5 -1.9933988599145713e-01 5.4163248379287454e+00 3.4690912405041825e+00 0 0 0
313 3 1.7688647366469150e+00 5.3883424724964453e+00 5.3839729705870054e+00 0 0 0
314 3 1.7862241986223333e+00 3.5279661849933097e+00 3.3496735554196047e+00 0 0 0
315 1 3.5597799760332651e+00 3.6351822367767439e+00 5.1824929333490646e+00 0 0 0
316 5 3.6532959919601935e+00 5.3680830602176730e+00 3.5928249484280301e+00 0 0 0
317 4 5.3758095316436254e+00 5.5363364998787166e+00 5.4614058665370830e+00 0 0 0
318 1 5.4834346048033646e+00 3.6261898864162561e+00 3.5836209109293753e+00 0 0 0
319 2 7.2541116773085861e+00 3.7049485436266236e+00 5.3662935392669251e+00 0 0 0
320 1 7.2989574501568582e+00 5.4593100865542867e+00 3.6839358274859841e+00 0 0 0

Velocities

1 3.3471751546003253e-01 3.5494540847356473e+00 3.1770487650805257e+00
2 -1.0591173579105881e-01 1.3369025743880496e+00 1.3505759737366234e+00
3 2.0405546609068939e+00 2.2423959427146589e+00 -7.4272722894831078e-01
4 -2.7431534836146381e+00 -6.9660274674715542e-02 -3.3439372913640018e+00
82 2.5092068926855231e+00 2.9872238832525628e+00 1.1023840755792436e+00
84 -3.9173798680447198e-03 1.9888464370118957e+00 -1.6749090206652790e+00
22 3.3802971331797216e+00 -1.8494072495653249e+00 -2.1164324844738260e+00
23 -1.5200752402778048e-01 6.2474944999428361e-01 2.7880655295218237e+00
102 -2.3785183559246019e+00 1.1213888862367771e+00 -1.1169588806919822e-01
5 -2.7352511563827286e-01 -3.2980565165845852e+00 2.1631508620993736e-01
6 -1.7603206171754526e+00 -3.5203286937158412e-01 -9.2184294230724317e-01
86 -1.7193603095523218e+00 -3.3964280969521830e+00 3.3091519339176321e+00
26 -2.8292219631901894e+00 -2.8034489725045098e+00 -3.0010041536748226e+00
106 -1.7447579459895739e+00 -1.1428213035667620e+00 2.5521797890429387e+00
7 -2.8873012265242179e+00 1.3791168327620787e-01 1.6722518021722821e+00
8 -3.8525220995670029e-01 5.2622887141972685e-01 4.9892046744741508e-01
88 2.7818286847335250e+00 -4.6760021417581699e-01 -1.5101195354729411e+00
27 3.7964209057525844e-01 -2.8331012954432460e+00 2.5642493175397245e+00
9 1.2440067756021822e+00 -2.7812797687151547e+00 5.5545322643070094e-01
10 2.5037692555485784e+00 -1.0886020213656802e+00 3.3635828949011501e+00
11 -7.7971117317510830e-02 -3.2473702820796100e+00 -2.6419569643751557e+00
12 -2.8194113296359957e-02 -3.5071952432336966e+00 -1.2451195577436327e+00
90 -5.1697728029294310e-01 2.5846287293597587e+00 5.2169995852461115e-01
92 1.8444027363844528e+00 -1.3283602124794331e+00 2.0571606709941461e+00
30 1.9562002470329978e+00 -3.2405163474306171e+00 2.0533790913953336e+00
31 -3.5981887478073897e+00 -2.4612858417135461e+00 1.5508314070515861e+00
110 2.2176153847261597e+00 -1.3817541410416871e+00 1.9044890009840210e+00
13 -3.7464534289333900e+00 -2.4020939706980213e+00 1.7462052263175729e+00
14 -2.5688943502537964e+00 -3.2275045092239458e+00 7.4984320207658062e-01
15 -2.2710864879757802e+00 3.3611500880281708e+00 3.1853834876875040e+00
16 -2.9784751736078880e+00 3.3777772326293043e+00 -1.6159475134330261e+00
94 1.0176996302458403e+00 3.2761889295909867e+00 2.9683102697962953e+00
96 -5.9345556700469104e-01 8.3506186885971323e-01 -9.0621387664967357e-01
34 2.8835042211271515e+00 8.6790935539934055e-01 -1.5248255744554056e+00
35 -2.0046047800430850e-01 -1.0437196364120114e+00 -7.9876860470126887e-01
114 5.4368620751665631e-01 -8.6727248951522151e-01 -8.8353686595920300e-01
17 1.6007333014609684e+00 -2.5987468318070372e+00 -2.7663425490639990e+00
18 3.1079900340082145e+00 2.8281066613154406e+00 -3.3394136885546835e+00
19 4.9354307093905904e-02 4.7315545540493453e-01 -3.2271587971366893e+00