LAMMPS data file via write_data, version 18 Jun 2019, timestep = 44000

320 atoms
5 atom types

-9.0052194245934079e+00 9.0052194245934079e+00 xlo xhi
-7.2041755396747895e+00 7.2041755396747895e+00 ylo yhi
-7.2041755396747895e+00 7.2041755396747895e+00 zlo zhi

Masses

1 58.933
2 58.69
3 51.96
4 55.847
5 54.94

Atoms # atomic

84 1 -7.1832806094866033e+00 -5.4050057535233940e+00 -3.5852892102470544e+00 0 0 0
5 2 -5.4843646925482918e+00 -5.4315361660299706e+00 -5.4423563521579590e+00 0 0 0
4 1 -7.2012927008002592e+00 -5.4751859918856391e+00 7.1963457779319411e+00 0 0 -1
1 4 8.9838455388074561e+00 -5.4556681770227122e+00 -5.3608664470200429e+00 -1 0 0
22 5 -9.0011776041100049e+00 -3.5969891553837683e+00 -7.2041121268382380e+00 0 0 0
3 1 -7.1895848899492387e+00 7.1927324044245298e+00 -5.4346093026349411e+00 0 -1 0
106 5 -5.4908784266402426e+00 -3.6625497174272676e+00 -3.6013654071947374e+00 0 0 0
8 2 -3.7302455380000858e+00 -5.4030274057439076e+00 7.1759194020828705e+00 0 0 -1
9 3 -1.7198343238446179e+00 -5.3439926931466326e+00 -5.3268925124444513e+00 0 0 0
10 5 -1.8821748596522978e+00 -7.1300174483515786e+00 -7.1442105337145705e+00 0 0 0
6 1 -5.4258935251181777e+00 7.1904672870872846e+00 -7.1913767853058133e+00 0 -1 0
88 1 -3.5382053639188191e+00 -5.3680760587758165e+00 -3.6578731827353499e+00 0 0 0
90 4 -1.8393544872066145e+00 7.1453099686654431e+00 -3.6439369604301413e+00 0 -1 0
31 2 1.3781378816107907e-02 -3.5606110930057477e+00 -5.4154073378240533e+00 0 0 0
12 2 8.2093933940999439e-02 -5.3482408736572511e+00 -7.1821785656264074e+00 0 0 0
114 5 1.7943199302787576e+00 -3.5174903497156733e+00 -3.5978420074807755e+00 0 0 0
92 1 2.5413479905918423e-02 -5.4786174910129528e+00 -3.6735918941335899e+00 0 0 0
110 2 -1.7143187242740765e+00 -3.5569421956153517e+00 -3.6193726287982235e+00 0 0 0
13 4 1.8499046417951477e+00 -5.4177942755842494e+00 -5.4108941136703930e+00 0 0 0
17 5 5.3932830212249447e+00 -5.4842783918705837e+00 -5.4283544905872594e+00 0 0 0
16 1 3.6149367638357131e+00 -5.3836988764897811e+00 -7.1844788447798846e+00 0 0 0
35 1 3.6529779020377138e+00 -3.6086750421138252e+00 -5.4164862372358948e+00 0 0 0
100 4 7.2635863404968388e+00 -5.4628461799255286e+00 -3.5230370133762485e+00 0 0 0
19 4 7.1941861912444898e+00 7.1591559303846770e+00 -5.3973437442398096e+00 0 -1 0
23 2 -7.2561839203297280e+00 -3.6619495593494333e+00 -5.3968040907046655e+00 0 0 0
24 4 -7.2509269897659561e+00 -1.8135056906643927e+00 -7.1671005054729822e+00 0 0 0
43 1 -7.2040749246817164e+00 -7.7357750890386994e-03 -5.3884609152081522e+00 0 0 0
46 5 -5.4558210763078954e+00 -2.2638015095005418e-02 -7.1738345089356326e+00 0 0 0
27 5 -3.6540370277584056e+00 -3.6131493603036700e+00 -5.3617555251045736e+00 0 0 0
25 2 -5.4260596205450939e+00 -1.8620701490252551e+00 -5.4085558416116388e+00 0 0 0
47 3 -3.6220854507824987e+00 -7.8936832868154339e-02 -5.3446361306595298e+00 0 0 0
29 3 -1.7923928894275636e+00 -1.8446070483336543e+00 -5.3447604429563818e+00 0 0 0
51 3 -3.4886036286937844e-02 1.8445562832633784e-02 -5.4307990340038756e+00 0 0 0
32 3 -3.4925742375769793e-02 -1.8172606693321554e+00 -7.1581990726138107e+00 0 0 0
112 5 -1.9924742990524272e-02 -1.6874038377839302e+00 -3.4856022960777584e+00 0 0 0
34 2 1.8362474492959615e+00 -3.5348161003540453e+00 -7.1047581283045309e+00 0 0 0
33 5 1.8062190329641183e+00 -1.7771105500107849e+00 -5.3670291360060469e+00 0 0 0
36 1 3.6131992108685318e+00 -1.7901790998351759e+00 -7.1389750516883037e+00 0 0 0
55 3 3.7385230457275718e+00 3.4354787699485120e-02 -5.4619550001224537e+00 0 0 0
39 4 7.2344662277879292e+00 -3.6683281994066030e+00 -5.3980317874314974e+00 0 0 0
122 2 -9.0027722255492009e+00 -2.3627396878234921e-02 -3.6273459078100529e+00 0 0 0
37 2 5.3645404672033168e+00 -1.8635225208324113e+00 -5.3136404302815281e+00 0 0 0
21 1 8.9662886030198798e+00 -1.7703095620124840e+00 -5.4339981002191626e+00 -1 0 0
59 5 7.2006688647928980e+00 -2.6738332425584495e-02 -5.4077643645801521e+00 0 0 0
40 5 7.1903370125588539e+00 -1.7309998395324184e+00 7.1766108087188138e+00 0 0 -1
44 1 -7.2125048122235658e+00 1.7602713882092724e+00 -7.1507995665690149e+00 0 0 0
124 4 -7.1729836212642528e+00 1.7172528095800663e+00 -3.5544181659489760e+00 0 0 0
63 5 -7.1525950513458820e+00 3.5066682113751111e+00 -5.4145136397528830e+00 0 0 0
126 1 -5.3498045359595592e+00 -7.6252006477072143e-02 -3.6740214061530292e+00 0 0 0
45 1 -5.3567911014222718e+00 1.7286368535259509e+00 -5.4055246584959988e+00 0 0 0
128 5 -3.6538810625596407e+00 1.8372917027286535e+00 -3.5929764709277521e+00 0 0 0
50 3 -1.8833147060056770e+00 1.0534247345859497e-01 7.1771316905885936e+00 0 0 -1
49 3 -1.7246685089379188e+00 1.8048007153295922e+00 -5.4021973901219367e+00 0 0 0
53 5 1.7267652944990677e+00 1.9381876825684978e+00 -5.4919050958368825e+00 0 0 0
132 3 -1.4650142103195611e-02 1.6734596681385521e+00 -3.5012573085437313e+00 0 0 0
134 3 1.9245115378952302e+00 1.6430397226543363e-02 -3.6056328494115806e+00 0 0 0
136 3 3.6329106572858394e+00 1.9676288499203871e+00 -3.6437164122117807e+00 0 0 0
57 1 5.4848848001263839e+00 1.8181497542691709e+00 -5.4202724716569142e+00 0 0 0
56 5 3.7059168255752040e+00 1.8601849011180516e+00 7.1183957354790248e+00 0 0 -1
41 4 -8.9798430234904938e+00 1.8314607826858347e+00 -5.3410112415540674e+00 0 0 0
42 1 8.9543605980119700e+00 -2.7700352069538997e-02 7.2041635826117076e+00 -1 0 -1
140 4 7.2283430389536223e+00 1.7467450742360440e+00 -3.5726248280692152e+00 0 0 0
60 4 7.2597346729380243e+00 1.8173494994811563e+00 -7.1581731027170070e+00 0 0 0
79 1 7.1766003096957167e+00 3.6244451812856862e+00 -5.3852043692295943e+00 0 0 0
65 1 -5.4167670653885516e+00 5.3775555517006746e+00 -5.3660894538273265e+00 0 0 0
142 2 -8.9708836746757417e+00 3.6775097201125835e+00 -3.6115479429138944e+00 0 0 0
61 4 -8.9900495116561441e+00 5.3923080318523429e+00 -5.3947453792803923e+00 0 0 0
7 5 -3.6971031853653953e+00 7.1957019639404880e+00 -5.3718696831541308e+00 0 -1 0
67 2 -3.5703817301569307e+00 3.6275431655852532e+00 -5.4017648375250884e+00 0 0 0
69 2 -1.8822811544597309e+00 5.3894903646529482e+00 -5.4573085802577577e+00 0 0 0
148 1 -3.5628093401954084e+00 5.3440338839710027e+00 -3.6352858623622231e+00 0 0 0
150 5 -1.7823177304748830e+00 3.6013350213309798e+00 -3.5571505852559424e+00 0 0 0
11 5 -1.9089527046642445e-02 7.0857506998971411e+00 -5.5208253345967533e+00 0 -1 0
71 3 -1.0066283822570306e-02 3.7653731159868231e+00 -5.4742834003467085e+00 0 0 0
154 3 1.7265513816216040e+00 3.5381125359520675e+00 -3.5937865610626356e+00 0 0 0
75 3 3.6326373966537320e+00 3.5777592516996326e+00 -5.5167328473203003e+00 0 0 0
15 1 3.6376709077404628e+00 7.1679182105225046e+00 -5.4144812762039551e+00 0 -1 0
73 3 1.8662316786025142e+00 5.4162361725952106e+00 -5.4609368924928452e+00 0 0 0
78 1 5.4801718890152102e+00 3.6142247718679981e+00 7.1835337448985817e+00 0 0 -1
98 4 5.4230766784720332e+00 7.1499849401880056e+00 -3.5978942236737246e+00 0 -1 0
77 4 5.3773220534621231e+00 5.3621192165342659e+00 -5.3994992945572955e+00 0 0 0
80 4 7.2446324667753466e+00 5.4547607061499894e+00 -7.1817238215026062e+00 0 0 0
82 4 -8.9824121360418836e+00 7.1610063806001616e+00 -3.5661653431679285e+00 0 -1 0
103 1 -7.1893767362741299e+00 -3.6543332583882155e+00 -1.8017296937784399e+00 0 0 0
85 4 -5.3891242248611624e+00 -5.3968749246824004e+00 -1.8072235913832524e+00 0 0 0
164 2 -7.2254711529303703e+00 -5.4352097275893279e+00 -4.4195706756491098e-03 0 0 0
81 1 -8.9880620578312165e+00 -5.4004741342287197e+00 -1.8005807701920702e+00 0 0 0
168 3 -3.6450473520847786e+00 -5.3558389815015737e+00 -5.1995438154563658e-02 0 0 0
107 2 -3.5564390525634231e+00 -3.5978158848303168e+00 -1.7898836947390393e+00 0 0 0
89 5 -1.8692700488922818e+00 -5.4348027318028036e+00 -1.9298579313636701e+00 0 0 0
190 3 -1.8098243524250657e+00 -3.5643862391621353e+00 -7.8889135238102523e-02 0 0 0
87 1 -3.6069408300987722e+00 7.1653140865957852e+00 -1.8895486573557456e+00 0 -1 0
170 4 -1.8605859708585117e+00 -7.1743043812160110e+00 -2.6002999594219325e-02 0 0 0
172 3 -4.3208025097617470e-03 -5.3120006629543441e+00 -2.9674658587709606e-02 0 0 0
96 2 3.6659468359753644e+00 -5.4630227601970542e+00 -3.6570169028863591e+00 0 0 0
93 5 1.7695338331595785e+00 -5.4237482823316494e+00 -1.8639619926531916e+00 0 0 0
115 3 3.6812328960557119e+00 -3.6633307431163611e+00 -1.8431058518623196e+00 0 0 0
118 2 5.4396419151999416e+00 -3.6994169478267596e+00 -3.5461633612305996e+00 0 0 0
97 5 5.4425886906674936e+00 -5.4952578444864981e+00 -1.8451265587953944e+00 0 0 0
180 2 7.2172979368325816e+00 -5.4041287182520223e+00 -2.7097847207650579e-02 0 0 0
119 2 7.1771585272063758e+00 -3.6131892464395632e+00 -1.8448530552771893e+00 0 0 0
104 4 -7.2481557317020808e+00 -1.7758862582220425e+00 -3.6376716121871455e+00 0 0 0
102 1 -8.9478264868391388e+00 -3.6372065464572430e+00 -3.5384144758461056e+00 0 0 0
184 4 -7.2905040204331710e+00 -1.7809885164738981e+00 -2.5404471271682463e-02 0 0 0
101 1 -8.9996286557983503e+00 -1.8204421996366276e+00 -1.8518574834019952e+00 0 0 0
105 4 -5.4050889394980377e+00 -1.7950822045736152e+00 -1.8474678667428459e+00 0 0 0
108 5 -3.6900505650245745e+00 -1.8521269868451724e+00 -3.5832621338677089e+00 0 0 0
186 1 -5.4626019127000900e+00 -3.5843592255333330e+00 1.4064449484135188e-02 0 0 0
188 5 -3.7550138510942790e+00 -1.9035663986144868e+00 -1.9801676915088395e-03 0 0 0
109 2 -1.8474323268073203e+00 -1.8162850004412221e+00 -1.7963409624426159e+00 0 0 0
210 5 -1.9368349410863781e+00 7.0039573067104174e-03 -5.6835342478562395e-02 0 0 0
111 2 -6.4342469932030591e-02 -3.6117782837134240e+00 -1.8774402532019996e+00 0 0 0
192 3 -7.0143679734910189e-02 -1.8897937894731065e+00 -1.2911753384989899e-01 0 0 0
113 3 1.7830061090713551e+00 -1.7725037816984039e+00 -1.6588485605889729e+00 0 0 0
116 3 3.6530290274587247e+00 -1.8966801908689908e+00 -3.5572028167519485e+00 0 0 0
138 5 5.3879659177447641e+00 2.7397500090369190e-02 -3.5346543161386776e+00 0 0 0
135 3 3.6995061453404539e+00 5.9179104779651225e-03 -1.7108044878248183e+00 0 0 0
196 5 3.6619383684002256e+00 -1.8732596144665676e+00 -1.1513646549623933e-01 0 0 0
117 2 5.5030054618079483e+00 -1.8450126112447938e+00 -1.8258301162868644e+00 0 0 0
120 5 7.2365920472369378e+00 -1.8098362911732333e+00 -3.5346866039173070e+00 0 0 0
139 4 7.2915679055842881e+00 -2.5062855550927219e-02 -1.7373736954957559e+00 0 0 0
182 5 9.0048263974530229e+00 -3.6392758664033553e+00 -5.7571719683813458e-02 -1 0 0
123 4 -7.2222857909258291e+00 -4.7325315059028206e-02 -1.8232993365174224e+00 0 0 0
143 4 -7.2308215912782696e+00 3.6031294116484776e+00 -1.7185918547644603e+00 0 0 0
127 3 -3.7247678439574949e+00 7.4780558265431285e-02 -1.7554334077939859e+00 0 0 0
125 1 -5.4370425155671285e+00 1.7536624277236572e+00 -1.8437149166318836e+00 0 0 0
147 2 -3.6260615267491789e+00 3.6004823994480488e+00 -1.7282421022805334e+00 0 0 0
130 3 -1.8738678046007002e+00 8.4458129251479719e-02 -3.4233588105515342e+00 0 0 0
129 2 -1.8387869083960489e+00 1.8916400712164052e+00 -1.7298131797216765e+00 0 0 0
131 3 -8.1141701112594916e-03 1.2677419496812573e-01 -1.6112408919135206e+00 0 0 0
133 5 1.8960789550659305e+00 1.8449512235565682e+00 -1.6991262798319247e+00 0 0 0
137 2 5.3993473240849879e+00 1.8103438509798395e+00 -1.7713768548583704e+00 0 0 0
155 3 3.6615715748464153e+00 3.6087764870770345e+00 -1.6838516150276135e+00 0 0 0
121 4 8.9527135858235773e+00 1.8277217914812436e+00 -1.8098078874055659e+00 -1 0 0
159 4 7.2066989414860361e+00 3.6266510568197656e+00 -1.8149030632751266e+00 0 0 0
218 3 5.4536290514886465e+00 6.5398258763655251e-02 5.8153127347576446e-02 0 0 0
144 4 -7.1658883695223379e+00 5.3892154708942108e+00 -3.5962754421556387e+00 0 0 0
226 2 -5.3883618264506410e+00 3.6413613596248000e+00 -2.2547789672162588e-02 0 0 0
83 4 -7.1832531462280453e+00 7.1935950575279444e+00 -1.7579955622205725e+00 0 -1 0
86 4 -5.3882039335357872e+00 -7.1813392598717982e+00 -3.6681734324820776e+00 0 0 0
146 5 -5.3900393657367180e+00 3.6262529183937353e+00 -3.5960940120388041e+00 0 0 0
224 1 -7.2132789735609304e+00 5.3497459030455090e+00 1.1671574171726656e-02 0 0 0
166 4 -5.4033896611984478e+00 7.1141412920522757e+00 -6.7239941595236885e-02 0 -1 0
145 4 -5.3735596759971056e+00 5.4498596555770522e+00 -1.8330851261418912e+00 0 0 0
149 4 -1.8196146876532546e+00 5.4066853646828621e+00 -1.7437805756324452e+00 0 0 0
91 2 -5.9782064851520246e-02 -7.1453562775109081e+00 -1.7885003148622054e+00 0 0 0
151 3 1.6046553776507707e-02 3.5627265297506523e+00 -1.6929364969047898e+00 0 0 0
152 3 -9.3498590745899751e-03 5.4784554433402288e+00 -3.5773821520156677e+00 0 0 0
94 5 1.8257372542718855e+00 7.1951042395083844e+00 -3.6437335289602060e+00 0 -1 0
156 5 3.5889113449677539e+00 5.3065793239950523e+00 -3.4665856675501892e+00 0 0 0
95 2 3.6349132688598975e+00 -7.1346466313156478e+00 -1.7856859619847003e+00 0 0 0
153 4 1.8111649975298398e+00 5.3866929336552563e+00 -1.7161700724782900e+00 0 0 0
141 1 8.9944809164884720e+00 5.3438148483379413e+00 -1.7886996230413317e+00 -1 0 0
99 2 7.2631613899199223e+00 7.1686538203795083e+00 -1.7522304655508503e+00 0 -1 0
158 4 5.4875987205435175e+00 3.5378842981919663e+00 -3.5814065467275875e+00 0 0 0
160 1 7.2365870528156124e+00 5.4027764459423189e+00 -3.5821407549098225e+00 0 0 0
157 3 5.4693082220080171e+00 5.5060845437581705e+00 -1.7503493691995538e+00 0 0 0
162 5 -8.9258430925797718e+00 7.1596663951380677e+00 -4.7535373441104589e-02 0 -1 0
163 1 -7.1685100516066855e+00 -7.1681431950648475e+00 1.7705674876378421e+00 0 0 0
165 5 -5.4739933089918242e+00 -5.4154686161204344e+00 1.7268237262160884e+00 0 0 0
244 1 -7.1828678674806135e+00 -5.3760551638615972e+00 3.5739321515616664e+00 0 0 0
246 2 -5.4460735609977418e+00 -7.1781047481462590e+00 3.5570033538692125e+00 0 0 0
183 2 -7.2411026902848832e+00 -3.6590173944981492e+00 1.7362950285713838e+00 0 0 0
262 5 8.9830937026685351e+00 -3.7315500410553950e+00 3.6278757075954138e+00 -1 0 0
169 5 -1.8464943338955726e+00 -5.3044032636484983e+00 1.8002134317664018e+00 0 0 0
248 3 -3.6604987024037694e+00 -5.4469731847816139e+00 3.5921702517830054e+00 0 0 0
167 2 -3.6698824809553292e+00 -7.1980326176340732e+00 1.8057684264103038e+00 0 0 0
250 2 -1.8245611418144609e+00 -7.1905671666501085e+00 3.6072161095751660e+00 0 0 0
187 2 -3.7163971482176086e+00 -3.6616107474964799e+00 1.7874097777734630e+00 0 0 0
252 3 -1.7061286915005389e-02 -5.3918984534048588e+00 3.5566858428108619e+00 0 0 0
171 5 9.9061464560832937e-02 7.1727859850504636e+00 1.8189294698120564e+00 0 -1 0
173 3 1.8728593025381586e+00 -5.3173117039654043e+00 1.7710383811752395e+00 0 0 0
176 5 3.6468879063184336e+00 -5.4428031539791162e+00 -3.6963518843084499e-02 0 0 0
194 2 1.7935078695409647e+00 -3.6360132592404408e+00 -6.6024102741323989e-02 0 0 0
175 1 3.6960715064418332e+00 -7.1310844370933442e+00 1.8719847332643755e+00 0 0 0
161 4 8.9796424959507330e+00 -5.4585779981226921e+00 1.8210403089146781e+00 -1 0 0
198 3 5.5116178301215184e+00 -3.6620764541524289e+00 1.5657203803800266e-04 0 0 0
177 1 5.4401590335275305e+00 -5.3815547482045965e+00 1.8670882375508215e+00 0 0 0
179 5 7.1393662655548402e+00 7.1427493015965755e+00 1.8661107999645183e+00 0 -1 0
199 1 7.1880190083641970e+00 -3.6069735676939461e+00 1.7938214066559444e+00 0 0 0
203 5 -7.3135783375101333e+00 -2.0604933953799018e-02 1.8543112286045669e+00 0 0 0
185 2 -5.5021684645855649e+00 -1.8013338591913888e+00 1.7707575910527058e+00 0 0 0
264 1 -7.2586317122742701e+00 -1.8213849927546188e+00 3.5382352339966916e+00 0 0 0
286 1 -5.4679520202650078e+00 -4.4846546197448017e-02 3.5317005748688750e+00 0 0 0
206 2 -5.4302187755780666e+00 1.2197554537852673e-03 1.3404115140345377e-02 0 0 0
189 3 -1.8748546703659439e+00 -1.9423511110546559e+00 1.7345832960207979e+00 0 0 0
290 2 -1.9159238053524126e+00 -5.2131224546918022e-02 3.5132540206039562e+00 0 0 0
207 1 -3.6730751059276479e+00 -4.0737984636919931e-02 1.7787003169373263e+00 0 0 0
191 2 1.1424965212463144e-01 -3.6296949733518105e+00 1.7902801725126234e+00 0 0 0
272 3 -7.7282430601105692e-02 -1.7459946575466401e+00 3.4698421540627549e+00 0 0 0
211 3 -1.6811192042104954e-02 -7.9291835693358112e-02 1.6117428122238002e+00 0 0 0
195 2 3.6850600037483638e+00 -3.6574500647818509e+00 1.8006650461563971e+00 0 0 0
193 5 1.9268853565504065e+00 -1.8622414408596630e+00 1.7284709837865486e+00 0 0 0
274 3 1.8302894437423263e+00 -3.5524636027374488e+00 3.5417340042514605e+00 0 0 0
181 1 -9.0007114343706949e+00 -1.8762405283592178e+00 1.8182658416460162e+00 0 0 0
200 4 7.2654560760976272e+00 -1.8229939417074281e+00 4.8176799851128722e-02 0 0 0
197 5 5.5037299703767886e+00 -1.7849551799235115e+00 1.8842776513830910e+00 0 0 0
202 2 -8.9815354684504580e+00 3.7872769704192549e-03 1.6789725789215994e-03 0 0 0
282 1 -8.9893741421182813e+00 3.1589478423404961e-02 3.5578290684182732e+00 0 0 0
204 1 -7.2163335010447840e+00 1.7062487631526357e+00 -1.8814868887338354e-02 0 0 0
205 2 -5.4415355852991363e+00 1.7728102021173298e+00 1.7802767432158055e+00 0 0 0
284 4 -7.2157093931632508e+00 1.8938127191264407e+00 3.6475441306102439e+00 0 0 0
223 4 -7.1565402518269954e+00 3.6171939929603840e+00 1.7680096234370333e+00 0 0 0
222 1 9.0006270977952152e+00 3.6257601198489304e+00 -2.5903400458648192e-02 -1 0 0
208 5 -3.6101602868941978e+00 1.8345608360408707e+00 3.1022160921826299e-02 0 0 0
209 2 -1.8837600088078124e+00 1.8030067247808867e+00 1.8202029901631716e+00 0 0 0
227 4 -3.7412541658313305e+00 3.5946451357154734e+00 1.8115047005665970e+00 0 0 0
212 3 -2.1877544063255767e-02 1.9441859610276391e+00 1.6868649633357879e-01 0 0 0
214 3 1.8815650194279612e+00 6.4389217298469567e-02 8.1881556191331556e-02 0 0 0
215 3 3.7228255826177934e+00 -3.0472850766927475e-03 1.8597469899310122e+00 0 0 0
234 5 1.8530043866425772e+00 3.5934040036105395e+00 1.5663135991528968e-01 0 0 0
213 3 1.9424624633742549e+00 1.7628314171422415e+00 1.8790833736950852e+00 0 0 0
216 2 3.6646236049863101e+00 1.8164880911547567e+00 1.2285055653293041e-02 0 0 0
235 2 3.7106291952824089e+00 3.6619320945597176e+00 1.8259991266795996e+00 0 0 0
219 4 7.2601026295422679e+00 3.9382843668492463e-02 1.8294875746378938e+00 0 0 0
220 1 7.1665599972315519e+00 1.8531908688794758e+00 1.1516925110452301e-02 0 0 0
201 4 8.9760432660183795e+00 1.8613391862448241e+00 1.8036847732120538e+00 -1 0 0
217 5 5.4795429849309736e+00 1.8216107934566406e+00 1.8543771690322139e+00 0 0 0
238 5 5.4132857663101275e+00 3.6676786669356871e+00 -1.1816734393245345e-02 0 0 0
239 4 7.1932836183072144e+00 3.6714980023601167e+00 1.8445127879029253e+00 0 0 0
225 1 -5.4521982882564659e+00 5.4710494142177142e+00 1.8043570886425884e+00 0 0 0
221 4 -8.9922678486249001e+00 5.4266169000262767e+00 1.7817173698603623e+00 0 0 0
310 3 -1.9274172883017895e+00 3.5205285625684328e+00 3.5454833460214887e+00 0 0 0
228 1 -3.6260728244293641e+00 5.3981230166870446e+00 2.6318972512649950e-02 0 0 0
229 3 -1.8115226429109303e+00 5.5455972794826005e+00 1.8451452766081875e+00 0 0 0
230 5 -1.8422570768537427e+00 3.7109054160482091e+00 1.9059151147790504e-01 0 0 0
308 5 -3.6680865462860308e+00 5.5167023010381113e+00 3.5811619010461810e+00 0 0 0
232 1 -3.9396724828595263e-02 5.4667857715138011e+00 2.6472019693180516e-02 0 0 0
231 2 -5.8202220939167611e-02 3.7691627368062908e+00 1.9171206997272983e+00 0 0 0
174 5 1.8447548938427207e+00 7.1994645599874563e+00 -7.4537734140740552e-02 0 -1 0
254 2 1.8760610113709804e+00 -7.1330854547792715e+00 3.5969020563285481e+00 0 0 0
258 1 5.4240835639673550e+00 -7.1465024351486850e+00 3.5843392770283633e+00 0 0 0
233 3 1.8207247892311647e+00 5.4872105027309406e+00 1.8259082294651714e+00 0 0 0
236 2 3.6600710284520090e+00 5.4439258934581423e+00 6.7790847306989852e-02 0 0 0
237 2 5.3905040259808157e+00 5.4362187927703802e+00 1.8332261763009920e+00 0 0 0
178 4 5.4667366101338670e+00 -7.1609891033911230e+00 6.9380186632928109e-02 0 0 0
240 1 7.1958140787958307e+00 5.3896182880166998e+00 -8.9324745340371662e-03 0 0 0
26 5 -5.5201720992291321e+00 -3.6625413326030629e+00 -7.1785845638711203e+00 0 0 0
266 4 -5.5237466660719639e+00 -3.5705304363815418e+00 3.6063475893821386e+00 0 0 0
242 4 -8.9372594039214093e+00 7.1862861323535228e+00 3.6856589039932390e+00 0 -1 0
243 4 -7.1860408503844493e+00 7.1833101164878084e+00 5.3591365784478961e+00 0 -1 0
245 5 -5.4892355518764218e+00 -5.4503652392958966e+00 5.3591289816043828e+00 0 0 0
30 5 -1.8288213248299114e+00 -3.7034086909856758e+00 7.1882542640544669e+00 0 0 -1
247 1 -3.6642899340797754e+00 -7.1649356967175155e+00 5.3781482752329914e+00 0 0 0
267 2 -3.6694712639569524e+00 -3.6735046492292880e+00 5.4183165077538016e+00 0 0 0
249 5 -1.8628696284369721e+00 -5.4708252127558481e+00 5.4146153484559676e+00 0 0 0
270 3 -1.8369752767191880e+00 -3.5927817369740467e+00 3.6813220525553523e+00 0 0 0
271 3 4.9278910666329147e-02 -3.6422993029094526e+00 5.4418099742781667e+00 0 0 0
251 3 -1.0875332805467381e-03 -7.0407490427001820e+00 5.3848485368275858e+00 0 0 0
18 2 5.3846322331194019e+00 -7.1229299770815215e+00 7.1998844588625337e+00 0 0 -1
14 5 1.8408532103300188e+00 -7.1074833580356849e+00 7.1717777490898191e+00 0 0 -1
256 2 3.6586069810960722e+00 -5.4071428453456880e+00 3.6125669153781441e+00 0 0 0
253 3 1.9746433002783246e+00 -5.3090250028088404e+00 5.4118214439342047e+00 0 0 0
255 2 3.6816792920719297e+00 7.1742516723174026e+00 5.3701535147079884e+00 0 -1 0
2 1 -8.9854192109535251e+00 7.1838091278145679e+00 7.1926768019878864e+00 0 -1 -1
241 4 -8.9844282803052415e+00 -5.4218385384666199e+00 5.4366207486464484e+00 0 0 0
257 4 5.3679935356010660e+00 -5.4212251511281710e+00 5.3886225297043344e+00 0 0 0
20 1 7.1327983323470203e+00 -5.4352053151016175e+00 7.1863628133575803e+00 0 0 -1
260 1 7.1771739914156552e+00 -5.3770396239263238e+00 3.6364604392246811e+00 0 0 0
263 1 -7.2323140089917723e+00 -3.6141348117200387e+00 5.3785940393829383e+00 0 0 0
265 1 -5.4469232282889246e+00 -1.8128317071090083e+00 5.3513672390825304e+00 0 0 0
268 5 -3.6647565361586278e+00 -1.8001858823853836e+00 3.6330418299383149e+00 0 0 0
28 3 -3.6500047878892770e+00 -1.9381005397234501e+00 7.1203667632387555e+00 0 0 -1
269 3 -1.7873296133024474e+00 -1.7509973518174642e+00 5.4180614956686259e+00 0 0 0
291 3 6.3537486032715328e-03 3.7128352989740494e-02 5.3392980917204715e+00 0 0 0
275 4 3.6088493029746416e+00 -3.4849044791096770e+00 5.3994570650047642e+00 0 0 0
278 4 5.4452002069758736e+00 -3.5747862695655424e+00 3.6537047620275533e+00 0 0 0
273 5 1.7377326152744614e+00 -1.8188559542972034e+00 5.3928455556466357e+00 0 0 0
276 2 3.6908085866563671e+00 -1.7786361225319152e+00 3.5350195731813643e+00 0 0 0
295 5 3.6205678133865447e+00 -7.9600033275964641e-02 5.4306781999006768e+00 0 0 0
279 2 7.1822195149903303e+00 -3.6254941696560428e+00 5.3740142867976717e+00 0 0 0
261 4 -8.9779403192395328e+00 -1.8162793649804396e+00 5.3093161419944161e+00 0 0 0
38 4 5.4621235999124140e+00 -3.5794114062698701e+00 7.1917283154518588e+00 0 0 -1
277 1 5.4355662518163976e+00 -1.7585807555369961e+00 5.4340283669109928e+00 0 0 0
280 4 7.2589261791447344e+00 -1.8183401497005256e+00 3.6317545113550467e+00 0 0 0
283 4 -7.1763612146730384e+00 -5.3632117405829779e-02 5.3591612351711602e+00 0 0 0
66 2 -5.3861932636400782e+00 3.5920248795038625e+00 -7.1340110363615574e+00 0 0 0
285 4 -5.4595843232765615e+00 1.8371825728238456e+00 5.3914435595244514e+00 0 0 0
62 4 9.0014571212240124e+00 3.5986767051179727e+00 7.1935671193642499e+00 -1 0 -1
302 4 8.9766008368877177e+00 3.6262479532039511e+00 3.6449585250998977e+00 -1 0 0
288 5 -3.7929260471499919e+00 1.6777127373419629e+00 3.5151185247462480e+00 0 0 0
287 2 -3.6657951090729348e+00 -7.9563114176904644e-03 5.3506369694181233e+00 0 0 0
48 3 -3.6873092172663964e+00 1.8120908913817075e+00 7.1909471023620393e+00 0 0 -1
289 3 -1.9045293354967860e+00 1.6672155997005831e+00 5.2116480055171399e+00 0 0 0
292 5 -4.4833299271561627e-02 1.6226776826261340e+00 3.4319254685156477e+00 0 0 0
294 2 1.8590760337757739e+00 -3.2236697340214866e-03 3.5684458334216633e+00 0 0 0
52 3 5.4863122218565971e-02 1.8579101443828614e+00 7.0239967279629818e+00 0 0 -1
293 2 1.8485086170093825e+00 1.7845446414654984e+00 5.2606560309475707e+00 0 0 0
54 3 1.8869979803531765e+00 -2.2295480629137752e-02 -7.2009533003963799e+00 0 0 0
296 3 3.7644432837187347e+00 1.8154545011606888e+00 3.7168560330707066e+00 0 0 0
58 2 5.4202359203606507e+00 -2.5366303318789953e-02 -7.1688858812482543e+00 0 0 0
300 1 7.1512281861321974e+00 1.8672208545446254e+00 3.5679357499348670e+00 0 0 0
318 1 5.4137229691728210e+00 3.6918846479075573e+00 3.6499406829044818e+00 0 0 0
298 2 5.5094925479810959e+00 3.3380963020543247e-02 3.7109891118989062e+00 0 0 0
299 2 7.2212527473548409e+00 1.0494267178021106e-02 5.3936922596346388e+00 0 0 0
281 4 8.9927305433039280e+00 1.7757110659345419e+00 5.3615038479293311e+00 -1 0 0
297 4 5.5549073415744274e+00 1.8072396648182634e+00 5.4424863060691671e+00 0 0 0
306 1 -5.4008132194724263e+00 3.5903612968538066e+00 3.6237427353875682e+00 0 0 0
304 4 -7.1739947975810816e+00 5.3975835676300434e+00 3.5665835499039851e+00 0 0 0
64 5 -7.2057429023236317e+00 5.4190358986916998e+00 -7.1740469873556822e+00 0 0 0
303 1 -7.2213955553426787e+00 3.6677858965622945e+00 5.4333257908545614e+00 0 0 0
305 4 -5.4348292708852695e+00 5.4074935251787482e+00 5.4046454866835765e+00 0 0 0
70 5 -1.7795559121339277e+00 3.5018347638123526e+00 7.0967631600726797e+00 0 0 -1
68 4 -3.6872224504647466e+00 5.3906389454141221e+00 -7.1841527358409367e+00 0 0 0
307 3 -3.7277870219074791e+00 3.6130120473763352e+00 5.3377452432767649e+00 0 0 0
309 3 -1.9001603651054588e+00 5.5167455089311996e+00 5.3906247718003755e+00 0 0 0
312 5 -2.0944080348748478e-02 5.4513729996829170e+00 3.7202261346171319e+00 0 0 0
311 3 4.0583794840223552e-03 3.5080591385586710e+00 5.1992785937898267e+00 0 0 0
72 3 -5.9039226596084508e-02 5.3774072101279522e+00 7.0136269242279390e+00 0 0 -1
314 3 1.8205473088171360e+00 3.6355911172590112e+00 3.5907511512510752e+00 0 0 0
316 5 3.5942996716284616e+00 5.4273243346809084e+00 3.5796140008065467e+00 0 0 0
74 5 1.8273050738590180e+00 3.6015973405170132e+00 7.0111490404325627e+00 0 0 -1
313 3 1.8646064413900350e+00 5.4572017721089114e+00 5.3913244894258447e+00 0 0 0
76 2 3.6774854503080872e+00 5.4223107043906298e+00 7.2025523928903521e+00 0 0 -1
315 1 3.6723234627229568e+00 3.6294153342562789e+00 5.3416797678318400e+00 0 0 0
259 1 7.2109607200822659e+00 7.1908401989565354e+00 5.3921725743188427e+00 0 -1 0
301 1 8.9566144341461591e+00 5.4075503514626115e+00 5.4285688633403915e+00 -1 0 0
317 4 5.3744900711240886e+00 5.4549088855071348e+00 5.4155846017333351e+00 0 0 0
319 2 7.2178195490873991e+00 3.6412440985217258e+00 5.3626572023554937e+00 0 0 0
320 1 7.2035380088612815e+00 5.4204727027935604e+00 3.6151009270981036e+00 0 0 0

Velocities

84 8.2031976618062274e-01 -2.9358822536857041e-02 1.4255149609583928e+00
5 -9.4825000701808870e-01 5.6375574055291711e-01 -1.7869971025152578e-01
4 -5.7696591955814658e-01 -5.0563071259624937e-01 -1.0026021205460951e+00
1 6.1006739994644588e-01 1.7850719731997394e-01 2.4453704976738247e-01
22 2.5224891211359388e-02 -7.7053812349129347e-01 2.2940117901077697e+00
3 -9.1820786065903559e-01 3.8871754960529292e-01 1.3454322976608841e+00
106 -1.8082463425804642e+00 -1.3438978613541823e+00 2.0983127100080590e+00
8 4.2382985196109435e-01 -3.8908495515525471e-01 9.3761510403463011e-01
9 4.9944833587019821e-01 -1.1116340516410861e+00 1.2580965809378795e+00
10 -6.9513509638750887e-02 1.0776721343879005e+00 -2.7753289172039153e-01
6 -4.8341787327011715e-01 1.2266074066136771e-01 -2.1696980061185820e+00
88 -9.1011384202746382e-01 -9.4642665301676299e-01 1.8475181822304538e+00
90 -4.0564566555796744e-01 1.1721800706457175e+00 4.2340441545192137e-01
31 -2.6006828367866541e-01 6.1369296757066083e-01 -6.6294186035591196e-01
12 7.4399870313457062e-01 1.2449669160236019e+00 7.0103748809438871e-01
114 -1.0680794712332338e+00 -1.3298847470550723e+00 -1.2616999774281812e-01
92 -2.2028220996983578e+00 4.6895730941727465e-01 9.1147777111628325e-01
110 -6.5717610960868089e-01 3.2533789103970367e-02 -4.9615259458362393e-01
13 -4.6552415730046148e-02 -6.5566478389702754e-01 1.8417158975222234e+00
17 -1.3396591892449567e+00 -9.0784484468799373e-02 8.8526407239770688e-01
16 -1.5677326377174383e+00 1.2300067096042397e+00 -1.2343234102284955e+00
35 1.3698958852127354e+00 5.5569200080768377e-01 1.2508396037950900e+00
100 6.6009657768582253e-01 -8.2242581672597503e-01 -1.1454936862916625e+00
19 4.3187360531475111e-01 1.3503177302698111e-01 2.2734896165485714e+00
23 4.8923951674004307e-01 8.1326920337726283e-01 8.0482336446115899e-01
24 -1.5398789388240837e+00 -1.0340727882496112e+00 1.9729311176557240e+00
43 -2.3515570707302047e-01 -4.1446431962574637e-01 1.5831489263716086e-01
46 3.1032921329187496e-01 -6.3257019618000965e-01 -3.1436436895163733e-01
27 1.6577872077393427e-01 -3.5595683600796435e-01 1.1011031776868847e-01
25 -1.7927738219464786e+00 -1.5134878268153313e+00 -3.1604445052246632e-01
47 -1.0073043692906678e+00 3.7386222891852992e+00 1.3838493662033089e+00
29 -8.9355952726585153e-01 -7.7456585573942027e-01 -1.1521099912784614e+00
51 2.3945454790586091e+00 8.8438320127496750e-01 -1.6870606295440842e+00
32 2.7697847081866827e+00 9.9139716429747460e-01 -4.3694398890985386e-01
112 -3.5388478239717497e-01 -4.2153944235210739e-01 -5.8851954571394416e-01
34 -1.1161540817711155e+00 -1.6196526244885820e+00 -8.6049500006717750e-01
33 -3.3346098999227308e-01 -2.1047693085794559e+00 -1.2129566585754057e+00
36 -9.0268021147821109e-01 2.6428176999740760e-01 -3.5767817095009308e-01
55 1.7148174706831245e+00 4.4216169212285988e-01 2.7039032348536335e-01