# LAMMPS data file written by OVITO Basic 3.8.4

2 atoms
2 atom types

0.0 3.32 xlo xhi
0.0 3.32 ylo yhi
0.0 3.32 zlo zhi

Masses

1 92.9060  # Nb
2 180.9480 # Ta

Atoms  # atomic

1 1 0.0 0.0 0.0
2 2 1.66 1.66 1.66
