# LAMMPS data file written by OVITO Basic 3.8.4

2 atoms
2 atom types

0.0 3.26 xlo xhi
0.0 3.26 ylo yhi
0.0 3.26 zlo zhi

Masses

1 92.9060 # Nb
2 47.8800 # Ti

Atoms  # atomic

1 1 0.0 0.0 0.0
2 2 1.63 1.63 1.63
