# LAMMPS data file written by OVITO Basic 3.8.4

2 atoms
2 atom types

0.0 3.27 xlo xhi
0.0 3.27 ylo yhi
0.0 3.27 zlo zhi

Masses

1 180.9480 # Ta
2 47.8800 # Ti

Atoms  # atomic

1 1 0.0 0.0 0.0
2 2 1.635 1.635 1.635
