# LAMMPS data file written by OVITO Basic 3.8.4

2 atoms
2 atom types

0.0 3.43 xlo xhi
0.0 3.43 ylo yhi
0.0 3.43 zlo zhi

Masses

1 180.9480 # Ta
2 91.2200 # Zr

Atoms  # atomic

1 1 0.0 0.0 0.0
2 2 1.715 1.715 1.715
