# LAMMPS data file written by OVITO Basic 3.8.4

2 atoms
2 atom types

0.0 3.16 xlo xhi
0.0 3.16 ylo yhi
0.0 3.16 zlo zhi

Masses

1 50.942  # V
2 92.9060 # Nb

Atoms  # atomic

1 1 0.0 0.0 0.0
2 2 1.58 1.58 1.58
