LAMMPS (22 Dec 2022)
  using 1 OpenMP thread(s) per MPI task
Loaded 1 plugins from C:\Program Files\LAMMPS 64-bit 23Jun2022\plugins
Loaded 0 plugins from C:\Program Files\LAMMPS 64-bit 23Jun2022-MPI\plugins
Loaded 1 plugins from C:\Program Files\LAMMPS 64-bit 22Dec2022-MSMPI\plugins
Loaded 1 plugins from C:\Program Files\LAMMPS 64-bit 28Mar2023-MPI\plugins
#------------------------------------------------------------------------------------------
# LAMMPS 64-bit 22Dec2022-MSMPI
#------------------------------------------------------------------------------------------
clear
  using 1 OpenMP thread(s) per MPI task
Loaded 1 plugins from C:\Program Files\LAMMPS 64-bit 23Jun2022\plugins
Loaded 0 plugins from C:\Program Files\LAMMPS 64-bit 23Jun2022-MPI\plugins
Loaded 1 plugins from C:\Program Files\LAMMPS 64-bit 22Dec2022-MSMPI\plugins
Loaded 1 plugins from C:\Program Files\LAMMPS 64-bit 28Mar2023-MPI\plugins
#echo both
# ---------- Initializing Simulation ---------------------------------
units metal
dimension 3
boundary p p p
atom_style atomic
atom_modify map array

#read_data ./../../Ni3Fe.data
read_data ./../../CrN.data
Reading data file ...
  orthogonal box = (0 0 0) to (4.148 4.148 4.148)
  2 by 2 by 2 MPI processor grid
  reading atoms ...
  8 atoms
  read_data CPU = 0.001 seconds
#read_data ./../../NiN.data

replicate 1 1 1
Replication is creating a 1x1x1 = 1 times larger system...
  orthogonal box = (0 0 0) to (4.148 4.148 4.148)
  2 by 2 by 2 MPI processor grid
  8 atoms
  replicate CPU = 0.000 seconds

# ---------- Defining the Interatomic Potential ---------------------
pair_style meam
#pair_coeff * * ./../../library.meam Fe Cr Ni N ./../../FeCrNiN.meam Fe Ni
pair_coeff * * ./../../library.meam Fe Cr Ni N ./../../FeCrNiN.meam Cr N
#pair_coeff * * ./../../library.meam Fe Cr Ni N ./../../FeCrNiN.meam Ni N

# ---------- Running Minimization -------------------------------------
fix 1 all box/relax iso 0.0 vmax 0.001

thermo 10
thermo_style custom step pe etotal lx ly lz vol press pxx pyy pzz

min_style cg
minimize 1e-25 1e-25 5000 10000
Neighbor list info ...
  update: every = 1 steps, delay = 0 steps, check = yes
  max neighbors/atom: 2000, page size: 100000
  master list distance cutoff = 7
  ghost atom cutoff = 7
  binsize = 3.5, bins = 2 2 2
  2 neighbor lists, perpetual/occasional/extra = 2 0 0
  (1) pair meam, perpetual
      attributes: full, newton on
      pair build: full/bin/atomonly
      stencil: full/bin/3d
      bin: standard
  (2) pair meam, perpetual, half/full from (1)
      attributes: half, newton on
      pair build: halffull/newton
      stencil: none
      bin: none
Per MPI rank memory allocation (min/avg/max) = 9.684 | 9.684 | 9.684 Mbytes
   Step         PotEng         TotEng           Lx             Ly             Lz           Volume         Press           Pxx            Pyy            Pzz      
         0  -41.770633     -41.770633      4.148          4.148          4.148          71.37009       43.785535      43.785535      43.785535      43.785535    
         4  -41.770633     -41.770633      4.1480182      4.1480182      4.1480182      71.371029     -1.0982693e-09 -1.0068853e-09 -1.021839e-09  -1.2660835e-09
Loop time of 0.00210475 on 8 procs for 4 steps with 8 atoms

0.0% CPU use with 8 MPI tasks x 1 OpenMP threads

Minimization stats:
  Stopping criterion = energy tolerance
  Energy initial, next-to-last, final = 
     -41.7706333081231   -41.770633320954   -41.770633320954
  Force two-norm initial, final = 0.0058513733 1.4678897e-13
  Force max component initial, final = 0.0058513733 1.4677084e-13
  Final line search alpha, max atom move = 1 1.4677084e-13
  Iterations, force evaluations = 4 8

MPI task timing breakdown:
Section |  min time  |  avg time  |  max time  |%varavg| %total
---------------------------------------------------------------
Pair    | 0.001298   | 0.0013416  | 0.001504   |   0.2 | 63.74
Neigh   | 0          | 0          | 0          |   0.0 |  0.00
Comm    | 0.000245   | 0.0004095  | 0.000454   |   0.0 | 19.46
Output  | 0          | 0          | 0          |   0.0 |  0.00
Modify  | 0          | 0          | 0          |   0.0 |  0.00
Other   |            | 0.0003536  |            |       | 16.80

Nlocal:              1 ave           1 max           1 min
Histogram: 8 0 0 0 0 0 0 0 0 0
Nghost:            511 ave         511 max         511 min
Histogram: 8 0 0 0 0 0 0 0 0 0
Neighs:             85 ave          85 max          85 min
Histogram: 8 0 0 0 0 0 0 0 0 0
FullNghs:          170 ave         170 max         170 min
Histogram: 8 0 0 0 0 0 0 0 0 0

Total # of neighbors = 1360
Ave neighs/atom = 170
Neighbor list builds = 0
Dangerous builds = 0

variable  natoms equal "count(all)"
variable      x0 equal "lx"
variable      y0 equal "ly"
variable      z0 equal "lz"
variable      v0 equal "vol"
variable   etot0 equal "etotal"
variable   ecoh0 equal "pe/v_natoms"

unfix 1
write_data ./../step2_elastic/data.in
System init for write_data ...

# ---------- For Equation of States -------------------------------------
change_box all x scale 0.94 y scale 0.94 z scale 0.94 remap
Changing box ...
  orthogonal box = (0.12443145 -9.0958083e-06 -9.0958083e-06) to (4.0235686 4.1480091 4.1480091)
  orthogonal box = (0.12443145 0.12443145 -9.0958083e-06) to (4.0235686 4.0235686 4.1480091)
  orthogonal box = (0.12443145 0.12443145 0.12443145) to (4.0235686 4.0235686 4.0235686)
run 1
WARNING: No fixes with time integration, atoms won't move (src/verlet.cpp:60)
WARNING: Proc sub-domain size < neighbor skin, could lead to lost atoms (src/domain.cpp:966)
Per MPI rank memory allocation (min/avg/max) = 8.559 | 8.559 | 8.559 Mbytes
   Step         PotEng         TotEng           Lx             Ly             Lz           Volume         Press           Pxx            Pyy            Pzz      
         4  -38.750168     -38.750168      3.8991371      3.8991371      3.8991371      59.279635      951719.69      951719.69      951719.69      951719.69    
         5  -38.750168     -38.750168      3.8991371      3.8991371      3.8991371      59.279635      951719.69      951719.69      951719.69      951719.69    
Loop time of 0.000192875 on 8 procs for 1 steps with 8 atoms

Performance: 447.959 ns/day, 0.054 hours/ns, 5184.705 timesteps/s, 41.478 katom-step/s
0.0% CPU use with 8 MPI tasks x 1 OpenMP threads

MPI task timing breakdown:
Section |  min time  |  avg time  |  max time  |%varavg| %total
---------------------------------------------------------------
Pair    | 0.000145   | 0.0001475  | 0.000151   |   0.0 | 76.47
Neigh   | 0          | 0          | 0          |   0.0 |  0.00
Comm    | 2.4e-05    | 2.75e-05   | 3.1e-05    |   0.0 | 14.26
Output  | 1.2e-05    | 1.2625e-05 | 1.3e-05    |   0.0 |  6.55
Modify  | 0          | 2.5e-07    | 1e-06      |   0.0 |  0.13
Other   |            | 5e-06      |            |       |  2.59

Nlocal:              1 ave           1 max           1 min
Histogram: 8 0 0 0 0 0 0 0 0 0
Nghost:            511 ave         511 max         511 min
Histogram: 8 0 0 0 0 0 0 0 0 0
Neighs:             89 ave          89 max          89 min
Histogram: 8 0 0 0 0 0 0 0 0 0
FullNghs:          178 ave         178 max         178 min
Histogram: 8 0 0 0 0 0 0 0 0 0

Total # of neighbors = 1424
Ave neighs/atom = 178
Neighbor list builds = 0
Dangerous builds = 0
print "# Lattice constant (Angstroms), Volume (Angstrom), Total energy (eV), Cohesive energy (eV/atom)" file lattice_cohesive_energy.txt screen no


# Loop over lattice constants
variable i loop 49 # Number of steps
label loop

change_box all x scale 1.0025 y scale 1.0025 z scale 1.0025 remap
Changing box ...
  orthogonal box = (0.11955753 0.12443145 0.12443145) to (4.0284425 4.0235686 4.0235686)
  orthogonal box = (0.11955753 0.11955753 0.12443145) to (4.0284425 4.0284425 4.0235686)
  orthogonal box = (0.11955753 0.11955753 0.11955753) to (4.0284425 4.0284425 4.0284425)

run 1
WARNING: No fixes with time integration, atoms won't move (src/verlet.cpp:60)
WARNING: Proc sub-domain size < neighbor skin, could lead to lost atoms (src/domain.cpp:966)
Per MPI rank memory allocation (min/avg/max) = 8.559 | 8.559 | 8.559 Mbytes
   Step         PotEng         TotEng           Lx             Ly             Lz           Volume         Press           Pxx            Pyy            Pzz      
         5  -39.007393     -39.007393      3.9088849      3.9088849      3.9088849      59.725344      897878.19      897878.19      897878.19      897878.19    
         6  -39.007393     -39.007393      3.9088849      3.9088849      3.9088849      59.725344      897878.19      897878.19      897878.19      897878.19    
Loop time of 0.000174875 on 8 procs for 1 steps with 8 atoms

Performance: 494.067 ns/day, 0.049 hours/ns, 5718.370 timesteps/s, 45.747 katom-step/s
0.0% CPU use with 8 MPI tasks x 1 OpenMP threads

MPI task timing breakdown:
Section |  min time  |  avg time  |  max time  |%varavg| %total
---------------------------------------------------------------
Pair    | 0.00013    | 0.00013375 | 0.000136   |   0.0 | 76.48
Neigh   | 0          | 0          | 0          |   0.0 |  0.00
Comm    | 2.2e-05    | 2.475e-05  | 2.9e-05    |   0.0 | 14.15
Output  | 1.2e-05    | 1.2125e-05 | 1.3e-05    |   0.0 |  6.93
Modify  | 0          | 2.5e-07    | 1e-06      |   0.0 |  0.14
Other   |            | 4e-06      |            |       |  2.29

Nlocal:              1 ave           1 max           1 min
Histogram: 8 0 0 0 0 0 0 0 0 0
Nghost:            511 ave         511 max         511 min
Histogram: 8 0 0 0 0 0 0 0 0 0
Neighs:             89 ave          89 max          89 min
Histogram: 8 0 0 0 0 0 0 0 0 0
FullNghs:          178 ave         178 max         178 min
Histogram: 8 0 0 0 0 0 0 0 0 0

Total # of neighbors = 1424
Ave neighs/atom = 178
Neighbor list builds = 0
Dangerous builds = 0
variable  natoms equal "count(all)"
variable xlength equal "lx"
variable  volume equal "vol"
variable  etotal equal "etotal"
variable    ecoh equal "pe/v_natoms"
print "${xlength}, ${volume}, ${etotal}, ${ecoh}" append lattice_cohesive_energy.txt screen no

next i
jump SELF loop

change_box all x scale 1.0025 y scale 1.0025 z scale 1.0025 remap
Changing box ...
  orthogonal box = (0.11467142 0.11955753 0.11955753) to (4.0333286 4.0284425 4.0284425)
  orthogonal box = (0.11467142 0.11467142 0.11955753) to (4.0333286 4.0333286 4.0284425)
  orthogonal box = (0.11467142 0.11467142 0.11467142) to (4.0333286 4.0333286 4.0333286)

run 1
WARNING: No fixes with time integration, atoms won't move (src/verlet.cpp:60)
WARNING: Proc sub-domain size < neighbor skin, could lead to lost atoms (src/domain.cpp:966)
Per MPI rank memory allocation (min/avg/max) = 8.559 | 8.559 | 8.559 Mbytes
   Step         PotEng         TotEng           Lx             Ly             Lz           Volume         Press           Pxx            Pyy            Pzz      
         6  -39.251676     -39.251676      3.9186572      3.9186572      3.9186572      60.174405      845557.27      845557.27      845557.27      845557.27    
         7  -39.251676     -39.251676      3.9186572      3.9186572      3.9186572      60.174405      845557.27      845557.27      845557.27      845557.27    
Loop time of 0.00022125 on 8 procs for 1 steps with 8 atoms

Performance: 390.508 ns/day, 0.061 hours/ns, 4519.774 timesteps/s, 36.158 katom-step/s
0.0% CPU use with 8 MPI tasks x 1 OpenMP threads

MPI task timing breakdown:
Section |  min time  |  avg time  |  max time  |%varavg| %total
---------------------------------------------------------------
Pair    | 0.000142   | 0.00015575 | 0.000182   |   0.0 | 70.40
Neigh   | 0          | 0          | 0          |   0.0 |  0.00
Comm    | 2.2e-05    | 4.825e-05  | 6.2e-05    |   0.0 | 21.81
Output  | 1.2e-05    | 1.275e-05  | 1.3e-05    |   0.0 |  5.76
Modify  | 0          | 2.5e-07    | 2e-06      |   0.0 |  0.11
Other   |            | 4.25e-06   |            |       |  1.92

Nlocal:              1 ave           1 max           1 min
Histogram: 8 0 0 0 0 0 0 0 0 0
Nghost:            511 ave         511 max         511 min
Histogram: 8 0 0 0 0 0 0 0 0 0
Neighs:             89 ave          89 max          89 min
Histogram: 8 0 0 0 0 0 0 0 0 0
FullNghs:          178 ave         178 max         178 min
Histogram: 8 0 0 0 0 0 0 0 0 0

Total # of neighbors = 1424
Ave neighs/atom = 178
Neighbor list builds = 0
Dangerous builds = 0
variable  natoms equal "count(all)"
variable xlength equal "lx"
variable  volume equal "vol"
variable  etotal equal "etotal"
variable    ecoh equal "pe/v_natoms"
print "${xlength}, ${volume}, ${etotal}, ${ecoh}" append lattice_cohesive_energy.txt screen no

next i
jump SELF loop

change_box all x scale 1.0025 y scale 1.0025 z scale 1.0025 remap
Changing box ...
  orthogonal box = (0.1097731 0.11467142 0.11467142) to (4.0382269 4.0333286 4.0333286)
  orthogonal box = (0.1097731 0.1097731 0.11467142) to (4.0382269 4.0382269 4.0333286)
  orthogonal box = (0.1097731 0.1097731 0.1097731) to (4.0382269 4.0382269 4.0382269)

run 1
WARNING: No fixes with time integration, atoms won't move (src/verlet.cpp:60)
WARNING: Proc sub-domain size < neighbor skin, could lead to lost atoms (src/domain.cpp:966)
Per MPI rank memory allocation (min/avg/max) = 8.559 | 8.559 | 8.559 Mbytes
   Step         PotEng         TotEng           Lx             Ly             Lz           Volume         Press           Pxx            Pyy            Pzz      
         7  -39.483231     -39.483231      3.9284538      3.9284538      3.9284538      60.626842      794724.88      794724.88      794724.88      794724.88    
         8  -39.483231     -39.483231      3.9284538      3.9284538      3.9284538      60.626842      794724.88      794724.88      794724.88      794724.88    
Loop time of 0.000207125 on 8 procs for 1 steps with 8 atoms

Performance: 417.139 ns/day, 0.058 hours/ns, 4828.002 timesteps/s, 38.624 katom-step/s
943.0% CPU use with 8 MPI tasks x 1 OpenMP threads

MPI task timing breakdown:
Section |  min time  |  avg time  |  max time  |%varavg| %total
---------------------------------------------------------------
Pair    | 0.000137   | 0.000144   | 0.000165   |   0.0 | 69.52
Neigh   | 0          | 0          | 0          |   0.0 |  0.00
Comm    | 2.2e-05    | 4.2875e-05 | 4.9e-05    |   0.0 | 20.70
Output  | 1.3e-05    | 1.4e-05    | 1.5e-05    |   0.0 |  6.76
Modify  | 0          | 0          | 0          |   0.0 |  0.00
Other   |            | 6.25e-06   |            |       |  3.02

Nlocal:              1 ave           1 max           1 min
Histogram: 8 0 0 0 0 0 0 0 0 0
Nghost:            511 ave         511 max         511 min
Histogram: 8 0 0 0 0 0 0 0 0 0
Neighs:             89 ave          89 max          89 min
Histogram: 8 0 0 0 0 0 0 0 0 0
FullNghs:          178 ave         178 max         178 min
Histogram: 8 0 0 0 0 0 0 0 0 0

Total # of neighbors = 1424
Ave neighs/atom = 178
Neighbor list builds = 0
Dangerous builds = 0
variable  natoms equal "count(all)"
variable xlength equal "lx"
variable  volume equal "vol"
variable  etotal equal "etotal"
variable    ecoh equal "pe/v_natoms"
print "${xlength}, ${volume}, ${etotal}, ${ecoh}" append lattice_cohesive_energy.txt screen no

next i
jump SELF loop

change_box all x scale 1.0025 y scale 1.0025 z scale 1.0025 remap
Changing box ...
  orthogonal box = (0.10486253 0.1097731 0.1097731) to (4.0431375 4.0382269 4.0382269)
  orthogonal box = (0.10486253 0.10486253 0.1097731) to (4.0431375 4.0431375 4.0382269)
  orthogonal box = (0.10486253 0.10486253 0.10486253) to (4.0431375 4.0431375 4.0431375)

run 1
WARNING: No fixes with time integration, atoms won't move (src/verlet.cpp:60)
WARNING: Proc sub-domain size < neighbor skin, could lead to lost atoms (src/domain.cpp:966)
Per MPI rank memory allocation (min/avg/max) = 8.559 | 8.559 | 8.559 Mbytes
   Step         PotEng         TotEng           Lx             Ly             Lz           Volume         Press           Pxx            Pyy            Pzz      
         8  -39.702273     -39.702273      3.9382749      3.9382749      3.9382749      61.082681      745349.52      745349.52      745349.52      745349.52    
         9  -39.702273     -39.702273      3.9382749      3.9382749      3.9382749      61.082681      745349.52      745349.52      745349.52      745349.52    
Loop time of 0.000177125 on 8 procs for 1 steps with 8 atoms

Performance: 487.791 ns/day, 0.049 hours/ns, 5645.730 timesteps/s, 45.166 katom-step/s
0.0% CPU use with 8 MPI tasks x 1 OpenMP threads

MPI task timing breakdown:
Section |  min time  |  avg time  |  max time  |%varavg| %total
---------------------------------------------------------------
Pair    | 0.000134   | 0.0001365  | 0.00014    |   0.0 | 77.06
Neigh   | 0          | 0          | 0          |   0.0 |  0.00
Comm    | 2.1e-05    | 2.475e-05  | 2.8e-05    |   0.0 | 13.97
Output  | 1.1e-05    | 1.1625e-05 | 1.2e-05    |   0.0 |  6.56
Modify  | 0          | 2.5e-07    | 1e-06      |   0.0 |  0.14
Other   |            | 4e-06      |            |       |  2.26

Nlocal:              1 ave           1 max           1 min
Histogram: 8 0 0 0 0 0 0 0 0 0
Nghost:            511 ave         511 max         511 min
Histogram: 8 0 0 0 0 0 0 0 0 0
Neighs:             89 ave          89 max          89 min
Histogram: 8 0 0 0 0 0 0 0 0 0
FullNghs:          178 ave         178 max         178 min
Histogram: 8 0 0 0 0 0 0 0 0 0

Total # of neighbors = 1424
Ave neighs/atom = 178
Neighbor list builds = 0
Dangerous builds = 0
variable  natoms equal "count(all)"
variable xlength equal "lx"
variable  volume equal "vol"
variable  etotal equal "etotal"
variable    ecoh equal "pe/v_natoms"
print "${xlength}, ${volume}, ${etotal}, ${ecoh}" append lattice_cohesive_energy.txt screen no

next i
jump SELF loop

change_box all x scale 1.0025 y scale 1.0025 z scale 1.0025 remap
Changing box ...
  orthogonal box = (0.09993969 0.10486253 0.10486253) to (4.0480603 4.0431375 4.0431375)
  orthogonal box = (0.09993969 0.09993969 0.10486253) to (4.0480603 4.0480603 4.0431375)
  orthogonal box = (0.09993969 0.09993969 0.09993969) to (4.0480603 4.0480603 4.0480603)

run 1
WARNING: No fixes with time integration, atoms won't move (src/verlet.cpp:60)
WARNING: Proc sub-domain size < neighbor skin, could lead to lost atoms (src/domain.cpp:966)
Per MPI rank memory allocation (min/avg/max) = 8.559 | 8.559 | 8.559 Mbytes
   Step         PotEng         TotEng           Lx             Ly             Lz           Volume         Press           Pxx            Pyy            Pzz      
         9  -39.909014     -39.909014      3.9481206      3.9481206      3.9481206      61.541948      697400.19      697400.19      697400.19      697400.19    
        10  -39.909014     -39.909014      3.9481206      3.9481206      3.9481206      61.541948      697400.19      697400.19      697400.19      697400.19    
Loop time of 0.000199625 on 8 procs for 1 steps with 8 atoms

Performance: 432.812 ns/day, 0.055 hours/ns, 5009.393 timesteps/s, 40.075 katom-step/s
0.0% CPU use with 8 MPI tasks x 1 OpenMP threads

MPI task timing breakdown:
Section |  min time  |  avg time  |  max time  |%varavg| %total
---------------------------------------------------------------
Pair    | 0.00014    | 0.00014412 | 0.000149   |   0.0 | 72.20
Neigh   | 0          | 0          | 0          |   0.0 |  0.00
Comm    | 2.4e-05    | 2.9125e-05 | 3.3e-05    |   0.0 | 14.59
Output  | 1.2e-05    | 1.3375e-05 | 2.1e-05    |   0.0 |  6.70
Modify  | 0          | 2.5e-07    | 1e-06      |   0.0 |  0.13
Other   |            | 1.275e-05  |            |       |  6.39

Nlocal:              1 ave           1 max           1 min
Histogram: 8 0 0 0 0 0 0 0 0 0
Nghost:            511 ave         511 max         511 min
Histogram: 8 0 0 0 0 0 0 0 0 0
Neighs:             89 ave          89 max          89 min
Histogram: 8 0 0 0 0 0 0 0 0 0
FullNghs:          178 ave         178 max         178 min
Histogram: 8 0 0 0 0 0 0 0 0 0

Total # of neighbors = 1424
Ave neighs/atom = 178
Neighbor list builds = 0
Dangerous builds = 0
variable  natoms equal "count(all)"
variable xlength equal "lx"
variable  volume equal "vol"
variable  etotal equal "etotal"
variable    ecoh equal "pe/v_natoms"
print "${xlength}, ${volume}, ${etotal}, ${ecoh}" append lattice_cohesive_energy.txt screen no

next i
jump SELF loop

change_box all x scale 1.0025 y scale 1.0025 z scale 1.0025 remap
Changing box ...
  orthogonal box = (0.095004539 0.09993969 0.09993969) to (4.0529955 4.0480603 4.0480603)
  orthogonal box = (0.095004539 0.095004539 0.09993969) to (4.0529955 4.0529955 4.0480603)
  orthogonal box = (0.095004539 0.095004539 0.095004539) to (4.0529955 4.0529955 4.0529955)

run 1
WARNING: No fixes with time integration, atoms won't move (src/verlet.cpp:60)
WARNING: Proc sub-domain size < neighbor skin, could lead to lost atoms (src/domain.cpp:966)
Per MPI rank memory allocation (min/avg/max) = 8.559 | 8.559 | 8.559 Mbytes
   Step         PotEng         TotEng           Lx             Ly             Lz           Volume         Press           Pxx            Pyy            Pzz      
        10  -40.103664     -40.103664      3.9579909      3.9579909      3.9579909      62.004667      650846.42      650846.42      650846.42      650846.42    
        11  -40.103664     -40.103664      3.9579909      3.9579909      3.9579909      62.004667      650846.42      650846.42      650846.42      650846.42    
Loop time of 0.00019475 on 8 procs for 1 steps with 8 atoms

Performance: 443.646 ns/day, 0.054 hours/ns, 5134.788 timesteps/s, 41.078 katom-step/s
0.0% CPU use with 8 MPI tasks x 1 OpenMP threads

MPI task timing breakdown:
Section |  min time  |  avg time  |  max time  |%varavg| %total
---------------------------------------------------------------
Pair    | 0.000134   | 0.000141   | 0.000157   |   0.0 | 72.40
Neigh   | 0          | 0          | 0          |   0.0 |  0.00
Comm    | 2.1e-05    | 3.725e-05  | 4.5e-05    |   0.0 | 19.13
Output  | 1.1e-05    | 1.1625e-05 | 1.2e-05    |   0.0 |  5.97
Modify  | 0          | 2.5e-07    | 1e-06      |   0.0 |  0.13
Other   |            | 4.625e-06  |            |       |  2.37

Nlocal:              1 ave           1 max           1 min
Histogram: 8 0 0 0 0 0 0 0 0 0
Nghost:            511 ave         511 max         511 min
Histogram: 8 0 0 0 0 0 0 0 0 0
Neighs:             89 ave          89 max          89 min
Histogram: 8 0 0 0 0 0 0 0 0 0
FullNghs:          178 ave         178 max         178 min
Histogram: 8 0 0 0 0 0 0 0 0 0

Total # of neighbors = 1424
Ave neighs/atom = 178
Neighbor list builds = 0
Dangerous builds = 0
variable  natoms equal "count(all)"
variable xlength equal "lx"
variable  volume equal "vol"
variable  etotal equal "etotal"
variable    ecoh equal "pe/v_natoms"
print "${xlength}, ${volume}, ${etotal}, ${ecoh}" append lattice_cohesive_energy.txt screen no

next i
jump SELF loop

change_box all x scale 1.0025 y scale 1.0025 z scale 1.0025 remap
Changing box ...
  orthogonal box = (0.090057051 0.095004539 0.095004539) to (4.0579429 4.0529955 4.0529955)
  orthogonal box = (0.090057051 0.090057051 0.095004539) to (4.0579429 4.0579429 4.0529955)
  orthogonal box = (0.090057051 0.090057051 0.090057051) to (4.0579429 4.0579429 4.0579429)

run 1
WARNING: No fixes with time integration, atoms won't move (src/verlet.cpp:60)
WARNING: Proc sub-domain size < neighbor skin, could lead to lost atoms (src/domain.cpp:966)
Per MPI rank memory allocation (min/avg/max) = 8.559 | 8.559 | 8.559 Mbytes
   Step         PotEng         TotEng           Lx             Ly             Lz           Volume         Press           Pxx            Pyy            Pzz      
        11  -40.286431     -40.286431      3.9678859      3.9678859      3.9678859      62.470866      605658.25      605658.25      605658.25      605658.25    
        12  -40.286431     -40.286431      3.9678859      3.9678859      3.9678859      62.470866      605658.25      605658.25      605658.25      605658.25    
Loop time of 0.000165125 on 8 procs for 1 steps with 8 atoms

Performance: 523.240 ns/day, 0.046 hours/ns, 6056.018 timesteps/s, 48.448 katom-step/s
0.0% CPU use with 8 MPI tasks x 1 OpenMP threads

MPI task timing breakdown:
Section |  min time  |  avg time  |  max time  |%varavg| %total
---------------------------------------------------------------
Pair    | 0.000126   | 0.00012812 | 0.000129   |   0.0 | 77.59
Neigh   | 0          | 0          | 0          |   0.0 |  0.00
Comm    | 1.9e-05    | 2.1125e-05 | 2.4e-05    |   0.0 | 12.79
Output  | 1.1e-05    | 1.1625e-05 | 1.2e-05    |   0.0 |  7.04
Modify  | 0          | 1.25e-07   | 1e-06      |   0.0 |  0.08
Other   |            | 4.125e-06  |            |       |  2.50

Nlocal:              1 ave           1 max           1 min
Histogram: 8 0 0 0 0 0 0 0 0 0
Nghost:            511 ave         511 max         511 min
Histogram: 8 0 0 0 0 0 0 0 0 0
Neighs:             89 ave          89 max          89 min
Histogram: 8 0 0 0 0 0 0 0 0 0
FullNghs:          178 ave         178 max         178 min
Histogram: 8 0 0 0 0 0 0 0 0 0

Total # of neighbors = 1424
Ave neighs/atom = 178
Neighbor list builds = 0
Dangerous builds = 0
variable  natoms equal "count(all)"
variable xlength equal "lx"
variable  volume equal "vol"
variable  etotal equal "etotal"
variable    ecoh equal "pe/v_natoms"
print "${xlength}, ${volume}, ${etotal}, ${ecoh}" append lattice_cohesive_energy.txt screen no

next i
jump SELF loop

change_box all x scale 1.0025 y scale 1.0025 z scale 1.0025 remap
Changing box ...
  orthogonal box = (0.085097193 0.090057051 0.090057051) to (4.0629028 4.0579429 4.0579429)
  orthogonal box = (0.085097193 0.085097193 0.090057051) to (4.0629028 4.0629028 4.0579429)
  orthogonal box = (0.085097193 0.085097193 0.085097193) to (4.0629028 4.0629028 4.0629028)

run 1
WARNING: No fixes with time integration, atoms won't move (src/verlet.cpp:60)
WARNING: Proc sub-domain size < neighbor skin, could lead to lost atoms (src/domain.cpp:966)
Per MPI rank memory allocation (min/avg/max) = 8.559 | 8.559 | 8.559 Mbytes
   Step         PotEng         TotEng           Lx             Ly             Lz           Volume         Press           Pxx            Pyy            Pzz      
        12  -40.457521     -40.457521      3.9778056      3.9778056      3.9778056      62.94057       561806.25      561806.25      561806.25      561806.25    
        13  -40.457521     -40.457521      3.9778056      3.9778056      3.9778056      62.94057       561806.25      561806.25      561806.25      561806.25    
Loop time of 0.00016475 on 8 procs for 1 steps with 8 atoms

Performance: 524.431 ns/day, 0.046 hours/ns, 6069.803 timesteps/s, 48.558 katom-step/s
0.0% CPU use with 8 MPI tasks x 1 OpenMP threads

MPI task timing breakdown:
Section |  min time  |  avg time  |  max time  |%varavg| %total
---------------------------------------------------------------
Pair    | 0.000127   | 0.00012775 | 0.000129   |   0.0 | 77.54
Neigh   | 0          | 0          | 0          |   0.0 |  0.00
Comm    | 2e-05      | 2.1625e-05 | 2.3e-05    |   0.0 | 13.13
Output  | 1.1e-05    | 1.1375e-05 | 1.2e-05    |   0.0 |  6.90
Modify  | 0          | 2.5e-07    | 1e-06      |   0.0 |  0.15
Other   |            | 3.75e-06   |            |       |  2.28

Nlocal:              1 ave           1 max           1 min
Histogram: 8 0 0 0 0 0 0 0 0 0
Nghost:            511 ave         511 max         511 min
Histogram: 8 0 0 0 0 0 0 0 0 0
Neighs:             89 ave          89 max          89 min
Histogram: 8 0 0 0 0 0 0 0 0 0
FullNghs:          178 ave         178 max         178 min
Histogram: 8 0 0 0 0 0 0 0 0 0

Total # of neighbors = 1424
Ave neighs/atom = 178
Neighbor list builds = 0
Dangerous builds = 0
variable  natoms equal "count(all)"
variable xlength equal "lx"
variable  volume equal "vol"
variable  etotal equal "etotal"
variable    ecoh equal "pe/v_natoms"
print "${xlength}, ${volume}, ${etotal}, ${ecoh}" append lattice_cohesive_energy.txt screen no

next i
jump SELF loop

change_box all x scale 1.0025 y scale 1.0025 z scale 1.0025 remap
Changing box ...
  orthogonal box = (0.080124936 0.085097193 0.085097193) to (4.0678751 4.0629028 4.0629028)
  orthogonal box = (0.080124936 0.080124936 0.085097193) to (4.0678751 4.0678751 4.0629028)
  orthogonal box = (0.080124936 0.080124936 0.080124936) to (4.0678751 4.0678751 4.0678751)

run 1
WARNING: No fixes with time integration, atoms won't move (src/verlet.cpp:60)
WARNING: Proc sub-domain size < neighbor skin, could lead to lost atoms (src/domain.cpp:966)
Per MPI rank memory allocation (min/avg/max) = 8.559 | 8.559 | 8.559 Mbytes
   Step         PotEng         TotEng           Lx             Ly             Lz           Volume         Press           Pxx            Pyy            Pzz      
        13  -40.617139     -40.617139      3.9877501      3.9877501      3.9877501      63.413805      519261.51      519261.51      519261.51      519261.51    
        14  -40.617139     -40.617139      3.9877501      3.9877501      3.9877501      63.413805      519261.51      519261.51      519261.51      519261.51    
Loop time of 0.000163125 on 8 procs for 1 steps with 8 atoms

Performance: 529.655 ns/day, 0.045 hours/ns, 6130.268 timesteps/s, 49.042 katom-step/s
0.0% CPU use with 8 MPI tasks x 1 OpenMP threads

MPI task timing breakdown:
Section |  min time  |  avg time  |  max time  |%varavg| %total
---------------------------------------------------------------
Pair    | 0.000126   | 0.00012675 | 0.000128   |   0.0 | 77.70
Neigh   | 0          | 0          | 0          |   0.0 |  0.00
Comm    | 2e-05      | 2.075e-05  | 2.2e-05    |   0.0 | 12.72
Output  | 1e-05      | 1.0125e-05 | 1.1e-05    |   0.0 |  6.21
Modify  | 0          | 1.25e-07   | 1e-06      |   0.0 |  0.08
Other   |            | 5.375e-06  |            |       |  3.30

Nlocal:              1 ave           1 max           1 min
Histogram: 8 0 0 0 0 0 0 0 0 0
Nghost:            511 ave         511 max         511 min
Histogram: 8 0 0 0 0 0 0 0 0 0
Neighs:             89 ave          89 max          89 min
Histogram: 8 0 0 0 0 0 0 0 0 0
FullNghs:          178 ave         178 max         178 min
Histogram: 8 0 0 0 0 0 0 0 0 0

Total # of neighbors = 1424
Ave neighs/atom = 178
Neighbor list builds = 0
Dangerous builds = 0
variable  natoms equal "count(all)"
variable xlength equal "lx"
variable  volume equal "vol"
variable  etotal equal "etotal"
variable    ecoh equal "pe/v_natoms"
print "${xlength}, ${volume}, ${etotal}, ${ecoh}" append lattice_cohesive_energy.txt screen no

next i
jump SELF loop

change_box all x scale 1.0025 y scale 1.0025 z scale 1.0025 remap
Changing box ...
  orthogonal box = (0.075140249 0.080124936 0.080124936) to (4.0728598 4.0678751 4.0678751)
  orthogonal box = (0.075140249 0.075140249 0.080124936) to (4.0728598 4.0728598 4.0678751)
  orthogonal box = (0.075140249 0.075140249 0.075140249) to (4.0728598 4.0728598 4.0728598)

run 1
WARNING: No fixes with time integration, atoms won't move (src/verlet.cpp:60)
WARNING: Proc sub-domain size < neighbor skin, could lead to lost atoms (src/domain.cpp:966)
Per MPI rank memory allocation (min/avg/max) = 8.559 | 8.559 | 8.559 Mbytes
   Step         PotEng         TotEng           Lx             Ly             Lz           Volume         Press           Pxx            Pyy            Pzz      
        14  -40.765487     -40.765487      3.9977195      3.9977195      3.9977195      63.890599      477995.58      477995.58      477995.58      477995.58    
        15  -40.765487     -40.765487      3.9977195      3.9977195      3.9977195      63.890599      477995.58      477995.58      477995.58      477995.58    
Loop time of 0.00016475 on 8 procs for 1 steps with 8 atoms

Performance: 524.431 ns/day, 0.046 hours/ns, 6069.803 timesteps/s, 48.558 katom-step/s
0.0% CPU use with 8 MPI tasks x 1 OpenMP threads

MPI task timing breakdown:
Section |  min time  |  avg time  |  max time  |%varavg| %total
---------------------------------------------------------------
Pair    | 0.000124   | 0.00012575 | 0.000128   |   0.0 | 76.33
Neigh   | 0          | 0          | 0          |   0.0 |  0.00
Comm    | 2e-05      | 2.275e-05  | 2.5e-05    |   0.0 | 13.81
Output  | 1.1e-05    | 1.1625e-05 | 1.2e-05    |   0.0 |  7.06
Modify  | 0          | 3.75e-07   | 1e-06      |   0.0 |  0.23
Other   |            | 4.25e-06   |            |       |  2.58

Nlocal:              1 ave           1 max           1 min
Histogram: 8 0 0 0 0 0 0 0 0 0
Nghost:            511 ave         511 max         511 min
Histogram: 8 0 0 0 0 0 0 0 0 0
Neighs:             89 ave          89 max          89 min
Histogram: 8 0 0 0 0 0 0 0 0 0
FullNghs:          178 ave         178 max         178 min
Histogram: 8 0 0 0 0 0 0 0 0 0

Total # of neighbors = 1424
Ave neighs/atom = 178
Neighbor list builds = 0
Dangerous builds = 0
variable  natoms equal "count(all)"
variable xlength equal "lx"
variable  volume equal "vol"
variable  etotal equal "etotal"
variable    ecoh equal "pe/v_natoms"
print "${xlength}, ${volume}, ${etotal}, ${ecoh}" append lattice_cohesive_energy.txt screen no

next i
jump SELF loop

change_box all x scale 1.0025 y scale 1.0025 z scale 1.0025 remap
Changing box ...
  orthogonal box = (0.070143099 0.075140249 0.075140249) to (4.0778569 4.0728598 4.0728598)
  orthogonal box = (0.070143099 0.070143099 0.075140249) to (4.0778569 4.0778569 4.0728598)
  orthogonal box = (0.070143099 0.070143099 0.070143099) to (4.0778569 4.0778569 4.0778569)

run 1
WARNING: No fixes with time integration, atoms won't move (src/verlet.cpp:60)
Per MPI rank memory allocation (min/avg/max) = 8.559 | 8.559 | 8.559 Mbytes
   Step         PotEng         TotEng           Lx             Ly             Lz           Volume         Press           Pxx            Pyy            Pzz      
        15  -40.902767     -40.902767      4.0077138      4.0077138      4.0077138      64.370977      437980.5       437980.5       437980.5       437980.5     
        16  -40.902767     -40.902767      4.0077138      4.0077138      4.0077138      64.370977      437980.5       437980.5       437980.5       437980.5     
Loop time of 0.00024425 on 8 procs for 1 steps with 8 atoms

Performance: 353.736 ns/day, 0.068 hours/ns, 4094.166 timesteps/s, 32.753 katom-step/s
0.0% CPU use with 8 MPI tasks x 1 OpenMP threads

MPI task timing breakdown:
Section |  min time  |  avg time  |  max time  |%varavg| %total
---------------------------------------------------------------
Pair    | 0.000199   | 0.00020038 | 0.000202   |   0.0 | 82.04
Neigh   | 0          | 0          | 0          |   0.0 |  0.00
Comm    | 2.3e-05    | 2.5e-05    | 2.7e-05    |   0.0 | 10.24
Output  | 1.2e-05    | 1.2125e-05 | 1.3e-05    |   0.0 |  4.96
Modify  | 0          | 0          | 0          |   0.0 |  0.00
Other   |            | 6.75e-06   |            |       |  2.76

Nlocal:              1 ave           1 max           1 min
Histogram: 8 0 0 0 0 0 0 0 0 0
Nghost:            511 ave         511 max         511 min
Histogram: 8 0 0 0 0 0 0 0 0 0
Neighs:             89 ave          89 max          89 min
Histogram: 8 0 0 0 0 0 0 0 0 0
FullNghs:          178 ave         178 max         178 min
Histogram: 8 0 0 0 0 0 0 0 0 0

Total # of neighbors = 1424
Ave neighs/atom = 178
Neighbor list builds = 0
Dangerous builds = 0
variable  natoms equal "count(all)"
variable xlength equal "lx"
variable  volume equal "vol"
variable  etotal equal "etotal"
variable    ecoh equal "pe/v_natoms"
print "${xlength}, ${volume}, ${etotal}, ${ecoh}" append lattice_cohesive_energy.txt screen no

next i
jump SELF loop

change_box all x scale 1.0025 y scale 1.0025 z scale 1.0025 remap
Changing box ...
  orthogonal box = (0.065133457 0.070143099 0.070143099) to (4.0828665 4.0778569 4.0778569)
  orthogonal box = (0.065133457 0.065133457 0.070143099) to (4.0828665 4.0828665 4.0778569)
  orthogonal box = (0.065133457 0.065133457 0.065133457) to (4.0828665 4.0828665 4.0828665)

run 1
WARNING: No fixes with time integration, atoms won't move (src/verlet.cpp:60)
Per MPI rank memory allocation (min/avg/max) = 8.559 | 8.559 | 8.559 Mbytes
   Step         PotEng         TotEng           Lx             Ly             Lz           Volume         Press           Pxx            Pyy            Pzz      
        16  -41.029176     -41.029176      4.0177331      4.0177331      4.0177331      64.854967      399188.83      399188.83      399188.83      399188.83    
        17  -41.029176     -41.029176      4.0177331      4.0177331      4.0177331      64.854967      399188.83      399188.83      399188.83      399188.83    
Loop time of 0.00016775 on 8 procs for 1 steps with 8 atoms

Performance: 515.052 ns/day, 0.047 hours/ns, 5961.252 timesteps/s, 47.690 katom-step/s
1164.3% CPU use with 8 MPI tasks x 1 OpenMP threads

MPI task timing breakdown:
Section |  min time  |  avg time  |  max time  |%varavg| %total
---------------------------------------------------------------
Pair    | 0.000128   | 0.00012962 | 0.000131   |   0.0 | 77.27
Neigh   | 0          | 0          | 0          |   0.0 |  0.00
Comm    | 2.1e-05    | 2.2375e-05 | 2.4e-05    |   0.0 | 13.34
Output  | 1.1e-05    | 1.1125e-05 | 1.2e-05    |   0.0 |  6.63
Modify  | 0          | 2.5e-07    | 2e-06      |   0.0 |  0.15
Other   |            | 4.375e-06  |            |       |  2.61

Nlocal:              1 ave           1 max           1 min
Histogram: 8 0 0 0 0 0 0 0 0 0
Nghost:            511 ave         511 max         511 min
Histogram: 8 0 0 0 0 0 0 0 0 0
Neighs:             89 ave          89 max          89 min
Histogram: 8 0 0 0 0 0 0 0 0 0
FullNghs:          178 ave         178 max         178 min
Histogram: 8 0 0 0 0 0 0 0 0 0

Total # of neighbors = 1424
Ave neighs/atom = 178
Neighbor list builds = 0
Dangerous builds = 0
variable  natoms equal "count(all)"
variable xlength equal "lx"
variable  volume equal "vol"
variable  etotal equal "etotal"
variable    ecoh equal "pe/v_natoms"
print "${xlength}, ${volume}, ${etotal}, ${ecoh}" append lattice_cohesive_energy.txt screen no

next i
jump SELF loop

change_box all x scale 1.0025 y scale 1.0025 z scale 1.0025 remap
Changing box ...
  orthogonal box = (0.060111291 0.065133457 0.065133457) to (4.0878887 4.0828665 4.0828665)
  orthogonal box = (0.060111291 0.060111291 0.065133457) to (4.0878887 4.0878887 4.0828665)
  orthogonal box = (0.060111291 0.060111291 0.060111291) to (4.0878887 4.0878887 4.0878887)

run 1
WARNING: No fixes with time integration, atoms won't move (src/verlet.cpp:60)
Per MPI rank memory allocation (min/avg/max) = 8.559 | 8.559 | 8.559 Mbytes
   Step         PotEng         TotEng           Lx             Ly             Lz           Volume         Press           Pxx            Pyy            Pzz      
        17  -41.144913     -41.144913      4.0277774      4.0277774      4.0277774      65.342597      361593.55      361593.55      361593.55      361593.55    
        18  -41.144913     -41.144913      4.0277774      4.0277774      4.0277774      65.342597      361593.55      361593.55      361593.55      361593.55    
Loop time of 0.000168375 on 8 procs for 1 steps with 8 atoms

Performance: 513.140 ns/day, 0.047 hours/ns, 5939.124 timesteps/s, 47.513 katom-step/s
0.0% CPU use with 8 MPI tasks x 1 OpenMP threads

MPI task timing breakdown:
Section |  min time  |  avg time  |  max time  |%varavg| %total
---------------------------------------------------------------
Pair    | 0.00013    | 0.00013025 | 0.000131   |   0.0 | 77.36
Neigh   | 0          | 0          | 0          |   0.0 |  0.00
Comm    | 2.1e-05    | 2.1625e-05 | 2.2e-05    |   0.0 | 12.84
Output  | 1.2e-05    | 1.2e-05    | 1.2e-05    |   0.0 |  7.13
Modify  | 0          | 0          | 0          |   0.0 |  0.00
Other   |            | 4.5e-06    |            |       |  2.67

Nlocal:              1 ave           1 max           1 min
Histogram: 8 0 0 0 0 0 0 0 0 0
Nghost:            511 ave         511 max         511 min
Histogram: 8 0 0 0 0 0 0 0 0 0
Neighs:             89 ave          89 max          89 min
Histogram: 8 0 0 0 0 0 0 0 0 0
FullNghs:          178 ave         178 max         178 min
Histogram: 8 0 0 0 0 0 0 0 0 0

Total # of neighbors = 1424
Ave neighs/atom = 178
Neighbor list builds = 0
Dangerous builds = 0
variable  natoms equal "count(all)"
variable xlength equal "lx"
variable  volume equal "vol"
variable  etotal equal "etotal"
variable    ecoh equal "pe/v_natoms"
print "${xlength}, ${volume}, ${etotal}, ${ecoh}" append lattice_cohesive_energy.txt screen no

next i
jump SELF loop

change_box all x scale 1.0025 y scale 1.0025 z scale 1.0025 remap
Changing box ...
  orthogonal box = (0.055076569 0.060111291 0.060111291) to (4.0929234 4.0878887 4.0878887)
  orthogonal box = (0.055076569 0.055076569 0.060111291) to (4.0929234 4.0929234 4.0878887)
  orthogonal box = (0.055076569 0.055076569 0.055076569) to (4.0929234 4.0929234 4.0929234)

run 1
WARNING: No fixes with time integration, atoms won't move (src/verlet.cpp:60)
Per MPI rank memory allocation (min/avg/max) = 8.559 | 8.559 | 8.559 Mbytes
   Step         PotEng         TotEng           Lx             Ly             Lz           Volume         Press           Pxx            Pyy            Pzz      
        18  -41.250172     -41.250172      4.0378469      4.0378469      4.0378469      65.833892      325168.15      325168.15      325168.15      325168.15    
        19  -41.250172     -41.250172      4.0378469      4.0378469      4.0378469      65.833892      325168.15      325168.15      325168.15      325168.15    
Loop time of 0.000177625 on 8 procs for 1 steps with 8 atoms

Performance: 486.418 ns/day, 0.049 hours/ns, 5629.838 timesteps/s, 45.039 katom-step/s
0.0% CPU use with 8 MPI tasks x 1 OpenMP threads

MPI task timing breakdown:
Section |  min time  |  avg time  |  max time  |%varavg| %total
---------------------------------------------------------------
Pair    | 0.000128   | 0.00013    | 0.000131   |   0.0 | 73.19
Neigh   | 0          | 0          | 0          |   0.0 |  0.00
Comm    | 1.9e-05    | 2.0625e-05 | 2.3e-05    |   0.0 | 11.61
Output  | 1.1e-05    | 1.2125e-05 | 2e-05      |   0.0 |  6.83
Modify  | 0          | 2.5e-07    | 1e-06      |   0.0 |  0.14
Other   |            | 1.463e-05  |            |       |  8.23

Nlocal:              1 ave           1 max           1 min
Histogram: 8 0 0 0 0 0 0 0 0 0
Nghost:            511 ave         511 max         511 min
Histogram: 8 0 0 0 0 0 0 0 0 0
Neighs:             89 ave          89 max          89 min
Histogram: 8 0 0 0 0 0 0 0 0 0
FullNghs:          178 ave         178 max         178 min
Histogram: 8 0 0 0 0 0 0 0 0 0

Total # of neighbors = 1424
Ave neighs/atom = 178
Neighbor list builds = 0
Dangerous builds = 0
variable  natoms equal "count(all)"
variable xlength equal "lx"
variable  volume equal "vol"
variable  etotal equal "etotal"
variable    ecoh equal "pe/v_natoms"
print "${xlength}, ${volume}, ${etotal}, ${ecoh}" append lattice_cohesive_energy.txt screen no

next i
jump SELF loop

change_box all x scale 1.0025 y scale 1.0025 z scale 1.0025 remap
Changing box ...
  orthogonal box = (0.05002926 0.055076569 0.055076569) to (4.0979707 4.0929234 4.0929234)
  orthogonal box = (0.05002926 0.05002926 0.055076569) to (4.0979707 4.0979707 4.0929234)
  orthogonal box = (0.05002926 0.05002926 0.05002926) to (4.0979707 4.0979707 4.0979707)

run 1
WARNING: No fixes with time integration, atoms won't move (src/verlet.cpp:60)
Per MPI rank memory allocation (min/avg/max) = 8.559 | 8.559 | 8.559 Mbytes
   Step         PotEng         TotEng           Lx             Ly             Lz           Volume         Press           Pxx            Pyy            Pzz      
        19  -41.345146     -41.345146      4.0479415      4.0479415      4.0479415      66.328882      289886.56      289886.56      289886.56      289886.56    
        20  -41.345146     -41.345146      4.0479415      4.0479415      4.0479415      66.328882      289886.56      289886.56      289886.56      289886.56    
Loop time of 0.000193625 on 8 procs for 1 steps with 8 atoms

Performance: 446.223 ns/day, 0.054 hours/ns, 5164.622 timesteps/s, 41.317 katom-step/s
0.0% CPU use with 8 MPI tasks x 1 OpenMP threads

MPI task timing breakdown:
Section |  min time  |  avg time  |  max time  |%varavg| %total
---------------------------------------------------------------
Pair    | 0.000151   | 0.00015312 | 0.000155   |   0.0 | 79.08
Neigh   | 0          | 0          | 0          |   0.0 |  0.00
Comm    | 2e-05      | 2.1625e-05 | 2.4e-05    |   0.0 | 11.17
Output  | 1.1e-05    | 1.1625e-05 | 1.2e-05    |   0.0 |  6.00
Modify  | 0          | 1.25e-07   | 1e-06      |   0.0 |  0.06
Other   |            | 7.125e-06  |            |       |  3.68

Nlocal:              1 ave           1 max           1 min
Histogram: 8 0 0 0 0 0 0 0 0 0
Nghost:            511 ave         511 max         511 min
Histogram: 8 0 0 0 0 0 0 0 0 0
Neighs:             85 ave          85 max          85 min
Histogram: 8 0 0 0 0 0 0 0 0 0
FullNghs:          170 ave         170 max         170 min
Histogram: 8 0 0 0 0 0 0 0 0 0

Total # of neighbors = 1360
Ave neighs/atom = 170
Neighbor list builds = 0
Dangerous builds = 0
variable  natoms equal "count(all)"
variable xlength equal "lx"
variable  volume equal "vol"
variable  etotal equal "etotal"
variable    ecoh equal "pe/v_natoms"
print "${xlength}, ${volume}, ${etotal}, ${ecoh}" append lattice_cohesive_energy.txt screen no

next i
jump SELF loop

change_box all x scale 1.0025 y scale 1.0025 z scale 1.0025 remap
Changing box ...
  orthogonal box = (0.044969333 0.05002926 0.05002926) to (4.1030307 4.0979707 4.0979707)
  orthogonal box = (0.044969333 0.044969333 0.05002926) to (4.1030307 4.1030307 4.0979707)
  orthogonal box = (0.044969333 0.044969333 0.044969333) to (4.1030307 4.1030307 4.1030307)

run 1
WARNING: No fixes with time integration, atoms won't move (src/verlet.cpp:60)
Per MPI rank memory allocation (min/avg/max) = 8.559 | 8.559 | 8.559 Mbytes
   Step         PotEng         TotEng           Lx             Ly             Lz           Volume         Press           Pxx            Pyy            Pzz      
        20  -41.430027     -41.430027      4.0580613      4.0580613      4.0580613      66.827593      255723.18      255723.18      255723.18      255723.18    
        21  -41.430027     -41.430027      4.0580613      4.0580613      4.0580613      66.827593      255723.18      255723.18      255723.18      255723.18    
Loop time of 0.000194 on 8 procs for 1 steps with 8 atoms

Performance: 445.361 ns/day, 0.054 hours/ns, 5154.639 timesteps/s, 41.237 katom-step/s
0.0% CPU use with 8 MPI tasks x 1 OpenMP threads

MPI task timing breakdown:
Section |  min time  |  avg time  |  max time  |%varavg| %total
---------------------------------------------------------------
Pair    | 0.000138   | 0.00014062 | 0.000148   |   0.0 | 72.49
Neigh   | 0          | 0          | 0          |   0.0 |  0.00
Comm    | 2.6e-05    | 3.3125e-05 | 3.6e-05    |   0.0 | 17.07
Output  | 1.3e-05    | 1.4625e-05 | 1.6e-05    |   0.0 |  7.54
Modify  | 0          | 2.5e-07    | 2e-06      |   0.0 |  0.13
Other   |            | 5.375e-06  |            |       |  2.77

Nlocal:              1 ave           1 max           1 min
Histogram: 8 0 0 0 0 0 0 0 0 0
Nghost:            511 ave         511 max         511 min
Histogram: 8 0 0 0 0 0 0 0 0 0
Neighs:             85 ave          85 max          85 min
Histogram: 8 0 0 0 0 0 0 0 0 0
FullNghs:          170 ave         170 max         170 min
Histogram: 8 0 0 0 0 0 0 0 0 0

Total # of neighbors = 1360
Ave neighs/atom = 170
Neighbor list builds = 0
Dangerous builds = 0
variable  natoms equal "count(all)"
variable xlength equal "lx"
variable  volume equal "vol"
variable  etotal equal "etotal"
variable    ecoh equal "pe/v_natoms"
print "${xlength}, ${volume}, ${etotal}, ${ecoh}" append lattice_cohesive_energy.txt screen no

next i
jump SELF loop

change_box all x scale 1.0025 y scale 1.0025 z scale 1.0025 remap
Changing box ...
  orthogonal box = (0.039896757 0.044969333 0.044969333) to (4.1081032 4.1030307 4.1030307)
  orthogonal box = (0.039896757 0.039896757 0.044969333) to (4.1081032 4.1081032 4.1030307)
  orthogonal box = (0.039896757 0.039896757 0.039896757) to (4.1081032 4.1081032 4.1081032)

run 1
WARNING: No fixes with time integration, atoms won't move (src/verlet.cpp:60)
Per MPI rank memory allocation (min/avg/max) = 8.559 | 8.559 | 8.559 Mbytes
   Step         PotEng         TotEng           Lx             Ly             Lz           Volume         Press           Pxx            Pyy            Pzz      
        21  -41.505004     -41.505004      4.0682065      4.0682065      4.0682065      67.330054      222652.83      222652.83      222652.83      222652.83    
        22  -41.505004     -41.505004      4.0682065      4.0682065      4.0682065      67.330054      222652.83      222652.83      222652.83      222652.83    
Loop time of 0.000171625 on 8 procs for 1 steps with 8 atoms

Performance: 503.423 ns/day, 0.048 hours/ns, 5826.657 timesteps/s, 46.613 katom-step/s
0.0% CPU use with 8 MPI tasks x 1 OpenMP threads

MPI task timing breakdown:
Section |  min time  |  avg time  |  max time  |%varavg| %total
---------------------------------------------------------------
Pair    | 0.000132   | 0.00013325 | 0.000135   |   0.0 | 77.64
Neigh   | 0          | 0          | 0          |   0.0 |  0.00
Comm    | 2.1e-05    | 2.275e-05  | 2.4e-05    |   0.0 | 13.26
Output  | 1.1e-05    | 1.1125e-05 | 1.2e-05    |   0.0 |  6.48
Modify  | 0          | 2.5e-07    | 1e-06      |   0.0 |  0.15
Other   |            | 4.25e-06   |            |       |  2.48

Nlocal:              1 ave           1 max           1 min
Histogram: 8 0 0 0 0 0 0 0 0 0
Nghost:            511 ave         511 max         511 min
Histogram: 8 0 0 0 0 0 0 0 0 0
Neighs:             85 ave          85 max          85 min
Histogram: 8 0 0 0 0 0 0 0 0 0
FullNghs:          170 ave         170 max         170 min
Histogram: 8 0 0 0 0 0 0 0 0 0

Total # of neighbors = 1360
Ave neighs/atom = 170
Neighbor list builds = 0
Dangerous builds = 0
variable  natoms equal "count(all)"
variable xlength equal "lx"
variable  volume equal "vol"
variable  etotal equal "etotal"
variable    ecoh equal "pe/v_natoms"
print "${xlength}, ${volume}, ${etotal}, ${ecoh}" append lattice_cohesive_energy.txt screen no

next i
jump SELF loop

change_box all x scale 1.0025 y scale 1.0025 z scale 1.0025 remap
Changing box ...
  orthogonal box = (0.034811499 0.039896757 0.039896757) to (4.1131885 4.1081032 4.1081032)
  orthogonal box = (0.034811499 0.034811499 0.039896757) to (4.1131885 4.1131885 4.1081032)
  orthogonal box = (0.034811499 0.034811499 0.034811499) to (4.1131885 4.1131885 4.1131885)

run 1
WARNING: No fixes with time integration, atoms won't move (src/verlet.cpp:60)
Per MPI rank memory allocation (min/avg/max) = 8.559 | 8.559 | 8.559 Mbytes
   Step         PotEng         TotEng           Lx             Ly             Lz           Volume         Press           Pxx            Pyy            Pzz      
        22  -41.570266     -41.570266      4.078377       4.078377       4.078377       67.836293      190650.8       190650.8       190650.8       190650.8     
        23  -41.570266     -41.570266      4.078377       4.078377       4.078377       67.836293      190650.8       190650.8       190650.8       190650.8     
Loop time of 0.000170125 on 8 procs for 1 steps with 8 atoms

Performance: 507.862 ns/day, 0.047 hours/ns, 5878.031 timesteps/s, 47.024 katom-step/s
1148.1% CPU use with 8 MPI tasks x 1 OpenMP threads

MPI task timing breakdown:
Section |  min time  |  avg time  |  max time  |%varavg| %total
---------------------------------------------------------------
Pair    | 0.000132   | 0.00013313 | 0.000134   |   0.0 | 78.25
Neigh   | 0          | 0          | 0          |   0.0 |  0.00
Comm    | 2e-05      | 2.0875e-05 | 2.2e-05    |   0.0 | 12.27
Output  | 1.1e-05    | 1.175e-05  | 1.2e-05    |   0.0 |  6.91
Modify  | 0          | 3.75e-07   | 1e-06      |   0.0 |  0.22
Other   |            | 4e-06      |            |       |  2.35

Nlocal:              1 ave           1 max           1 min
Histogram: 8 0 0 0 0 0 0 0 0 0
Nghost:            511 ave         511 max         511 min
Histogram: 8 0 0 0 0 0 0 0 0 0
Neighs:             85 ave          85 max          85 min
Histogram: 8 0 0 0 0 0 0 0 0 0
FullNghs:          170 ave         170 max         170 min
Histogram: 8 0 0 0 0 0 0 0 0 0

Total # of neighbors = 1360
Ave neighs/atom = 170
Neighbor list builds = 0
Dangerous builds = 0
variable  natoms equal "count(all)"
variable xlength equal "lx"
variable  volume equal "vol"
variable  etotal equal "etotal"
variable    ecoh equal "pe/v_natoms"
print "${xlength}, ${volume}, ${etotal}, ${ecoh}" append lattice_cohesive_energy.txt screen no

next i
jump SELF loop

change_box all x scale 1.0025 y scale 1.0025 z scale 1.0025 remap
Changing box ...
  orthogonal box = (0.029713527 0.034811499 0.034811499) to (4.1182865 4.1131885 4.1131885)
  orthogonal box = (0.029713527 0.029713527 0.034811499) to (4.1182865 4.1182865 4.1131885)
  orthogonal box = (0.029713527 0.029713527 0.029713527) to (4.1182865 4.1182865 4.1182865)

run 1
WARNING: No fixes with time integration, atoms won't move (src/verlet.cpp:60)
Per MPI rank memory allocation (min/avg/max) = 8.559 | 8.559 | 8.559 Mbytes
   Step         PotEng         TotEng           Lx             Ly             Lz           Volume         Press           Pxx            Pyy            Pzz      
        23  -41.625997     -41.625997      4.0885729      4.0885729      4.0885729      68.346338      159692.82      159692.82      159692.82      159692.82    
        24  -41.625997     -41.625997      4.0885729      4.0885729      4.0885729      68.346338      159692.82      159692.82      159692.82      159692.82    
Loop time of 0.000216 on 8 procs for 1 steps with 8 atoms

Performance: 400.000 ns/day, 0.060 hours/ns, 4629.630 timesteps/s, 37.037 katom-step/s
0.0% CPU use with 8 MPI tasks x 1 OpenMP threads

MPI task timing breakdown:
Section |  min time  |  avg time  |  max time  |%varavg| %total
---------------------------------------------------------------
Pair    | 0.000153   | 0.00016237 | 0.00018    |   0.0 | 75.17
Neigh   | 0          | 0          | 0          |   0.0 |  0.00
Comm    | 1.9e-05    | 3.75e-05   | 4.7e-05    |   0.0 | 17.36
Output  | 1.2e-05    | 1.2e-05    | 1.2e-05    |   0.0 |  5.56
Modify  | 0          | 3.75e-07   | 1e-06      |   0.0 |  0.17
Other   |            | 3.75e-06   |            |       |  1.74

Nlocal:              1 ave           1 max           1 min
Histogram: 8 0 0 0 0 0 0 0 0 0
Nghost:            511 ave         511 max         511 min
Histogram: 8 0 0 0 0 0 0 0 0 0
Neighs:             85 ave          85 max          85 min
Histogram: 8 0 0 0 0 0 0 0 0 0
FullNghs:          170 ave         170 max         170 min
Histogram: 8 0 0 0 0 0 0 0 0 0

Total # of neighbors = 1360
Ave neighs/atom = 170
Neighbor list builds = 0
Dangerous builds = 0
variable  natoms equal "count(all)"
variable xlength equal "lx"
variable  volume equal "vol"
variable  etotal equal "etotal"
variable    ecoh equal "pe/v_natoms"
print "${xlength}, ${volume}, ${etotal}, ${ecoh}" append lattice_cohesive_energy.txt screen no

next i
jump SELF loop

change_box all x scale 1.0025 y scale 1.0025 z scale 1.0025 remap
Changing box ...
  orthogonal box = (0.024602811 0.029713527 0.029713527) to (4.1233972 4.1182865 4.1182865)
  orthogonal box = (0.024602811 0.024602811 0.029713527) to (4.1233972 4.1233972 4.1182865)
  orthogonal box = (0.024602811 0.024602811 0.024602811) to (4.1233972 4.1233972 4.1233972)

run 1
WARNING: No fixes with time integration, atoms won't move (src/verlet.cpp:60)
Per MPI rank memory allocation (min/avg/max) = 8.559 | 8.559 | 8.559 Mbytes
   Step         PotEng         TotEng           Lx             Ly             Lz           Volume         Press           Pxx            Pyy            Pzz      
        24  -41.672383     -41.672383      4.0987944      4.0987944      4.0987944      68.860218      129755.05      129755.05      129755.05      129755.05    
        25  -41.672383     -41.672383      4.0987944      4.0987944      4.0987944      68.860218      129755.05      129755.05      129755.05      129755.05    
Loop time of 0.00016275 on 8 procs for 1 steps with 8 atoms

Performance: 530.876 ns/day, 0.045 hours/ns, 6144.393 timesteps/s, 49.155 katom-step/s
0.0% CPU use with 8 MPI tasks x 1 OpenMP threads

MPI task timing breakdown:
Section |  min time  |  avg time  |  max time  |%varavg| %total
---------------------------------------------------------------
Pair    | 0.000123   | 0.00012512 | 0.000126   |   0.0 | 76.88
Neigh   | 0          | 0          | 0          |   0.0 |  0.00
Comm    | 2e-05      | 2.1375e-05 | 2.4e-05    |   0.0 | 13.13
Output  | 1.2e-05    | 1.225e-05  | 1.3e-05    |   0.0 |  7.53
Modify  | 0          | 2.5e-07    | 1e-06      |   0.0 |  0.15
Other   |            | 3.75e-06   |            |       |  2.30

Nlocal:              1 ave           1 max           1 min
Histogram: 8 0 0 0 0 0 0 0 0 0
Nghost:            511 ave         511 max         511 min
Histogram: 8 0 0 0 0 0 0 0 0 0
Neighs:             85 ave          85 max          85 min
Histogram: 8 0 0 0 0 0 0 0 0 0
FullNghs:          170 ave         170 max         170 min
Histogram: 8 0 0 0 0 0 0 0 0 0

Total # of neighbors = 1360
Ave neighs/atom = 170
Neighbor list builds = 0
Dangerous builds = 0
variable  natoms equal "count(all)"
variable xlength equal "lx"
variable  volume equal "vol"
variable  etotal equal "etotal"
variable    ecoh equal "pe/v_natoms"
print "${xlength}, ${volume}, ${etotal}, ${ecoh}" append lattice_cohesive_energy.txt screen no

next i
jump SELF loop

change_box all x scale 1.0025 y scale 1.0025 z scale 1.0025 remap
Changing box ...
  orthogonal box = (0.019479318 0.024602811 0.024602811) to (4.1285207 4.1233972 4.1233972)
  orthogonal box = (0.019479318 0.019479318 0.024602811) to (4.1285207 4.1285207 4.1233972)
  orthogonal box = (0.019479318 0.019479318 0.019479318) to (4.1285207 4.1285207 4.1285207)

run 1
WARNING: No fixes with time integration, atoms won't move (src/verlet.cpp:60)
Per MPI rank memory allocation (min/avg/max) = 8.559 | 8.559 | 8.559 Mbytes
   Step         PotEng         TotEng           Lx             Ly             Lz           Volume         Press           Pxx            Pyy            Pzz      
        25  -41.709605     -41.709605      4.1090414      4.1090414      4.1090414      69.377962      100814.08      100814.08      100814.08      100814.08    
        26  -41.709605     -41.709605      4.1090414      4.1090414      4.1090414      69.377962      100814.08      100814.08      100814.08      100814.08    
Loop time of 0.00017375 on 8 procs for 1 steps with 8 atoms

Performance: 497.266 ns/day, 0.048 hours/ns, 5755.396 timesteps/s, 46.043 katom-step/s
0.0% CPU use with 8 MPI tasks x 1 OpenMP threads

MPI task timing breakdown:
Section |  min time  |  avg time  |  max time  |%varavg| %total
---------------------------------------------------------------
Pair    | 0.00013    | 0.00013263 | 0.000136   |   0.0 | 76.33
Neigh   | 0          | 0          | 0          |   0.0 |  0.00
Comm    | 2.2e-05    | 2.5375e-05 | 2.8e-05    |   0.0 | 14.60
Output  | 1.1e-05    | 1.1375e-05 | 1.2e-05    |   0.0 |  6.55
Modify  | 0          | 0          | 0          |   0.0 |  0.00
Other   |            | 4.375e-06  |            |       |  2.52

Nlocal:              1 ave           1 max           1 min
Histogram: 8 0 0 0 0 0 0 0 0 0
Nghost:            511 ave         511 max         511 min
Histogram: 8 0 0 0 0 0 0 0 0 0
Neighs:             85 ave          85 max          85 min
Histogram: 8 0 0 0 0 0 0 0 0 0
FullNghs:          170 ave         170 max         170 min
Histogram: 8 0 0 0 0 0 0 0 0 0

Total # of neighbors = 1360
Ave neighs/atom = 170
Neighbor list builds = 0
Dangerous builds = 0
variable  natoms equal "count(all)"
variable xlength equal "lx"
variable  volume equal "vol"
variable  etotal equal "etotal"
variable    ecoh equal "pe/v_natoms"
print "${xlength}, ${volume}, ${etotal}, ${ecoh}" append lattice_cohesive_energy.txt screen no

next i
jump SELF loop

change_box all x scale 1.0025 y scale 1.0025 z scale 1.0025 remap
Changing box ...
  orthogonal box = (0.014343016 0.019479318 0.019479318) to (4.133657 4.1285207 4.1285207)
  orthogonal box = (0.014343016 0.014343016 0.019479318) to (4.133657 4.133657 4.1285207)
  orthogonal box = (0.014343016 0.014343016 0.014343016) to (4.133657 4.133657 4.133657)

run 1
WARNING: No fixes with time integration, atoms won't move (src/verlet.cpp:60)
Per MPI rank memory allocation (min/avg/max) = 8.559 | 8.559 | 8.559 Mbytes
   Step         PotEng         TotEng           Lx             Ly             Lz           Volume         Press           Pxx            Pyy            Pzz      
        26  -41.737843     -41.737843      4.119314       4.119314       4.119314       69.899599      72846.895      72846.895      72846.895      72846.895    
        27  -41.737843     -41.737843      4.119314       4.119314       4.119314       69.899599      72846.895      72846.895      72846.895      72846.895    
Loop time of 0.000167 on 8 procs for 1 steps with 8 atoms

Performance: 517.365 ns/day, 0.046 hours/ns, 5988.024 timesteps/s, 47.904 katom-step/s
0.0% CPU use with 8 MPI tasks x 1 OpenMP threads

MPI task timing breakdown:
Section |  min time  |  avg time  |  max time  |%varavg| %total
---------------------------------------------------------------
Pair    | 0.000127   | 0.00012813 | 0.000129   |   0.0 | 76.72
Neigh   | 0          | 0          | 0          |   0.0 |  0.00
Comm    | 2.3e-05    | 2.375e-05  | 2.5e-05    |   0.0 | 14.22
Output  | 1.1e-05    | 1.1e-05    | 1.1e-05    |   0.0 |  6.59
Modify  | 0          | 0          | 0          |   0.0 |  0.00
Other   |            | 4.125e-06  |            |       |  2.47

Nlocal:              1 ave           1 max           1 min
Histogram: 8 0 0 0 0 0 0 0 0 0
Nghost:            511 ave         511 max         511 min
Histogram: 8 0 0 0 0 0 0 0 0 0
Neighs:             85 ave          85 max          85 min
Histogram: 8 0 0 0 0 0 0 0 0 0
FullNghs:          170 ave         170 max         170 min
Histogram: 8 0 0 0 0 0 0 0 0 0

Total # of neighbors = 1360
Ave neighs/atom = 170
Neighbor list builds = 0
Dangerous builds = 0
variable  natoms equal "count(all)"
variable xlength equal "lx"
variable  volume equal "vol"
variable  etotal equal "etotal"
variable    ecoh equal "pe/v_natoms"
print "${xlength}, ${volume}, ${etotal}, ${ecoh}" append lattice_cohesive_energy.txt screen no

next i
jump SELF loop

change_box all x scale 1.0025 y scale 1.0025 z scale 1.0025 remap
Changing box ...
  orthogonal box = (0.009193874 0.014343016 0.014343016) to (4.1388061 4.133657 4.133657)
  orthogonal box = (0.009193874 0.009193874 0.014343016) to (4.1388061 4.1388061 4.133657)
  orthogonal box = (0.009193874 0.009193874 0.009193874) to (4.1388061 4.1388061 4.1388061)

run 1
WARNING: No fixes with time integration, atoms won't move (src/verlet.cpp:60)
Per MPI rank memory allocation (min/avg/max) = 8.559 | 8.559 | 8.559 Mbytes
   Step         PotEng         TotEng           Lx             Ly             Lz           Volume         Press           Pxx            Pyy            Pzz      
        27  -41.757277     -41.757277      4.1296123      4.1296123      4.1296123      70.425158      45830.921      45830.921      45830.921      45830.921    
        28  -41.757277     -41.757277      4.1296123      4.1296123      4.1296123      70.425158      45830.921      45830.921      45830.921      45830.921    
Loop time of 0.000337375 on 8 procs for 1 steps with 8 atoms

Performance: 256.095 ns/day, 0.094 hours/ns, 2964.061 timesteps/s, 23.712 katom-step/s
0.0% CPU use with 8 MPI tasks x 1 OpenMP threads

MPI task timing breakdown:
Section |  min time  |  avg time  |  max time  |%varavg| %total
---------------------------------------------------------------
Pair    | 0.000228   | 0.00025575 | 0.000276   |   0.0 | 75.81
Neigh   | 0          | 0          | 0          |   0.0 |  0.00
Comm    | 3.3e-05    | 5.15e-05   | 8e-05      |   0.0 | 15.26
Output  | 1.7e-05    | 2e-05      | 2.2e-05    |   0.0 |  5.93
Modify  | 0          | 2.5e-07    | 1e-06      |   0.0 |  0.07
Other   |            | 9.875e-06  |            |       |  2.93

Nlocal:              1 ave           1 max           1 min
Histogram: 8 0 0 0 0 0 0 0 0 0
Nghost:            511 ave         511 max         511 min
Histogram: 8 0 0 0 0 0 0 0 0 0
Neighs:             85 ave          85 max          85 min
Histogram: 8 0 0 0 0 0 0 0 0 0
FullNghs:          170 ave         170 max         170 min
Histogram: 8 0 0 0 0 0 0 0 0 0

Total # of neighbors = 1360
Ave neighs/atom = 170
Neighbor list builds = 0
Dangerous builds = 0
variable  natoms equal "count(all)"
variable xlength equal "lx"
variable  volume equal "vol"
variable  etotal equal "etotal"
variable    ecoh equal "pe/v_natoms"
print "${xlength}, ${volume}, ${etotal}, ${ecoh}" append lattice_cohesive_energy.txt screen no

next i
jump SELF loop

change_box all x scale 1.0025 y scale 1.0025 z scale 1.0025 remap
Changing box ...
  orthogonal box = (0.0040318587 0.009193874 0.009193874) to (4.1439681 4.1388061 4.1388061)
  orthogonal box = (0.0040318587 0.0040318587 0.009193874) to (4.1439681 4.1439681 4.1388061)
  orthogonal box = (0.0040318587 0.0040318587 0.0040318587) to (4.1439681 4.1439681 4.1439681)

run 1
WARNING: No fixes with time integration, atoms won't move (src/verlet.cpp:60)
Per MPI rank memory allocation (min/avg/max) = 8.559 | 8.559 | 8.559 Mbytes
   Step         PotEng         TotEng           Lx             Ly             Lz           Volume         Press           Pxx            Pyy            Pzz      
        28  -41.768082     -41.768082      4.1399363      4.1399363      4.1399363      70.954668      19743.979      19743.979      19743.979      19743.979    
        29  -41.768082     -41.768082      4.1399363      4.1399363      4.1399363      70.954668      19743.979      19743.979      19743.979      19743.979    
Loop time of 0.000312375 on 8 procs for 1 steps with 8 atoms

Performance: 276.591 ns/day, 0.087 hours/ns, 3201.281 timesteps/s, 25.610 katom-step/s
0.0% CPU use with 8 MPI tasks x 1 OpenMP threads

MPI task timing breakdown:
Section |  min time  |  avg time  |  max time  |%varavg| %total
---------------------------------------------------------------
Pair    | 0.000199   | 0.000223   | 0.000252   |   0.0 | 71.39
Neigh   | 0          | 0          | 0          |   0.0 |  0.00
Comm    | 3.3e-05    | 6.0625e-05 | 8.6e-05    |   0.0 | 19.41
Output  | 1.6e-05    | 1.95e-05   | 2.2e-05    |   0.0 |  6.24
Modify  | 0          | 1.25e-07   | 1e-06      |   0.0 |  0.04
Other   |            | 9.125e-06  |            |       |  2.92

Nlocal:              1 ave           1 max           1 min
Histogram: 8 0 0 0 0 0 0 0 0 0
Nghost:            511 ave         511 max         511 min
Histogram: 8 0 0 0 0 0 0 0 0 0
Neighs:             85 ave          85 max          85 min
Histogram: 8 0 0 0 0 0 0 0 0 0
FullNghs:          170 ave         170 max         170 min
Histogram: 8 0 0 0 0 0 0 0 0 0

Total # of neighbors = 1360
Ave neighs/atom = 170
Neighbor list builds = 0
Dangerous builds = 0
variable  natoms equal "count(all)"
variable xlength equal "lx"
variable  volume equal "vol"
variable  etotal equal "etotal"
variable    ecoh equal "pe/v_natoms"
print "${xlength}, ${volume}, ${etotal}, ${ecoh}" append lattice_cohesive_energy.txt screen no

next i
jump SELF loop

change_box all x scale 1.0025 y scale 1.0025 z scale 1.0025 remap
Changing box ...
  orthogonal box = (-0.0011430617 0.0040318587 0.0040318587) to (4.1491431 4.1439681 4.1439681)
  orthogonal box = (-0.0011430617 -0.0011430617 0.0040318587) to (4.1491431 4.1491431 4.1439681)
  orthogonal box = (-0.0011430617 -0.0011430617 -0.0011430617) to (4.1491431 4.1491431 4.1491431)

run 1
WARNING: No fixes with time integration, atoms won't move (src/verlet.cpp:60)
Per MPI rank memory allocation (min/avg/max) = 8.559 | 8.559 | 8.559 Mbytes
   Step         PotEng         TotEng           Lx             Ly             Lz           Volume         Press           Pxx            Pyy            Pzz      
        29  -41.770434     -41.770434      4.1502861      4.1502861      4.1502861      71.488159     -5435.7062     -5435.7062     -5435.7062     -5435.7062    
        30  -41.770434     -41.770434      4.1502861      4.1502861      4.1502861      71.488159     -5435.7062     -5435.7062     -5435.7062     -5435.7062    
Loop time of 0.000318125 on 8 procs for 1 steps with 8 atoms

Performance: 271.591 ns/day, 0.088 hours/ns, 3143.418 timesteps/s, 25.147 katom-step/s
0.0% CPU use with 8 MPI tasks x 1 OpenMP threads

MPI task timing breakdown:
Section |  min time  |  avg time  |  max time  |%varavg| %total
---------------------------------------------------------------
Pair    | 0.000207   | 0.00023    | 0.000258   |   0.0 | 72.30
Neigh   | 0          | 0          | 0          |   0.0 |  0.00
Comm    | 3.3e-05    | 5.9875e-05 | 8.4e-05    |   0.0 | 18.82
Output  | 1.7e-05    | 1.9625e-05 | 2.1e-05    |   0.0 |  6.17
Modify  | 0          | 2.5e-07    | 1e-06      |   0.0 |  0.08
Other   |            | 8.375e-06  |            |       |  2.63

Nlocal:              1 ave           1 max           1 min
Histogram: 8 0 0 0 0 0 0 0 0 0
Nghost:            511 ave         511 max         511 min
Histogram: 8 0 0 0 0 0 0 0 0 0
Neighs:             85 ave          85 max          85 min
Histogram: 8 0 0 0 0 0 0 0 0 0
FullNghs:          170 ave         170 max         170 min
Histogram: 8 0 0 0 0 0 0 0 0 0

Total # of neighbors = 1360
Ave neighs/atom = 170
Neighbor list builds = 0
Dangerous builds = 0
variable  natoms equal "count(all)"
variable xlength equal "lx"
variable  volume equal "vol"
variable  etotal equal "etotal"
variable    ecoh equal "pe/v_natoms"
print "${xlength}, ${volume}, ${etotal}, ${ecoh}" append lattice_cohesive_energy.txt screen no

next i
jump SELF loop

change_box all x scale 1.0025 y scale 1.0025 z scale 1.0025 remap
Changing box ...
  orthogonal box = (-0.0063309193 -0.0011430617 -0.0011430617) to (4.1543309 4.1491431 4.1491431)
  orthogonal box = (-0.0063309193 -0.0063309193 -0.0011430617) to (4.1543309 4.1543309 4.1491431)
  orthogonal box = (-0.0063309193 -0.0063309193 -0.0063309193) to (4.1543309 4.1543309 4.1543309)

run 1
WARNING: No fixes with time integration, atoms won't move (src/verlet.cpp:60)
Per MPI rank memory allocation (min/avg/max) = 8.559 | 8.559 | 8.559 Mbytes
   Step         PotEng         TotEng           Lx             Ly             Lz           Volume         Press           Pxx            Pyy            Pzz      
        30  -41.764506     -41.764506      4.1606618      4.1606618      4.1606618      72.025662     -29729.513     -29729.513     -29729.513     -29729.513    
        31  -41.764506     -41.764506      4.1606618      4.1606618      4.1606618      72.025662     -29729.513     -29729.513     -29729.513     -29729.513    
Loop time of 0.000313125 on 8 procs for 1 steps with 8 atoms

Performance: 275.928 ns/day, 0.087 hours/ns, 3193.613 timesteps/s, 25.549 katom-step/s
0.0% CPU use with 8 MPI tasks x 1 OpenMP threads

MPI task timing breakdown:
Section |  min time  |  avg time  |  max time  |%varavg| %total
---------------------------------------------------------------
Pair    | 0.000204   | 0.00022562 | 0.000253   |   0.0 | 72.06
Neigh   | 0          | 0          | 0          |   0.0 |  0.00
Comm    | 3.3e-05    | 5.95e-05   | 8.2e-05    |   0.0 | 19.00
Output  | 1.6e-05    | 1.9e-05    | 2e-05      |   0.0 |  6.07
Modify  | 0          | 2.5e-07    | 1e-06      |   0.0 |  0.08
Other   |            | 8.75e-06   |            |       |  2.79

Nlocal:              1 ave           1 max           1 min
Histogram: 8 0 0 0 0 0 0 0 0 0
Nghost:            511 ave         511 max         511 min
Histogram: 8 0 0 0 0 0 0 0 0 0
Neighs:             85 ave          85 max          85 min
Histogram: 8 0 0 0 0 0 0 0 0 0
FullNghs:          170 ave         170 max         170 min
Histogram: 8 0 0 0 0 0 0 0 0 0

Total # of neighbors = 1360
Ave neighs/atom = 170
Neighbor list builds = 0
Dangerous builds = 0
variable  natoms equal "count(all)"
variable xlength equal "lx"
variable  volume equal "vol"
variable  etotal equal "etotal"
variable    ecoh equal "pe/v_natoms"
print "${xlength}, ${volume}, ${etotal}, ${ecoh}" append lattice_cohesive_energy.txt screen no

next i
jump SELF loop

change_box all x scale 1.0025 y scale 1.0025 z scale 1.0025 remap
Changing box ...
  orthogonal box = (-0.011531747 -0.0063309193 -0.0063309193) to (4.1595317 4.1543309 4.1543309)
  orthogonal box = (-0.011531747 -0.011531747 -0.0063309193) to (4.1595317 4.1595317 4.1543309)
  orthogonal box = (-0.011531747 -0.011531747 -0.011531747) to (4.1595317 4.1595317 4.1595317)

run 1
WARNING: No fixes with time integration, atoms won't move (src/verlet.cpp:60)
Per MPI rank memory allocation (min/avg/max) = 8.559 | 8.559 | 8.559 Mbytes
   Step         PotEng         TotEng           Lx             Ly             Lz           Volume         Press           Pxx            Pyy            Pzz      
        31  -41.750469     -41.750469      4.1710635      4.1710635      4.1710635      72.567206     -53158.429     -53158.429     -53158.429     -53158.429    
        32  -41.750469     -41.750469      4.1710635      4.1710635      4.1710635      72.567206     -53158.429     -53158.429     -53158.429     -53158.429    
Loop time of 0.00033275 on 8 procs for 1 steps with 8 atoms

Performance: 259.654 ns/day, 0.092 hours/ns, 3005.259 timesteps/s, 24.042 katom-step/s
0.0% CPU use with 8 MPI tasks x 1 OpenMP threads

MPI task timing breakdown:
Section |  min time  |  avg time  |  max time  |%varavg| %total
---------------------------------------------------------------
Pair    | 0.000217   | 0.000244   | 0.000274   |   0.0 | 73.33
Neigh   | 0          | 0          | 0          |   0.0 |  0.00
Comm    | 3.3e-05    | 6.1e-05    | 8.9e-05    |   0.0 | 18.33
Output  | 1.6e-05    | 1.9125e-05 | 2.1e-05    |   0.0 |  5.75
Modify  | 0          | 1.25e-07   | 1e-06      |   0.0 |  0.04
Other   |            | 8.5e-06    |            |       |  2.55

Nlocal:              1 ave           1 max           1 min
Histogram: 8 0 0 0 0 0 0 0 0 0
Nghost:            511 ave         511 max         511 min
Histogram: 8 0 0 0 0 0 0 0 0 0
Neighs:             85 ave          85 max          85 min
Histogram: 8 0 0 0 0 0 0 0 0 0
FullNghs:          170 ave         170 max         170 min
Histogram: 8 0 0 0 0 0 0 0 0 0

Total # of neighbors = 1360
Ave neighs/atom = 170
Neighbor list builds = 0
Dangerous builds = 0
variable  natoms equal "count(all)"
variable xlength equal "lx"
variable  volume equal "vol"
variable  etotal equal "etotal"
variable    ecoh equal "pe/v_natoms"
print "${xlength}, ${volume}, ${etotal}, ${ecoh}" append lattice_cohesive_energy.txt screen no

next i
jump SELF loop

change_box all x scale 1.0025 y scale 1.0025 z scale 1.0025 remap
Changing box ...
  orthogonal box = (-0.016745576 -0.011531747 -0.011531747) to (4.1647456 4.1595317 4.1595317)
  orthogonal box = (-0.016745576 -0.016745576 -0.011531747) to (4.1647456 4.1647456 4.1595317)
  orthogonal box = (-0.016745576 -0.016745576 -0.016745576) to (4.1647456 4.1647456 4.1647456)

run 1
WARNING: No fixes with time integration, atoms won't move (src/verlet.cpp:60)
Per MPI rank memory allocation (min/avg/max) = 8.559 | 8.559 | 8.559 Mbytes
   Step         PotEng         TotEng           Lx             Ly             Lz           Volume         Press           Pxx            Pyy            Pzz      
        32  -41.728492     -41.728492      4.1814912      4.1814912      4.1814912      73.112822     -75743.059     -75743.059     -75743.059     -75743.059    
        33  -41.728492     -41.728492      4.1814912      4.1814912      4.1814912      73.112822     -75743.059     -75743.059     -75743.059     -75743.059    
Loop time of 0.000309375 on 8 procs for 1 steps with 8 atoms

Performance: 279.273 ns/day, 0.086 hours/ns, 3232.323 timesteps/s, 25.859 katom-step/s
0.0% CPU use with 8 MPI tasks x 1 OpenMP threads

MPI task timing breakdown:
Section |  min time  |  avg time  |  max time  |%varavg| %total
---------------------------------------------------------------
Pair    | 0.000201   | 0.00022275 | 0.00025    |   0.0 | 72.00
Neigh   | 0          | 0          | 0          |   0.0 |  0.00
Comm    | 3.2e-05    | 5.8875e-05 | 8.2e-05    |   0.0 | 19.03
Output  | 1.7e-05    | 1.8625e-05 | 2e-05      |   0.0 |  6.02
Modify  | 0          | 2.5e-07    | 1e-06      |   0.0 |  0.08
Other   |            | 8.875e-06  |            |       |  2.87

Nlocal:              1 ave           1 max           1 min
Histogram: 8 0 0 0 0 0 0 0 0 0
Nghost:            511 ave         511 max         511 min
Histogram: 8 0 0 0 0 0 0 0 0 0
Neighs:             85 ave          85 max          85 min
Histogram: 8 0 0 0 0 0 0 0 0 0
FullNghs:          170 ave         170 max         170 min
Histogram: 8 0 0 0 0 0 0 0 0 0

Total # of neighbors = 1360
Ave neighs/atom = 170
Neighbor list builds = 0
Dangerous builds = 0
variable  natoms equal "count(all)"
variable xlength equal "lx"
variable  volume equal "vol"
variable  etotal equal "etotal"
variable    ecoh equal "pe/v_natoms"
print "${xlength}, ${volume}, ${etotal}, ${ecoh}" append lattice_cohesive_energy.txt screen no

next i
jump SELF loop

change_box all x scale 1.0025 y scale 1.0025 z scale 1.0025 remap
Changing box ...
  orthogonal box = (-0.02197244 -0.016745576 -0.016745576) to (4.1699724 4.1647456 4.1647456)
  orthogonal box = (-0.02197244 -0.02197244 -0.016745576) to (4.1699724 4.1699724 4.1647456)
  orthogonal box = (-0.02197244 -0.02197244 -0.02197244) to (4.1699724 4.1699724 4.1699724)

run 1
WARNING: No fixes with time integration, atoms won't move (src/verlet.cpp:60)
Per MPI rank memory allocation (min/avg/max) = 8.559 | 8.559 | 8.559 Mbytes
[...]
Pair    | 0.000193   | 0.00022437 | 0.000253   |   0.0 | 71.83
Neigh   | 0          | 0          | 0          |   0.0 |  0.00
Comm    | 3.3e-05    | 6.05e-05   | 9.3e-05    |   0.0 | 19.37
Output  | 1.6e-05    | 1.875e-05  | 2.2e-05    |   0.0 |  6.00
Modify  | 0          | 3.75e-07   | 1e-06      |   0.0 |  0.12
Other   |            | 8.375e-06  |            |       |  2.68

Nlocal:              1 ave           1 max           1 min
Histogram: 8 0 0 0 0 0 0 0 0 0
Nghost:            511 ave         511 max         511 min
Histogram: 8 0 0 0 0 0 0 0 0 0
Neighs:             73 ave          73 max          73 min
Histogram: 8 0 0 0 0 0 0 0 0 0
FullNghs:          146 ave         146 max         146 min
Histogram: 8 0 0 0 0 0 0 0 0 0

Total # of neighbors = 1168
Ave neighs/atom = 146
Neighbor list builds = 0
Dangerous builds = 0
variable  natoms equal "count(all)"
variable xlength equal "lx"
variable  volume equal "vol"
variable  etotal equal "etotal"
variable    ecoh equal "pe/v_natoms"
print "${xlength}, ${volume}, ${etotal}, ${ecoh}" append lattice_cohesive_energy.txt screen no

next i
jump SELF loop

change_box all x scale 1.0025 y scale 1.0025 z scale 1.0025 remap
Changing box ...
  orthogonal box = (-0.096535563 -0.091122756 -0.091122756) to (4.2445356 4.2391228 4.2391228)
  orthogonal box = (-0.096535563 -0.096535563 -0.091122756) to (4.2445356 4.2445356 4.2391228)
  orthogonal box = (-0.096535563 -0.096535563 -0.096535563) to (4.2445356 4.2445356 4.2445356)

run 1
WARNING: No fixes with time integration, atoms won't move (src/verlet.cpp:60)
Per MPI rank memory allocation (min/avg/max) = 8.559 | 8.559 | 8.559 Mbytes
   Step         PotEng         TotEng           Lx             Ly             Lz           Volume         Press           Pxx            Pyy            Pzz      
        47  -40.555778     -40.555778      4.3410711      4.3410711      4.3410711      81.807045     -326092.81     -326092.81     -326092.81     -326092.81    
        48  -40.555778     -40.555778      4.3410711      4.3410711      4.3410711      81.807045     -326092.81     -326092.81     -326092.81     -326092.81    
Loop time of 0.0003125 on 8 procs for 1 steps with 8 atoms

Performance: 276.480 ns/day, 0.087 hours/ns, 3200.000 timesteps/s, 25.600 katom-step/s
0.0% CPU use with 8 MPI tasks x 1 OpenMP threads

MPI task timing breakdown:
Section |  min time  |  avg time  |  max time  |%varavg| %total
---------------------------------------------------------------
Pair    | 0.000193   | 0.00022313 | 0.000253   |   0.0 | 71.40
Neigh   | 0          | 0          | 0          |   0.0 |  0.00
Comm    | 3.3e-05    | 6.1375e-05 | 9.4e-05    |   0.0 | 19.64
Output  | 1.6e-05    | 1.9625e-05 | 2.3e-05    |   0.0 |  6.28
Modify  | 0          | 0          | 0          |   0.0 |  0.00
Other   |            | 8.375e-06  |            |       |  2.68

Nlocal:              1 ave           1 max           1 min
Histogram: 8 0 0 0 0 0 0 0 0 0
Nghost:            511 ave         511 max         511 min
Histogram: 8 0 0 0 0 0 0 0 0 0
Neighs:             73 ave          73 max          73 min
Histogram: 8 0 0 0 0 0 0 0 0 0
FullNghs:          146 ave         146 max         146 min
Histogram: 8 0 0 0 0 0 0 0 0 0

Total # of neighbors = 1168
Ave neighs/atom = 146
Neighbor list builds = 0
Dangerous builds = 0
variable  natoms equal "count(all)"
variable xlength equal "lx"
variable  volume equal "vol"
variable  etotal equal "etotal"
variable    ecoh equal "pe/v_natoms"
print "${xlength}, ${volume}, ${etotal}, ${ecoh}" append lattice_cohesive_energy.txt screen no

next i
jump SELF loop

change_box all x scale 1.0025 y scale 1.0025 z scale 1.0025 remap
Changing box ...
  orthogonal box = (-0.1019619 -0.096535563 -0.096535563) to (4.2499619 4.2445356 4.2445356)
  orthogonal box = (-0.1019619 -0.1019619 -0.096535563) to (4.2499619 4.2499619 4.2445356)
  orthogonal box = (-0.1019619 -0.1019619 -0.1019619) to (4.2499619 4.2499619 4.2499619)

run 1
WARNING: No fixes with time integration, atoms won't move (src/verlet.cpp:60)
Per MPI rank memory allocation (min/avg/max) = 8.559 | 8.559 | 8.559 Mbytes
   Step         PotEng         TotEng           Lx             Ly             Lz           Volume         Press           Pxx            Pyy            Pzz      
        48  -40.428344     -40.428344      4.3519238      4.3519238      4.3519238      82.422133     -337677.43     -337677.43     -337677.43     -337677.43    
        49  -40.428344     -40.428344      4.3519238      4.3519238      4.3519238      82.422133     -337677.43     -337677.43     -337677.43     -337677.43    
Loop time of 0.000309 on 8 procs for 1 steps with 8 atoms

Performance: 279.612 ns/day, 0.086 hours/ns, 3236.246 timesteps/s, 25.890 katom-step/s
0.0% CPU use with 8 MPI tasks x 1 OpenMP threads

MPI task timing breakdown:
Section |  min time  |  avg time  |  max time  |%varavg| %total
---------------------------------------------------------------
Pair    | 0.000193   | 0.00022263 | 0.00025    |   0.0 | 72.05
Neigh   | 0          | 0          | 0          |   0.0 |  0.00
Comm    | 3.2e-05    | 5.9125e-05 | 9e-05      |   0.0 | 19.13
Output  | 1.5e-05    | 1.8375e-05 | 2.1e-05    |   0.0 |  5.95
Modify  | 0          | 3.75e-07   | 1e-06      |   0.0 |  0.12
Other   |            | 8.5e-06    |            |       |  2.75

Nlocal:              1 ave           1 max           1 min
Histogram: 8 0 0 0 0 0 0 0 0 0
Nghost:            511 ave         511 max         511 min
Histogram: 8 0 0 0 0 0 0 0 0 0
Neighs:             73 ave          73 max          73 min
Histogram: 8 0 0 0 0 0 0 0 0 0
FullNghs:          146 ave         146 max         146 min
Histogram: 8 0 0 0 0 0 0 0 0 0

Total # of neighbors = 1168
Ave neighs/atom = 146
Neighbor list builds = 0
Dangerous builds = 0
variable  natoms equal "count(all)"
variable xlength equal "lx"
variable  volume equal "vol"
variable  etotal equal "etotal"
variable    ecoh equal "pe/v_natoms"
print "${xlength}, ${volume}, ${etotal}, ${ecoh}" append lattice_cohesive_energy.txt screen no

next i
jump SELF loop

change_box all x scale 1.0025 y scale 1.0025 z scale 1.0025 remap
Changing box ...
  orthogonal box = (-0.10740181 -0.1019619 -0.1019619) to (4.2554018 4.2499619 4.2499619)
  orthogonal box = (-0.10740181 -0.10740181 -0.1019619) to (4.2554018 4.2554018 4.2499619)
  orthogonal box = (-0.10740181 -0.10740181 -0.10740181) to (4.2554018 4.2554018 4.2554018)

run 1
WARNING: No fixes with time integration, atoms won't move (src/verlet.cpp:60)
Per MPI rank memory allocation (min/avg/max) = 8.559 | 8.559 | 8.559 Mbytes
   Step         PotEng         TotEng           Lx             Ly             Lz           Volume         Press           Pxx            Pyy            Pzz      
        49  -40.295578     -40.295578      4.3628036      4.3628036      4.3628036      83.041846     -348714.23     -348714.23     -348714.23     -348714.23    
        50  -40.295578     -40.295578      4.3628036      4.3628036      4.3628036      83.041846     -348714.23     -348714.23     -348714.23     -348714.23    
Loop time of 0.000326125 on 8 procs for 1 steps with 8 atoms

Performance: 264.929 ns/day, 0.091 hours/ns, 3066.309 timesteps/s, 24.530 katom-step/s
0.0% CPU use with 8 MPI tasks x 1 OpenMP threads

MPI task timing breakdown:
Section |  min time  |  avg time  |  max time  |%varavg| %total
---------------------------------------------------------------
Pair    | 0.000209   | 0.00023837 | 0.000266   |   0.0 | 73.09
Neigh   | 0          | 0          | 0          |   0.0 |  0.00
Comm    | 3.3e-05    | 5.9625e-05 | 9e-05      |   0.0 | 18.28
Output  | 1.6e-05    | 1.925e-05  | 2.2e-05    |   0.0 |  5.90
Modify  | 0          | 6.25e-07   | 1e-06      |   0.0 |  0.19
Other   |            | 8.25e-06   |            |       |  2.53

Nlocal:              1 ave           1 max           1 min
Histogram: 8 0 0 0 0 0 0 0 0 0
Nghost:            511 ave         511 max         511 min
Histogram: 8 0 0 0 0 0 0 0 0 0
Neighs:             73 ave          73 max          73 min
Histogram: 8 0 0 0 0 0 0 0 0 0
FullNghs:          146 ave         146 max         146 min
Histogram: 8 0 0 0 0 0 0 0 0 0

Total # of neighbors = 1168
Ave neighs/atom = 146
Neighbor list builds = 0
Dangerous builds = 0
variable  natoms equal "count(all)"
variable xlength equal "lx"
variable  volume equal "vol"
variable  etotal equal "etotal"
variable    ecoh equal "pe/v_natoms"
print "${xlength}, ${volume}, ${etotal}, ${ecoh}" append lattice_cohesive_energy.txt screen no

next i
jump SELF loop

change_box all x scale 1.0025 y scale 1.0025 z scale 1.0025 remap
Changing box ...
  orthogonal box = (-0.11285531 -0.10740181 -0.10740181) to (4.2608553 4.2554018 4.2554018)
  orthogonal box = (-0.11285531 -0.11285531 -0.10740181) to (4.2608553 4.2608553 4.2554018)
  orthogonal box = (-0.11285531 -0.11285531 -0.11285531) to (4.2608553 4.2608553 4.2608553)

run 1
WARNING: No fixes with time integration, atoms won't move (src/verlet.cpp:60)
Per MPI rank memory allocation (min/avg/max) = 8.559 | 8.559 | 8.559 Mbytes
   Step         PotEng         TotEng           Lx             Ly             Lz           Volume         Press           Pxx            Pyy            Pzz      
        50  -40.157617     -40.157617      4.3737106      4.3737106      4.3737106      83.666218     -359217.76     -359217.76     -359217.76     -359217.76    
        51  -40.157617     -40.157617      4.3737106      4.3737106      4.3737106      83.666218     -359217.76     -359217.76     -359217.76     -359217.76    
Loop time of 0.000314 on 8 procs for 1 steps with 8 atoms

Performance: 275.159 ns/day, 0.087 hours/ns, 3184.713 timesteps/s, 25.478 katom-step/s
0.0% CPU use with 8 MPI tasks x 1 OpenMP threads

MPI task timing breakdown:
Section |  min time  |  avg time  |  max time  |%varavg| %total
---------------------------------------------------------------
Pair    | 0.000192   | 0.00022362 | 0.000254   |   0.0 | 71.22
Neigh   | 0          | 0          | 0          |   0.0 |  0.00
Comm    | 3.3e-05    | 6.2375e-05 | 9.5e-05    |   0.0 | 19.86
Output  | 1.6e-05    | 1.8625e-05 | 2.1e-05    |   0.0 |  5.93
Modify  | 0          | 3.75e-07   | 1e-06      |   0.0 |  0.12
Other   |            | 9e-06      |            |       |  2.87

Nlocal:              1 ave           1 max           1 min
Histogram: 8 0 0 0 0 0 0 0 0 0
Nghost:            511 ave         511 max         511 min
Histogram: 8 0 0 0 0 0 0 0 0 0
Neighs:             73 ave          73 max          73 min
Histogram: 8 0 0 0 0 0 0 0 0 0
FullNghs:          146 ave         146 max         146 min
Histogram: 8 0 0 0 0 0 0 0 0 0

Total # of neighbors = 1168
Ave neighs/atom = 146
Neighbor list builds = 0
Dangerous builds = 0
variable  natoms equal "count(all)"
variable xlength equal "lx"
variable  volume equal "vol"
variable  etotal equal "etotal"
variable    ecoh equal "pe/v_natoms"
print "${xlength}, ${volume}, ${etotal}, ${ecoh}" append lattice_cohesive_energy.txt screen no

next i
jump SELF loop

change_box all x scale 1.0025 y scale 1.0025 z scale 1.0025 remap
Changing box ...
  orthogonal box = (-0.11832245 -0.11285531 -0.11285531) to (4.2663224 4.2608553 4.2608553)
  orthogonal box = (-0.11832245 -0.11832245 -0.11285531) to (4.2663224 4.2663224 4.2608553)
  orthogonal box = (-0.11832245 -0.11832245 -0.11832245) to (4.2663224 4.2663224 4.2663224)

run 1
WARNING: No fixes with time integration, atoms won't move (src/verlet.cpp:60)
Per MPI rank memory allocation (min/avg/max) = 8.559 | 8.559 | 8.559 Mbytes
   Step         PotEng         TotEng           Lx             Ly             Lz           Volume         Press           Pxx            Pyy            Pzz      
        51  -40.014597     -40.014597      4.3846449      4.3846449      4.3846449      84.295284     -369202.32     -369202.32     -369202.32     -369202.32    
        52  -40.014597     -40.014597      4.3846449      4.3846449      4.3846449      84.295284     -369202.32     -369202.32     -369202.32     -369202.32    
Loop time of 0.000310125 on 8 procs for 1 steps with 8 atoms

Performance: 278.597 ns/day, 0.086 hours/ns, 3224.506 timesteps/s, 25.796 katom-step/s
0.0% CPU use with 8 MPI tasks x 1 OpenMP threads

MPI task timing breakdown:
Section |  min time  |  avg time  |  max time  |%varavg| %total
---------------------------------------------------------------
Pair    | 0.000196   | 0.00022563 | 0.000252   |   0.0 | 72.75
Neigh   | 0          | 0          | 0          |   0.0 |  0.00
Comm    | 3.1e-05    | 5.725e-05  | 8.8e-05    |   0.0 | 18.46
Output  | 1.6e-05    | 1.9e-05    | 2.1e-05    |   0.0 |  6.13
Modify  | 0          | 6.25e-07   | 2e-06      |   0.0 |  0.20
Other   |            | 7.625e-06  |            |       |  2.46

Nlocal:              1 ave           1 max           1 min
Histogram: 8 0 0 0 0 0 0 0 0 0
Nghost:            511 ave         511 max         511 min
Histogram: 8 0 0 0 0 0 0 0 0 0
Neighs:             73 ave          73 max          73 min
Histogram: 8 0 0 0 0 0 0 0 0 0
FullNghs:          146 ave         146 max         146 min
Histogram: 8 0 0 0 0 0 0 0 0 0

Total # of neighbors = 1168
Ave neighs/atom = 146
Neighbor list builds = 0
Dangerous builds = 0
variable  natoms equal "count(all)"
variable xlength equal "lx"
variable  volume equal "vol"
variable  etotal equal "etotal"
variable    ecoh equal "pe/v_natoms"
print "${xlength}, ${volume}, ${etotal}, ${ecoh}" append lattice_cohesive_energy.txt screen no

next i
jump SELF loop

change_box all x scale 1.0025 y scale 1.0025 z scale 1.0025 remap
Changing box ...
  orthogonal box = (-0.12380326 -0.11832245 -0.11832245) to (4.2718033 4.2663224 4.2663224)
  orthogonal box = (-0.12380326 -0.12380326 -0.11832245) to (4.2718033 4.2718033 4.2663224)
  orthogonal box = (-0.12380326 -0.12380326 -0.12380326) to (4.2718033 4.2718033 4.2718033)

run 1
WARNING: No fixes with time integration, atoms won't move (src/verlet.cpp:60)
Per MPI rank memory allocation (min/avg/max) = 8.559 | 8.559 | 8.559 Mbytes
   Step         PotEng         TotEng           Lx             Ly             Lz           Volume         Press           Pxx            Pyy            Pzz      
        52  -39.866653     -39.866653      4.3956065      4.3956065      4.3956065      84.929081     -378681.87     -378681.87     -378681.87     -378681.87    
        53  -39.866653     -39.866653      4.3956065      4.3956065      4.3956065      84.929081     -378681.87     -378681.87     -378681.87     -378681.87    
Loop time of 0.000281875 on 8 procs for 1 steps with 8 atoms

Performance: 306.519 ns/day, 0.078 hours/ns, 3547.672 timesteps/s, 28.381 katom-step/s
0.0% CPU use with 8 MPI tasks x 1 OpenMP threads

MPI task timing breakdown:
Section |  min time  |  avg time  |  max time  |%varavg| %total
---------------------------------------------------------------
Pair    | 0.000178   | 0.000204   | 0.000226   |   0.0 | 72.37
Neigh   | 0          | 0          | 0          |   0.0 |  0.00
Comm    | 3.1e-05    | 5.2375e-05 | 7.9e-05    |   0.0 | 18.58
Output  | 1.5e-05    | 1.775e-05  | 2e-05      |   0.0 |  6.30
Modify  | 0          | 3.75e-07   | 1e-06      |   0.0 |  0.13
Other   |            | 7.375e-06  |            |       |  2.62

Nlocal:              1 ave           1 max           1 min
Histogram: 8 0 0 0 0 0 0 0 0 0
Nghost:            511 ave         511 max         511 min
Histogram: 8 0 0 0 0 0 0 0 0 0
Neighs:             73 ave          73 max          73 min
Histogram: 8 0 0 0 0 0 0 0 0 0
FullNghs:          146 ave         146 max         146 min
Histogram: 8 0 0 0 0 0 0 0 0 0

Total # of neighbors = 1168
Ave neighs/atom = 146
Neighbor list builds = 0
Dangerous builds = 0
variable  natoms equal "count(all)"
variable xlength equal "lx"
variable  volume equal "vol"
variable  etotal equal "etotal"
variable    ecoh equal "pe/v_natoms"
print "${xlength}, ${volume}, ${etotal}, ${ecoh}" append lattice_cohesive_energy.txt screen no

next i
jump SELF loop

change_box all x scale 1.0025 y scale 1.0025 z scale 1.0025 remap
Changing box ...
  orthogonal box = (-0.12929776 -0.12380326 -0.12380326) to (4.2772978 4.2718033 4.2718033)
  orthogonal box = (-0.12929776 -0.12929776 -0.12380326) to (4.2772978 4.2772978 4.2718033)
  orthogonal box = (-0.12929776 -0.12929776 -0.12929776) to (4.2772978 4.2772978 4.2772978)

run 1
WARNING: No fixes with time integration, atoms won't move (src/verlet.cpp:60)
Per MPI rank memory allocation (min/avg/max) = 8.559 | 8.559 | 8.559 Mbytes
   Step         PotEng         TotEng           Lx             Ly             Lz           Volume         Press           Pxx            Pyy            Pzz      
        53  -39.713916     -39.713916      4.4065955      4.4065955      4.4065955      85.567643     -387670.12     -387670.12     -387670.12     -387670.12    
        54  -39.713916     -39.713916      4.4065955      4.4065955      4.4065955      85.567643     -387670.12     -387670.12     -387670.12     -387670.12    
Loop time of 0.00031875 on 8 procs for 1 steps with 8 atoms

Performance: 271.059 ns/day, 0.089 hours/ns, 3137.255 timesteps/s, 25.098 katom-step/s
0.0% CPU use with 8 MPI tasks x 1 OpenMP threads

MPI task timing breakdown:
Section |  min time  |  avg time  |  max time  |%varavg| %total
---------------------------------------------------------------
Pair    | 0.000196   | 0.00023338 | 0.000262   |   0.0 | 73.22
Neigh   | 0          | 0          | 0          |   0.0 |  0.00
Comm    | 3.2e-05    | 5.8875e-05 | 9.8e-05    |   0.0 | 18.47
Output  | 1.6e-05    | 1.825e-05  | 2e-05      |   0.0 |  5.73
Modify  | 0          | 2.5e-07    | 1e-06      |   0.0 |  0.08
Other   |            | 8e-06      |            |       |  2.51

Nlocal:              1 ave           1 max           1 min
Histogram: 8 0 0 0 0 0 0 0 0 0
Nghost:            511 ave         511 max         511 min
Histogram: 8 0 0 0 0 0 0 0 0 0
Neighs:             73 ave          73 max          73 min
Histogram: 8 0 0 0 0 0 0 0 0 0
FullNghs:          146 ave         146 max         146 min
Histogram: 8 0 0 0 0 0 0 0 0 0

Total # of neighbors = 1168
Ave neighs/atom = 146
Neighbor list builds = 0
Dangerous builds = 0
variable  natoms equal "count(all)"
variable xlength equal "lx"
variable  volume equal "vol"
variable  etotal equal "etotal"
variable    ecoh equal "pe/v_natoms"
print "${xlength}, ${volume}, ${etotal}, ${ecoh}" append lattice_cohesive_energy.txt screen no

next i
jump SELF loop

print "-------------------------------------------------------------"
-------------------------------------------------------------
print "Show results of 1st step (Running Minimization)"
Show results of 1st step (Running Minimization)
print "The number of atoms = ${natoms};"
The number of atoms = 8;
print "The lattice constant, x (Angstoms) = ${x0};"
The lattice constant, x (Angstoms) = 4.40659552711837;
print "The lattice constant, y (Angstoms) = ${y0};"
The lattice constant, y (Angstoms) = 4.40659552711837;
print "The lattice constant, z (Angstoms) = ${z0};"
The lattice constant, z (Angstoms) = 4.40659552711837;
print "The volume (Angstoms^3) = ${v0};"
The volume (Angstoms^3) = 85.5676427148563;
print "The total energy (eV) = ${etot0};"
The total energy (eV) = -39.7139159585343;
print "The cohesive energy (eV/atom) = ${ecoh0};"
The cohesive energy (eV/atom) = -4.96423949481679;
print "-------------------------------------------------------------"
-------------------------------------------------------------
print "Simulations completed !"
Simulations completed !
Total wall time: 0:00:00
