LAMMPS (22 Dec 2022)
  using 1 OpenMP thread(s) per MPI task
Loaded 1 plugins from C:\Program Files\LAMMPS 64-bit 23Jun2022\plugins
Loaded 0 plugins from C:\Program Files\LAMMPS 64-bit 23Jun2022-MPI\plugins
Loaded 1 plugins from C:\Program Files\LAMMPS 64-bit 22Dec2022-MSMPI\plugins
Loaded 1 plugins from C:\Program Files\LAMMPS 64-bit 28Mar2023-MPI\plugins
#------------------------------------------------------------------------------------------
# LAMMPS 64-bit 22Dec2022-MSMPI
#------------------------------------------------------------------------------------------
clear
  using 1 OpenMP thread(s) per MPI task
Loaded 1 plugins from C:\Program Files\LAMMPS 64-bit 23Jun2022\plugins
Loaded 0 plugins from C:\Program Files\LAMMPS 64-bit 23Jun2022-MPI\plugins
Loaded 1 plugins from C:\Program Files\LAMMPS 64-bit 22Dec2022-MSMPI\plugins
Loaded 1 plugins from C:\Program Files\LAMMPS 64-bit 28Mar2023-MPI\plugins
#echo both
# ---------- Initializing Simulation ---------------------------------
units metal
dimension 3
boundary p p p
atom_style atomic
atom_modify map array

#read_data ./../../Ni3Fe.data
read_data ./../../CrN.data
Reading data file ...
  orthogonal box = (0 0 0) to (4.148 4.148 4.148)
  2 by 2 by 2 MPI processor grid
  reading atoms ...
  8 atoms
  read_data CPU = 0.002 seconds
#read_data ./../../NiN.data

replicate 1 1 1
Replication is creating a 1x1x1 = 1 times larger system...
  orthogonal box = (0 0 0) to (4.148 4.148 4.148)
  2 by 2 by 2 MPI processor grid
  8 atoms
  replicate CPU = 0.002 seconds

# ---------- Defining the Interatomic Potential ---------------------
pair_style meam
#pair_coeff * * ./../../library.meam Fe Cr Ni N ./../../FeCrNiN.meam Fe Ni
pair_coeff * * ./../../library.meam Fe Cr Ni N ./../../FeCrNiN.meam Cr N
#pair_coeff * * ./../../library.meam Fe Cr Ni N ./../../FeCrNiN.meam Ni N

# ---------- Running Minimization -------------------------------------
fix 1 all box/relax iso 0.0 vmax 0.001

thermo 10
thermo_style custom step pe etotal lx ly lz vol press pxx pyy pzz

min_style cg
minimize 1e-25 1e-25 5000 10000
Neighbor list info ...
  update: every = 1 steps, delay = 0 steps, check = yes
  max neighbors/atom: 2000, page size: 100000
  master list distance cutoff = 7
  ghost atom cutoff = 7
  binsize = 3.5, bins = 2 2 2
  2 neighbor lists, perpetual/occasional/extra = 2 0 0
  (1) pair meam, perpetual
      attributes: full, newton on
      pair build: full/bin/atomonly
      stencil: full/bin/3d
      bin: standard
  (2) pair meam, perpetual, half/full from (1)
      attributes: half, newton on
      pair build: halffull/newton
      stencil: none
      bin: none
Per MPI rank memory allocation (min/avg/max) = 9.684 | 9.684 | 9.684 Mbytes
   Step         PotEng         TotEng           Lx             Ly             Lz           Volume         Press           Pxx            Pyy            Pzz      
         0  -41.801745     -41.801745      4.148          4.148          4.148          71.37009      -608.70799     -608.70799     -608.70799     -608.70799    
         4  -41.801748     -41.801748      4.1477475      4.1477475      4.1477475      71.357055      1.5842126e-10  1.8189492e-10  1.5330587e-10  1.4006299e-10
Loop time of 0.002053 on 8 procs for 4 steps with 8 atoms

0.0% CPU use with 8 MPI tasks x 1 OpenMP threads

Minimization stats:
  Stopping criterion = energy tolerance
  Energy initial, next-to-last, final = 
     -41.8017453878926   -41.801747864535   -41.801747864535
  Force two-norm initial, final = 0.081345988 2.1196871e-14
  Force max component initial, final = 0.081345988 2.1168385e-14
  Final line search alpha, max atom move = 1 2.1168385e-14
  Iterations, force evaluations = 4 8

MPI task timing breakdown:
Section |  min time  |  avg time  |  max time  |%varavg| %total
---------------------------------------------------------------
Pair    | 0.001239   | 0.001295   | 0.001386   |   0.1 | 63.08
Neigh   | 0          | 0          | 0          |   0.0 |  0.00
Comm    | 0.000272   | 0.00035262 | 0.000412   |   0.0 | 17.18
Output  | 0          | 0          | 0          |   0.0 |  0.00
Modify  | 0          | 0          | 0          |   0.0 |  0.00
Other   |            | 0.0004054  |            |       | 19.75

Nlocal:              1 ave           1 max           1 min
Histogram: 8 0 0 0 0 0 0 0 0 0
Nghost:            511 ave         511 max         511 min
Histogram: 8 0 0 0 0 0 0 0 0 0
Neighs:             85 ave          85 max          85 min
Histogram: 8 0 0 0 0 0 0 0 0 0
FullNghs:          170 ave         170 max         170 min
Histogram: 8 0 0 0 0 0 0 0 0 0

Total # of neighbors = 1360
Ave neighs/atom = 170
Neighbor list builds = 0
Dangerous builds = 0

variable  natoms equal "count(all)"
variable      x0 equal "lx"
variable      y0 equal "ly"
variable      z0 equal "lz"
variable      v0 equal "vol"
variable   etot0 equal "etotal"
variable   ecoh0 equal "pe/v_natoms"

unfix 1
write_data ./../step2_elastic/data.in
System init for write_data ...

# ---------- For Equation of States -------------------------------------
change_box all x scale 0.94 y scale 0.94 z scale 0.94 remap
Changing box ...
  orthogonal box = (0.1245587 0.0001262746 0.0001262746) to (4.0234413 4.1478737 4.1478737)
  orthogonal box = (0.1245587 0.1245587 0.0001262746) to (4.0234413 4.0234413 4.1478737)
  orthogonal box = (0.1245587 0.1245587 0.1245587) to (4.0234413 4.0234413 4.0234413)
run 1
WARNING: No fixes with time integration, atoms won't move (src/verlet.cpp:60)
WARNING: Proc sub-domain size < neighbor skin, could lead to lost atoms (src/domain.cpp:966)
Per MPI rank memory allocation (min/avg/max) = 8.559 | 8.559 | 8.559 Mbytes
   Step         PotEng         TotEng           Lx             Ly             Lz           Volume         Press           Pxx            Pyy            Pzz      
         4  -38.775472     -38.775472      3.8988826      3.8988826      3.8988826      59.268028      953877.62      953877.62      953877.62      953877.62    
         5  -38.775472     -38.775472      3.8988826      3.8988826      3.8988826      59.268028      953877.62      953877.62      953877.62      953877.62    
Loop time of 0.0001855 on 8 procs for 1 steps with 8 atoms

Performance: 465.768 ns/day, 0.052 hours/ns, 5390.836 timesteps/s, 43.127 katom-step/s
0.0% CPU use with 8 MPI tasks x 1 OpenMP threads

MPI task timing breakdown:
Section |  min time  |  avg time  |  max time  |%varavg| %total
---------------------------------------------------------------
Pair    | 0.000141   | 0.000146   | 0.000148   |   0.0 | 78.71
Neigh   | 0          | 0          | 0          |   0.0 |  0.00
Comm    | 2.2e-05    | 2.375e-05  | 2.8e-05    |   0.0 | 12.80
Output  | 1.1e-05    | 1.1e-05    | 1.1e-05    |   0.0 |  5.93
Modify  | 0          | 3.75e-07   | 1e-06      |   0.0 |  0.20
Other   |            | 4.375e-06  |            |       |  2.36

Nlocal:              1 ave           1 max           1 min
Histogram: 8 0 0 0 0 0 0 0 0 0
Nghost:            511 ave         511 max         511 min
Histogram: 8 0 0 0 0 0 0 0 0 0
Neighs:             89 ave          89 max          89 min
Histogram: 8 0 0 0 0 0 0 0 0 0
FullNghs:          178 ave         178 max         178 min
Histogram: 8 0 0 0 0 0 0 0 0 0

Total # of neighbors = 1424
Ave neighs/atom = 178
Neighbor list builds = 0
Dangerous builds = 0
print "# Lattice constant (Angstroms), Volume (Angstrom), Total energy (eV), Cohesive energy (eV/atom)" file lattice_cohesive_energy.txt screen no


# Loop over lattice constants
variable i loop 49 # Number of steps
label loop

change_box all x scale 1.0025 y scale 1.0025 z scale 1.0025 remap
Changing box ...
  orthogonal box = (0.11968509 0.1245587 0.1245587) to (4.0283149 4.0234413 4.0234413)
  orthogonal box = (0.11968509 0.11968509 0.1245587) to (4.0283149 4.0283149 4.0234413)
  orthogonal box = (0.11968509 0.11968509 0.11968509) to (4.0283149 4.0283149 4.0283149)

run 1
WARNING: No fixes with time integration, atoms won't move (src/verlet.cpp:60)
WARNING: Proc sub-domain size < neighbor skin, could lead to lost atoms (src/domain.cpp:966)
Per MPI rank memory allocation (min/avg/max) = 8.615 | 8.617 | 8.629 Mbytes
   Step         PotEng         TotEng           Lx             Ly             Lz           Volume         Press           Pxx            Pyy            Pzz      
         5  -39.033227     -39.033227      3.9086298      3.9086298      3.9086298      59.71365       899896.59      899896.59      899896.59      899896.59    
         6  -39.033227     -39.033227      3.9086298      3.9086298      3.9086298      59.71365       899896.59      899896.59      899896.59      899896.59    
Loop time of 0.000468 on 8 procs for 1 steps with 8 atoms

Performance: 184.615 ns/day, 0.130 hours/ns, 2136.752 timesteps/s, 17.094 katom-step/s
0.0% CPU use with 8 MPI tasks x 1 OpenMP threads

MPI task timing breakdown:
Section |  min time  |  avg time  |  max time  |%varavg| %total
---------------------------------------------------------------
Pair    | 0.000354   | 0.00036463 | 0.000428   |   0.0 | 77.91
Neigh   | 0          | 0          | 0          |   0.0 |  0.00
Comm    | 1.6e-05    | 4.5375e-05 | 9.4e-05    |   0.0 |  9.70
Output  | 1.3e-05    | 5.3125e-05 | 9.2e-05    |   0.0 | 11.35
Modify  | 0          | 1.25e-07   | 1e-06      |   0.0 |  0.03
Other   |            | 4.75e-06   |            |       |  1.01

Nlocal:              1 ave           8 max           0 min
Histogram: 7 0 0 0 0 0 0 0 0 1
Nghost:            511 ave         512 max         504 min
Histogram: 1 0 0 0 0 0 0 0 0 7
Neighs:             89 ave         712 max           0 min
Histogram: 7 0 0 0 0 0 0 0 0 1
FullNghs:          178 ave        1424 max           0 min
Histogram: 7 0 0 0 0 0 0 0 0 1

Total # of neighbors = 1424
Ave neighs/atom = 178
Neighbor list builds = 0
Dangerous builds = 0
variable  natoms equal "count(all)"
variable xlength equal "lx"
variable  volume equal "vol"
variable  etotal equal "etotal"
variable    ecoh equal "pe/v_natoms"
print "${xlength}, ${volume}, ${etotal}, ${ecoh}" append lattice_cohesive_energy.txt screen no

next i
jump SELF loop

change_box all x scale 1.0025 y scale 1.0025 z scale 1.0025 remap
Changing box ...
  orthogonal box = (0.11479931 0.11968509 0.11968509) to (4.0332007 4.0283149 4.0283149)
  orthogonal box = (0.11479931 0.11479931 0.11968509) to (4.0332007 4.0332007 4.0283149)
  orthogonal box = (0.11479931 0.11479931 0.11479931) to (4.0332007 4.0332007 4.0332007)

run 1
WARNING: No fixes with time integration, atoms won't move (src/verlet.cpp:60)
WARNING: Proc sub-domain size < neighbor skin, could lead to lost atoms (src/domain.cpp:966)
Per MPI rank memory allocation (min/avg/max) = 8.615 | 8.617 | 8.629 Mbytes
   Step         PotEng         TotEng           Lx             Ly             Lz           Volume         Press           Pxx            Pyy            Pzz      
         6  -39.278009     -39.278009      3.9184014      3.9184014      3.9184014      60.162623      847441.74      847441.74      847441.74      847441.74    
         7  -39.278009     -39.278009      3.9184014      3.9184014      3.9184014      60.162623      847441.74      847441.74      847441.74      847441.74    
Loop time of 0.0002015 on 8 procs for 1 steps with 8 atoms

Performance: 428.784 ns/day, 0.056 hours/ns, 4962.779 timesteps/s, 39.702 katom-step/s
0.0% CPU use with 8 MPI tasks x 1 OpenMP threads

MPI task timing breakdown:
Section |  min time  |  avg time  |  max time  |%varavg| %total
---------------------------------------------------------------
Pair    | 0.000158   | 0.00015913 | 0.000161   |   0.0 | 78.97
Neigh   | 0          | 0          | 0          |   0.0 |  0.00
Comm    | 2.3e-05    | 2.4625e-05 | 2.6e-05    |   0.0 | 12.22
Output  | 1.1e-05    | 1.1625e-05 | 1.2e-05    |   0.0 |  5.77
Modify  | 0          | 5e-07      | 1e-06      |   0.0 |  0.25
Other   |            | 5.625e-06  |            |       |  2.79

Nlocal:              1 ave           1 max           1 min
Histogram: 8 0 0 0 0 0 0 0 0 0
Nghost:            511 ave         511 max         511 min
Histogram: 8 0 0 0 0 0 0 0 0 0
Neighs:             89 ave          89 max          89 min
Histogram: 8 0 0 0 0 0 0 0 0 0
FullNghs:          178 ave         178 max         178 min
Histogram: 8 0 0 0 0 0 0 0 0 0

Total # of neighbors = 1424
Ave neighs/atom = 178
Neighbor list builds = 0
Dangerous builds = 0
variable  natoms equal "count(all)"
variable xlength equal "lx"
variable  volume equal "vol"
variable  etotal equal "etotal"
variable    ecoh equal "pe/v_natoms"
print "${xlength}, ${volume}, ${etotal}, ${ecoh}" append lattice_cohesive_energy.txt screen no

next i
jump SELF loop

change_box all x scale 1.0025 y scale 1.0025 z scale 1.0025 remap
Changing box ...
  orthogonal box = (0.10990131 0.11479931 0.11479931) to (4.0380987 4.0332007 4.0332007)
  orthogonal box = (0.10990131 0.10990131 0.11479931) to (4.0380987 4.0380987 4.0332007)
  orthogonal box = (0.10990131 0.10990131 0.10990131) to (4.0380987 4.0380987 4.0380987)

run 1
WARNING: No fixes with time integration, atoms won't move (src/verlet.cpp:60)
WARNING: Proc sub-domain size < neighbor skin, could lead to lost atoms (src/domain.cpp:966)
Per MPI rank memory allocation (min/avg/max) = 8.615 | 8.617 | 8.629 Mbytes
   Step         PotEng         TotEng           Lx             Ly             Lz           Volume         Press           Pxx            Pyy            Pzz      
         7  -39.510032     -39.510032      3.9281974      3.9281974      3.9281974      60.614972      796480.85      796480.85      796480.85      796480.85    
         8  -39.510032     -39.510032      3.9281974      3.9281974      3.9281974      60.614972      796480.85      796480.85      796480.85      796480.85    
Loop time of 0.000466125 on 8 procs for 1 steps with 8 atoms

Performance: 185.358 ns/day, 0.129 hours/ns, 2145.347 timesteps/s, 17.163 katom-step/s
838.0% CPU use with 8 MPI tasks x 1 OpenMP threads

MPI task timing breakdown:
Section |  min time  |  avg time  |  max time  |%varavg| %total
---------------------------------------------------------------
Pair    | 0.000343   | 0.0003545  | 0.000425   |   0.0 | 76.05
Neigh   | 0          | 0          | 0          |   0.0 |  0.00
Comm    | 1.5e-05    | 4.85e-05   | 0.000104   |   0.0 | 10.40
Output  | 1.2e-05    | 5.7e-05    | 0.000101   |   0.0 | 12.23
Modify  | 0          | 2.5e-07    | 1e-06      |   0.0 |  0.05
Other   |            | 5.875e-06  |            |       |  1.26

Nlocal:              1 ave           8 max           0 min
Histogram: 7 0 0 0 0 0 0 0 0 1
Nghost:            511 ave         512 max         504 min
Histogram: 1 0 0 0 0 0 0 0 0 7
Neighs:             89 ave         712 max           0 min
Histogram: 7 0 0 0 0 0 0 0 0 1
FullNghs:          178 ave        1424 max           0 min
Histogram: 7 0 0 0 0 0 0 0 0 1

Total # of neighbors = 1424
Ave neighs/atom = 178
Neighbor list builds = 0
Dangerous builds = 0
variable  natoms equal "count(all)"
variable xlength equal "lx"
variable  volume equal "vol"
variable  etotal equal "etotal"
variable    ecoh equal "pe/v_natoms"
print "${xlength}, ${volume}, ${etotal}, ${ecoh}" append lattice_cohesive_energy.txt screen no

next i
jump SELF loop

change_box all x scale 1.0025 y scale 1.0025 z scale 1.0025 remap
Changing box ...
  orthogonal box = (0.10499106 0.10990131 0.10990131) to (4.0430089 4.0380987 4.0380987)
  orthogonal box = (0.10499106 0.10499106 0.10990131) to (4.0430089 4.0430089 4.0380987)
  orthogonal box = (0.10499106 0.10499106 0.10499106) to (4.0430089 4.0430089 4.0430089)

run 1
WARNING: No fixes with time integration, atoms won't move (src/verlet.cpp:60)
WARNING: Proc sub-domain size < neighbor skin, could lead to lost atoms (src/domain.cpp:966)
Per MPI rank memory allocation (min/avg/max) = 8.615 | 8.617 | 8.629 Mbytes
   Step         PotEng         TotEng           Lx             Ly             Lz           Volume         Press           Pxx            Pyy            Pzz      
         8  -39.729513     -39.729513      3.9380179      3.9380179      3.9380179      61.070722      746982.22      746982.22      746982.22      746982.22    
         9  -39.729513     -39.729513      3.9380179      3.9380179      3.9380179      61.070722      746982.22      746982.22      746982.22      746982.22    
Loop time of 0.00045725 on 8 procs for 1 steps with 8 atoms

Performance: 188.956 ns/day, 0.127 hours/ns, 2186.987 timesteps/s, 17.496 katom-step/s
0.0% CPU use with 8 MPI tasks x 1 OpenMP threads

MPI task timing breakdown:
Section |  min time  |  avg time  |  max time  |%varavg| %total
---------------------------------------------------------------
Pair    | 0.000342   | 0.00035187 | 0.000414   |   0.0 | 76.95
Neigh   | 0          | 0          | 0          |   0.0 |  0.00
Comm    | 1.8e-05    | 4.8e-05    | 9.6e-05    |   0.0 | 10.50
Output  | 1.3e-05    | 5.1875e-05 | 9e-05      |   0.0 | 11.34
Modify  | 0          | 1.25e-07   | 1e-06      |   0.0 |  0.03
Other   |            | 5.375e-06  |            |       |  1.18

Nlocal:              1 ave           8 max           0 min
Histogram: 7 0 0 0 0 0 0 0 0 1
Nghost:            511 ave         512 max         504 min
Histogram: 1 0 0 0 0 0 0 0 0 7
Neighs:             89 ave         712 max           0 min
Histogram: 7 0 0 0 0 0 0 0 0 1
FullNghs:          178 ave        1424 max           0 min
Histogram: 7 0 0 0 0 0 0 0 0 1

Total # of neighbors = 1424
Ave neighs/atom = 178
Neighbor list builds = 0
Dangerous builds = 0
variable  natoms equal "count(all)"
variable xlength equal "lx"
variable  volume equal "vol"
variable  etotal equal "etotal"
variable    ecoh equal "pe/v_natoms"
print "${xlength}, ${volume}, ${etotal}, ${ecoh}" append lattice_cohesive_energy.txt screen no

next i
jump SELF loop

change_box all x scale 1.0025 y scale 1.0025 z scale 1.0025 remap
Changing box ...
  orthogonal box = (0.10006854 0.10499106 0.10499106) to (4.0479315 4.0430089 4.0430089)
  orthogonal box = (0.10006854 0.10006854 0.10499106) to (4.0479315 4.0479315 4.0430089)
  orthogonal box = (0.10006854 0.10006854 0.10006854) to (4.0479315 4.0479315 4.0479315)

run 1
WARNING: No fixes with time integration, atoms won't move (src/verlet.cpp:60)
WARNING: Proc sub-domain size < neighbor skin, could lead to lost atoms (src/domain.cpp:966)
Per MPI rank memory allocation (min/avg/max) = 8.615 | 8.617 | 8.629 Mbytes
   Step         PotEng         TotEng           Lx             Ly             Lz           Volume         Press           Pxx            Pyy            Pzz      
         9  -39.936665     -39.936665      3.9478629      3.9478629      3.9478629      61.529898      698914.71      698914.71      698914.71      698914.71    
        10  -39.936665     -39.936665      3.9478629      3.9478629      3.9478629      61.529898      698914.71      698914.71      698914.71      698914.71    
Loop time of 0.000442125 on 8 procs for 1 steps with 8 atoms

Performance: 195.420 ns/day, 0.123 hours/ns, 2261.804 timesteps/s, 18.094 katom-step/s
0.0% CPU use with 8 MPI tasks x 1 OpenMP threads

MPI task timing breakdown:
Section |  min time  |  avg time  |  max time  |%varavg| %total
---------------------------------------------------------------
Pair    | 0.000324   | 0.00033412 | 0.000396   |   0.0 | 75.57
Neigh   | 0          | 0          | 0          |   0.0 |  0.00
Comm    | 1.4e-05    | 4.3875e-05 | 9.2e-05    |   0.0 |  9.92
Output  | 1.2e-05    | 5.225e-05  | 9e-05      |   0.0 | 11.82
Modify  | 0          | 1.25e-07   | 1e-06      |   0.0 |  0.03
Other   |            | 1.175e-05  |            |       |  2.66

Nlocal:              1 ave           8 max           0 min
Histogram: 7 0 0 0 0 0 0 0 0 1
Nghost:            511 ave         512 max         504 min
Histogram: 1 0 0 0 0 0 0 0 0 7
Neighs:             89 ave         712 max           0 min
Histogram: 7 0 0 0 0 0 0 0 0 1
FullNghs:          178 ave        1424 max           0 min
Histogram: 7 0 0 0 0 0 0 0 0 1

Total # of neighbors = 1424
Ave neighs/atom = 178
Neighbor list builds = 0
Dangerous builds = 0
variable  natoms equal "count(all)"
variable xlength equal "lx"
variable  volume equal "vol"
variable  etotal equal "etotal"
variable    ecoh equal "pe/v_natoms"
print "${xlength}, ${volume}, ${etotal}, ${ecoh}" append lattice_cohesive_energy.txt screen no

next i
jump SELF loop

change_box all x scale 1.0025 y scale 1.0025 z scale 1.0025 remap
Changing box ...
  orthogonal box = (0.095133708 0.10006854 0.10006854) to (4.0528663 4.0479315 4.0479315)
  orthogonal box = (0.095133708 0.095133708 0.10006854) to (4.0528663 4.0528663 4.0479315)
  orthogonal box = (0.095133708 0.095133708 0.095133708) to (4.0528663 4.0528663 4.0528663)

run 1
WARNING: No fixes with time integration, atoms won't move (src/verlet.cpp:60)
WARNING: Proc sub-domain size < neighbor skin, could lead to lost atoms (src/domain.cpp:966)
Per MPI rank memory allocation (min/avg/max) = 8.615 | 8.617 | 8.629 Mbytes
   Step         PotEng         TotEng           Lx             Ly             Lz           Volume         Press           Pxx            Pyy            Pzz      
        10  -40.131697     -40.131697      3.9577326      3.9577326      3.9577326      61.992527      652247.67      652247.67      652247.67      652247.67    
        11  -40.131697     -40.131697      3.9577326      3.9577326      3.9577326      61.992527      652247.67      652247.67      652247.67      652247.67    
Loop time of 0.000455 on 8 procs for 1 steps with 8 atoms

Performance: 189.890 ns/day, 0.126 hours/ns, 2197.802 timesteps/s, 17.582 katom-step/s
0.0% CPU use with 8 MPI tasks x 1 OpenMP threads

MPI task timing breakdown:
Section |  min time  |  avg time  |  max time  |%varavg| %total
---------------------------------------------------------------
Pair    | 0.000333   | 0.0003435  | 0.000414   |   0.0 | 75.49
Neigh   | 0          | 0          | 0          |   0.0 |  0.00
Comm    | 1.5e-05    | 4.8375e-05 | 0.000103   |   0.0 | 10.63
Output  | 1.3e-05    | 5.7375e-05 | 0.000102   |   0.0 | 12.61
Modify  | 0          | 2.5e-07    | 1e-06      |   0.0 |  0.05
Other   |            | 5.5e-06    |            |       |  1.21

Nlocal:              1 ave           8 max           0 min
Histogram: 7 0 0 0 0 0 0 0 0 1
Nghost:            511 ave         512 max         504 min
Histogram: 1 0 0 0 0 0 0 0 0 7
Neighs:             89 ave         712 max           0 min
Histogram: 7 0 0 0 0 0 0 0 0 1
FullNghs:          178 ave        1424 max           0 min
Histogram: 7 0 0 0 0 0 0 0 0 1

Total # of neighbors = 1424
Ave neighs/atom = 178
Neighbor list builds = 0
Dangerous builds = 0
variable  natoms equal "count(all)"
variable xlength equal "lx"
variable  volume equal "vol"
variable  etotal equal "etotal"
variable    ecoh equal "pe/v_natoms"
print "${xlength}, ${volume}, ${etotal}, ${ecoh}" append lattice_cohesive_energy.txt screen no

next i
jump SELF loop

change_box all x scale 1.0025 y scale 1.0025 z scale 1.0025 remap
Changing box ...
  orthogonal box = (0.090186542 0.095133708 0.095133708) to (4.0578135 4.0528663 4.0528663)
  orthogonal box = (0.090186542 0.090186542 0.095133708) to (4.0578135 4.0578135 4.0528663)
  orthogonal box = (0.090186542 0.090186542 0.090186542) to (4.0578135 4.0578135 4.0578135)

run 1
WARNING: No fixes with time integration, atoms won't move (src/verlet.cpp:60)
WARNING: Proc sub-domain size < neighbor skin, could lead to lost atoms (src/domain.cpp:966)
Per MPI rank memory allocation (min/avg/max) = 8.615 | 8.617 | 8.629 Mbytes
   Step         PotEng         TotEng           Lx             Ly             Lz           Volume         Press           Pxx            Pyy            Pzz      
        11  -40.31482      -40.31482       3.9676269      3.9676269      3.9676269      62.458634      606951.01      606951.01      606951.01      606951.01    
        12  -40.31482      -40.31482       3.9676269      3.9676269      3.9676269      62.458634      606951.01      606951.01      606951.01      606951.01    
Loop time of 0.000469625 on 8 procs for 1 steps with 8 atoms

Performance: 183.977 ns/day, 0.130 hours/ns, 2129.359 timesteps/s, 17.035 katom-step/s
0.0% CPU use with 8 MPI tasks x 1 OpenMP threads

MPI task timing breakdown:
Section |  min time  |  avg time  |  max time  |%varavg| %total
---------------------------------------------------------------
Pair    | 0.000337   | 0.00034912 | 0.000427   |   0.0 | 74.34
Neigh   | 0          | 0          | 0          |   0.0 |  0.00
Comm    | 1.8e-05    | 5.35e-05   | 0.000113   |   0.0 | 11.39
Output  | 1.4e-05    | 6.2125e-05 | 0.00011    |   0.0 | 13.23
Modify  | 0          | 3.75e-07   | 1e-06      |   0.0 |  0.08
Other   |            | 4.5e-06    |            |       |  0.96

Nlocal:              1 ave           8 max           0 min
Histogram: 7 0 0 0 0 0 0 0 0 1
Nghost:            511 ave         512 max         504 min
Histogram: 1 0 0 0 0 0 0 0 0 7
Neighs:             89 ave         712 max           0 min
Histogram: 7 0 0 0 0 0 0 0 0 1
FullNghs:          178 ave        1424 max           0 min
Histogram: 7 0 0 0 0 0 0 0 0 1

Total # of neighbors = 1424
Ave neighs/atom = 178
Neighbor list builds = 0
Dangerous builds = 0
variable  natoms equal "count(all)"
variable xlength equal "lx"
variable  volume equal "vol"
variable  etotal equal "etotal"
variable    ecoh equal "pe/v_natoms"
print "${xlength}, ${volume}, ${etotal}, ${ecoh}" append lattice_cohesive_energy.txt screen no

next i
jump SELF loop

change_box all x scale 1.0025 y scale 1.0025 z scale 1.0025 remap
Changing box ...
  orthogonal box = (0.085227009 0.090186542 0.090186542) to (4.062773 4.0578135 4.0578135)
  orthogonal box = (0.085227009 0.085227009 0.090186542) to (4.062773 4.062773 4.0578135)
  orthogonal box = (0.085227009 0.085227009 0.085227009) to (4.062773 4.062773 4.062773)

run 1
WARNING: No fixes with time integration, atoms won't move (src/verlet.cpp:60)
WARNING: Proc sub-domain size < neighbor skin, could lead to lost atoms (src/domain.cpp:966)
Per MPI rank memory allocation (min/avg/max) = 8.615 | 8.617 | 8.629 Mbytes
   Step         PotEng         TotEng           Lx             Ly             Lz           Volume         Press           Pxx            Pyy            Pzz      
        12  -40.48624      -40.48624       3.977546       3.977546       3.977546       62.928246      562995.12      562995.12      562995.12      562995.12    
        13  -40.48624      -40.48624       3.977546       3.977546       3.977546       62.928246      562995.12      562995.12      562995.12      562995.12    
Loop time of 0.000527 on 8 procs for 1 steps with 8 atoms

Performance: 163.947 ns/day, 0.146 hours/ns, 1897.533 timesteps/s, 15.180 katom-step/s
0.0% CPU use with 8 MPI tasks x 1 OpenMP threads

MPI task timing breakdown:
Section |  min time  |  avg time  |  max time  |%varavg| %total
---------------------------------------------------------------
Pair    | 0.000352   | 0.00036975 | 0.000479   |   0.0 | 70.16
Neigh   | 0          | 0          | 0          |   0.0 |  0.00
Comm    | 1.6e-05    | 6.525e-05  | 0.000147   |   0.0 | 12.38
Output  | 1.7e-05    | 8.4e-05    | 0.00015    |   0.0 | 15.94
Modify  | 0          | 2.5e-07    | 1e-06      |   0.0 |  0.05
Other   |            | 7.75e-06   |            |       |  1.47

Nlocal:              1 ave           8 max           0 min
Histogram: 7 0 0 0 0 0 0 0 0 1
Nghost:            511 ave         512 max         504 min
Histogram: 1 0 0 0 0 0 0 0 0 7
Neighs:             89 ave         712 max           0 min
Histogram: 7 0 0 0 0 0 0 0 0 1
FullNghs:          178 ave        1424 max           0 min
Histogram: 7 0 0 0 0 0 0 0 0 1

Total # of neighbors = 1424
Ave neighs/atom = 178
Neighbor list builds = 0
Dangerous builds = 0
variable  natoms equal "count(all)"
variable xlength equal "lx"
variable  volume equal "vol"
variable  etotal equal "etotal"
variable    ecoh equal "pe/v_natoms"
print "${xlength}, ${volume}, ${etotal}, ${ecoh}" append lattice_cohesive_energy.txt screen no

next i
jump SELF loop

change_box all x scale 1.0025 y scale 1.0025 z scale 1.0025 remap
Changing box ...
  orthogonal box = (0.080255076 0.085227009 0.085227009) to (4.0677449 4.062773 4.062773)
  orthogonal box = (0.080255076 0.080255076 0.085227009) to (4.0677449 4.0677449 4.062773)
  orthogonal box = (0.080255076 0.080255076 0.080255076) to (4.0677449 4.0677449 4.0677449)

run 1
WARNING: No fixes with time integration, atoms won't move (src/verlet.cpp:60)
WARNING: Proc sub-domain size < neighbor skin, could lead to lost atoms (src/domain.cpp:966)
Per MPI rank memory allocation (min/avg/max) = 8.615 | 8.617 | 8.629 Mbytes
   Step         PotEng         TotEng           Lx             Ly             Lz           Volume         Press           Pxx            Pyy            Pzz      
        13  -40.646163     -40.646163      3.9874898      3.9874898      3.9874898      63.401389      520350.92      520350.92      520350.92      520350.92    
        14  -40.646163     -40.646163      3.9874898      3.9874898      3.9874898      63.401389      520350.92      520350.92      520350.92      520350.92    
Loop time of 0.000558375 on 8 procs for 1 steps with 8 atoms

Performance: 154.735 ns/day, 0.155 hours/ns, 1790.911 timesteps/s, 14.327 katom-step/s
0.0% CPU use with 8 MPI tasks x 1 OpenMP threads

MPI task timing breakdown:
Section |  min time  |  avg time  |  max time  |%varavg| %total
---------------------------------------------------------------
Pair    | 0.000438   | 0.00044875 | 0.000516   |   0.0 | 80.37
Neigh   | 0          | 0          | 0          |   0.0 |  0.00
Comm    | 1.6e-05    | 4.7875e-05 | 0.000101   |   0.0 |  8.57
Output  | 1.2e-05    | 5.5625e-05 | 9.8e-05    |   0.0 |  9.96
Modify  | 0          | 1.25e-07   | 1e-06      |   0.0 |  0.02
Other   |            | 6e-06      |            |       |  1.07

Nlocal:              1 ave           8 max           0 min
Histogram: 7 0 0 0 0 0 0 0 0 1
Nghost:            511 ave         512 max         504 min
Histogram: 1 0 0 0 0 0 0 0 0 7
Neighs:             89 ave         712 max           0 min
Histogram: 7 0 0 0 0 0 0 0 0 1
FullNghs:          178 ave        1424 max           0 min
Histogram: 7 0 0 0 0 0 0 0 0 1

Total # of neighbors = 1424
Ave neighs/atom = 178
Neighbor list builds = 0
Dangerous builds = 0
variable  natoms equal "count(all)"
variable xlength equal "lx"
variable  volume equal "vol"
variable  etotal equal "etotal"
variable    ecoh equal "pe/v_natoms"
print "${xlength}, ${volume}, ${etotal}, ${ecoh}" append lattice_cohesive_energy.txt screen no

next i
jump SELF loop

change_box all x scale 1.0025 y scale 1.0025 z scale 1.0025 remap
Changing box ...
  orthogonal box = (0.075270714 0.080255076 0.080255076) to (4.0727293 4.0677449 4.0677449)
  orthogonal box = (0.075270714 0.075270714 0.080255076) to (4.0727293 4.0727293 4.0677449)
  orthogonal box = (0.075270714 0.075270714 0.075270714) to (4.0727293 4.0727293 4.0727293)

run 1
WARNING: No fixes with time integration, atoms won't move (src/verlet.cpp:60)
WARNING: Proc sub-domain size < neighbor skin, could lead to lost atoms (src/domain.cpp:966)
Per MPI rank memory allocation (min/avg/max) = 8.615 | 8.617 | 8.629 Mbytes
   Step         PotEng         TotEng           Lx             Ly             Lz           Volume         Press           Pxx            Pyy            Pzz      
        14  -40.794792     -40.794792      3.9974586      3.9974586      3.9974586      63.878089      478989.81      478989.81      478989.81      478989.81    
        15  -40.794792     -40.794792      3.9974586      3.9974586      3.9974586      63.878089      478989.81      478989.81      478989.81      478989.81    
Loop time of 0.00017175 on 8 procs for 1 steps with 8 atoms

Performance: 503.057 ns/day, 0.048 hours/ns, 5822.416 timesteps/s, 46.579 katom-step/s
0.0% CPU use with 8 MPI tasks x 1 OpenMP threads

MPI task timing breakdown:
Section |  min time  |  avg time  |  max time  |%varavg| %total
---------------------------------------------------------------
Pair    | 0.000133   | 0.00013363 | 0.000135   |   0.0 | 77.80
Neigh   | 0          | 0          | 0          |   0.0 |  0.00
Comm    | 2.1e-05    | 2.1875e-05 | 2.3e-05    |   0.0 | 12.74
Output  | 1.1e-05    | 1.15e-05   | 1.2e-05    |   0.0 |  6.70
Modify  | 0          | 2.5e-07    | 1e-06      |   0.0 |  0.15
Other   |            | 4.5e-06    |            |       |  2.62

Nlocal:              1 ave           1 max           1 min
Histogram: 8 0 0 0 0 0 0 0 0 0
Nghost:            511 ave         511 max         511 min
Histogram: 8 0 0 0 0 0 0 0 0 0
Neighs:             89 ave          89 max          89 min
Histogram: 8 0 0 0 0 0 0 0 0 0
FullNghs:          178 ave         178 max         178 min
Histogram: 8 0 0 0 0 0 0 0 0 0

Total # of neighbors = 1424
Ave neighs/atom = 178
Neighbor list builds = 0
Dangerous builds = 0
variable  natoms equal "count(all)"
variable xlength equal "lx"
variable  volume equal "vol"
variable  etotal equal "etotal"
variable    ecoh equal "pe/v_natoms"
print "${xlength}, ${volume}, ${etotal}, ${ecoh}" append lattice_cohesive_energy.txt screen no

next i
jump SELF loop

change_box all x scale 1.0025 y scale 1.0025 z scale 1.0025 remap
Changing box ...
  orthogonal box = (0.070273891 0.075270714 0.075270714) to (4.0777261 4.0727293 4.0727293)
  orthogonal box = (0.070273891 0.070273891 0.075270714) to (4.0777261 4.0777261 4.0727293)
  orthogonal box = (0.070273891 0.070273891 0.070273891) to (4.0777261 4.0777261 4.0777261)

run 1
WARNING: No fixes with time integration, atoms won't move (src/verlet.cpp:60)
Per MPI rank memory allocation (min/avg/max) = 8.615 | 8.617 | 8.629 Mbytes
   Step         PotEng         TotEng           Lx             Ly             Lz           Volume         Press           Pxx            Pyy            Pzz      
        15  -40.932329     -40.932329      4.0074522      4.0074522      4.0074522      64.358373      438883.69      438883.69      438883.69      438883.69    
        16  -40.932329     -40.932329      4.0074522      4.0074522      4.0074522      64.358373      438883.69      438883.69      438883.69      438883.69    
Loop time of 0.000446 on 8 procs for 1 steps with 8 atoms

Performance: 193.722 ns/day, 0.124 hours/ns, 2242.152 timesteps/s, 17.937 katom-step/s
0.0% CPU use with 8 MPI tasks x 1 OpenMP threads

MPI task timing breakdown:
Section |  min time  |  avg time  |  max time  |%varavg| %total
---------------------------------------------------------------
Pair    | 0.000334   | 0.00034463 | 0.000407   |   0.0 | 77.27
Neigh   | 0          | 0          | 0          |   0.0 |  0.00
Comm    | 1.6e-05    | 4.4875e-05 | 9.4e-05    |   0.0 | 10.06
Output  | 1.2e-05    | 5.1625e-05 | 9.1e-05    |   0.0 | 11.58
Modify  | 0          | 2.5e-07    | 1e-06      |   0.0 |  0.06
Other   |            | 4.625e-06  |            |       |  1.04

Nlocal:              1 ave           8 max           0 min
Histogram: 7 0 0 0 0 0 0 0 0 1
Nghost:            511 ave         512 max         504 min
Histogram: 1 0 0 0 0 0 0 0 0 7
Neighs:             89 ave         712 max           0 min
Histogram: 7 0 0 0 0 0 0 0 0 1
FullNghs:          178 ave        1424 max           0 min
Histogram: 7 0 0 0 0 0 0 0 0 1

Total # of neighbors = 1424
Ave neighs/atom = 178
Neighbor list builds = 0
Dangerous builds = 0
variable  natoms equal "count(all)"
variable xlength equal "lx"
variable  volume equal "vol"
variable  etotal equal "etotal"
variable    ecoh equal "pe/v_natoms"
print "${xlength}, ${volume}, ${etotal}, ${ecoh}" append lattice_cohesive_energy.txt screen no

next i
jump SELF loop

change_box all x scale 1.0025 y scale 1.0025 z scale 1.0025 remap
Changing box ...
  orthogonal box = (0.065264575 0.070273891 0.070273891) to (4.0827354 4.0777261 4.0777261)
  orthogonal box = (0.065264575 0.065264575 0.070273891) to (4.0827354 4.0827354 4.0777261)
  orthogonal box = (0.065264575 0.065264575 0.065264575) to (4.0827354 4.0827354 4.0827354)

run 1
WARNING: No fixes with time integration, atoms won't move (src/verlet.cpp:60)
Per MPI rank memory allocation (min/avg/max) = 8.615 | 8.617 | 8.629 Mbytes
   Step         PotEng         TotEng           Lx             Ly             Lz           Volume         Press           Pxx            Pyy            Pzz      
        16  -41.058974     -41.058974      4.0174708      4.0174708      4.0174708      64.842269      400004.95      400004.95      400004.95      400004.95    
        17  -41.058974     -41.058974      4.0174708      4.0174708      4.0174708      64.842269      400004.95      400004.95      400004.95      400004.95    
Loop time of 0.0004375 on 8 procs for 1 steps with 8 atoms

Performance: 197.486 ns/day, 0.122 hours/ns, 2285.714 timesteps/s, 18.286 katom-step/s
0.0% CPU use with 8 MPI tasks x 1 OpenMP threads

MPI task timing breakdown:
Section |  min time  |  avg time  |  max time  |%varavg| %total
---------------------------------------------------------------
Pair    | 0.000327   | 0.0003375  | 0.0004     |   0.0 | 77.14
Neigh   | 0          | 0          | 0          |   0.0 |  0.00
Comm    | 1.4e-05    | 4.4125e-05 | 9.3e-05    |   0.0 | 10.09
Output  | 1.2e-05    | 5.125e-05  | 9.1e-05    |   0.0 | 11.71
Modify  | 0          | 0          | 0          |   0.0 |  0.00
Other   |            | 4.625e-06  |            |       |  1.06

Nlocal:              1 ave           8 max           0 min
Histogram: 7 0 0 0 0 0 0 0 0 1
Nghost:            511 ave         512 max         504 min
Histogram: 1 0 0 0 0 0 0 0 0 7
Neighs:             89 ave         712 max           0 min
Histogram: 7 0 0 0 0 0 0 0 0 1
FullNghs:          178 ave        1424 max           0 min
Histogram: 7 0 0 0 0 0 0 0 0 1

Total # of neighbors = 1424
Ave neighs/atom = 178
Neighbor list builds = 0
Dangerous builds = 0
variable  natoms equal "count(all)"
variable xlength equal "lx"
variable  volume equal "vol"
variable  etotal equal "etotal"
variable    ecoh equal "pe/v_natoms"
print "${xlength}, ${volume}, ${etotal}, ${ecoh}" append lattice_cohesive_energy.txt screen no

next i
jump SELF loop

change_box all x scale 1.0025 y scale 1.0025 z scale 1.0025 remap
Changing box ...
  orthogonal box = (0.060242737 0.065264575 0.065264575) to (4.0877573 4.0827354 4.0827354)
  orthogonal box = (0.060242737 0.060242737 0.065264575) to (4.0877573 4.0877573 4.0827354)
  orthogonal box = (0.060242737 0.060242737 0.060242737) to (4.0877573 4.0877573 4.0877573)

run 1
WARNING: No fixes with time integration, atoms won't move (src/verlet.cpp:60)
Per MPI rank memory allocation (min/avg/max) = 8.615 | 8.617 | 8.629 Mbytes
   Step         PotEng         TotEng           Lx             Ly             Lz           Volume         Press           Pxx            Pyy            Pzz      
        17  -41.174923     -41.174923      4.0275145      4.0275145      4.0275145      65.329803      362326.46      362326.46      362326.46      362326.46    
        18  -41.174923     -41.174923      4.0275145      4.0275145      4.0275145      65.329803      362326.46      362326.46      362326.46      362326.46    
Loop time of 0.00047725 on 8 procs for 1 steps with 8 atoms

Performance: 181.037 ns/day, 0.133 hours/ns, 2095.338 timesteps/s, 16.763 katom-step/s
0.0% CPU use with 8 MPI tasks x 1 OpenMP threads

MPI task timing breakdown:
Section |  min time  |  avg time  |  max time  |%varavg| %total
---------------------------------------------------------------
Pair    | 0.000356   | 0.00036963 | 0.000436   |   0.0 | 77.45
Neigh   | 0          | 0          | 0          |   0.0 |  0.00
Comm    | 1.4e-05    | 4.6625e-05 | 0.000101   |   0.0 |  9.77
Output  | 1.4e-05    | 5.6125e-05 | 0.000101   |   0.0 | 11.76
Modify  | 0          | 1.25e-07   | 1e-06      |   0.0 |  0.03
Other   |            | 4.75e-06   |            |       |  1.00

Nlocal:              1 ave           8 max           0 min
Histogram: 7 0 0 0 0 0 0 0 0 1
Nghost:            511 ave         512 max         504 min
Histogram: 1 0 0 0 0 0 0 0 0 7
Neighs:             89 ave         712 max           0 min
Histogram: 7 0 0 0 0 0 0 0 0 1
FullNghs:          178 ave        1424 max           0 min
Histogram: 7 0 0 0 0 0 0 0 0 1

Total # of neighbors = 1424
Ave neighs/atom = 178
Neighbor list builds = 0
Dangerous builds = 0
variable  natoms equal "count(all)"
variable xlength equal "lx"
variable  volume equal "vol"
variable  etotal equal "etotal"
variable    ecoh equal "pe/v_natoms"
print "${xlength}, ${volume}, ${etotal}, ${ecoh}" append lattice_cohesive_energy.txt screen no

next i
jump SELF loop

change_box all x scale 1.0025 y scale 1.0025 z scale 1.0025 remap
Changing box ...
  orthogonal box = (0.055208344 0.060242737 0.060242737) to (4.0927917 4.0877573 4.0877573)
  orthogonal box = (0.055208344 0.055208344 0.060242737) to (4.0927917 4.0927917 4.0877573)
  orthogonal box = (0.055208344 0.055208344 0.055208344) to (4.0927917 4.0927917 4.0927917)

run 1
WARNING: No fixes with time integration, atoms won't move (src/verlet.cpp:60)
Per MPI rank memory allocation (min/avg/max) = 8.615 | 8.617 | 8.629 Mbytes
   Step         PotEng         TotEng           Lx             Ly             Lz           Volume         Press           Pxx            Pyy            Pzz      
        18  -41.280374     -41.280374      4.0375833      4.0375833      4.0375833      65.821002      325821.56      325821.56      325821.56      325821.56    
        19  -41.280374     -41.280374      4.0375833      4.0375833      4.0375833      65.821002      325821.56      325821.56      325821.56      325821.56    
Loop time of 0.00045075 on 8 procs for 1 steps with 8 atoms

Performance: 191.681 ns/day, 0.125 hours/ns, 2218.525 timesteps/s, 17.748 katom-step/s
866.6% CPU use with 8 MPI tasks x 1 OpenMP threads

MPI task timing breakdown:
Section |  min time  |  avg time  |  max time  |%varavg| %total
---------------------------------------------------------------
Pair    | 0.000337   | 0.000348   | 0.000412   |   0.0 | 77.20
Neigh   | 0          | 0          | 0          |   0.0 |  0.00
Comm    | 1.5e-05    | 4.55e-05   | 9.5e-05    |   0.0 | 10.09
Output  | 1.2e-05    | 5.25e-05   | 9.2e-05    |   0.0 | 11.65
Modify  | 0          | 0          | 0          |   0.0 |  0.00
Other   |            | 4.75e-06   |            |       |  1.05

Nlocal:              1 ave           8 max           0 min
Histogram: 7 0 0 0 0 0 0 0 0 1
Nghost:            511 ave         512 max         504 min
Histogram: 1 0 0 0 0 0 0 0 0 7
Neighs:             89 ave         712 max           0 min
Histogram: 7 0 0 0 0 0 0 0 0 1
FullNghs:          178 ave        1424 max           0 min
Histogram: 7 0 0 0 0 0 0 0 0 1

Total # of neighbors = 1424
Ave neighs/atom = 178
Neighbor list builds = 0
Dangerous builds = 0
variable  natoms equal "count(all)"
variable xlength equal "lx"
variable  volume equal "vol"
variable  etotal equal "etotal"
variable    ecoh equal "pe/v_natoms"
print "${xlength}, ${volume}, ${etotal}, ${ecoh}" append lattice_cohesive_energy.txt screen no

next i
jump SELF loop

change_box all x scale 1.0025 y scale 1.0025 z scale 1.0025 remap
Changing box ...
  orthogonal box = (0.050161365 0.055208344 0.055208344) to (4.0978386 4.0927917 4.0927917)
  orthogonal box = (0.050161365 0.050161365 0.055208344) to (4.0978386 4.0978386 4.0927917)
  orthogonal box = (0.050161365 0.050161365 0.050161365) to (4.0978386 4.0978386 4.0978386)

run 1
WARNING: No fixes with time integration, atoms won't move (src/verlet.cpp:60)
Per MPI rank memory allocation (min/avg/max) = 8.615 | 8.617 | 8.629 Mbytes
   Step         PotEng         TotEng           Lx             Ly             Lz           Volume         Press           Pxx            Pyy            Pzz      
        19  -41.375519     -41.375519      4.0476773      4.0476773      4.0476773      66.315895      290464.05      290464.05      290464.05      290464.05    
        20  -41.375519     -41.375519      4.0476773      4.0476773      4.0476773      66.315895      290464.05      290464.05      290464.05      290464.05    
Loop time of 0.000515125 on 8 procs for 1 steps with 8 atoms

Performance: 167.726 ns/day, 0.143 hours/ns, 1941.276 timesteps/s, 15.530 katom-step/s
0.0% CPU use with 8 MPI tasks x 1 OpenMP threads

MPI task timing breakdown:
Section |  min time  |  avg time  |  max time  |%varavg| %total
---------------------------------------------------------------
Pair    | 0.000333   | 0.000343   | 0.000405   |   0.0 | 66.59
Neigh   | 0          | 0          | 0          |   0.0 |  0.00
Comm    | 1.5e-05    | 4.45e-05   | 9.3e-05    |   0.0 |  8.64
Output  | 1.2e-05    | 5.1375e-05 | 9e-05      |   0.0 |  9.97
Modify  | 0          | 3.75e-07   | 2e-06      |   0.0 |  0.07
Other   |            | 7.588e-05  |            |       | 14.73

Nlocal:              1 ave           8 max           0 min
Histogram: 7 0 0 0 0 0 0 0 0 1
Nghost:            511 ave         512 max         504 min
Histogram: 1 0 0 0 0 0 0 0 0 7
Neighs:             85 ave         680 max           0 min
Histogram: 7 0 0 0 0 0 0 0 0 1
FullNghs:          170 ave        1360 max           0 min
Histogram: 7 0 0 0 0 0 0 0 0 1

Total # of neighbors = 1360
Ave neighs/atom = 170
Neighbor list builds = 0
Dangerous builds = 0
variable  natoms equal "count(all)"
variable xlength equal "lx"
variable  volume equal "vol"
variable  etotal equal "etotal"
variable    ecoh equal "pe/v_natoms"
print "${xlength}, ${volume}, ${etotal}, ${ecoh}" append lattice_cohesive_energy.txt screen no

next i
jump SELF loop

change_box all x scale 1.0025 y scale 1.0025 z scale 1.0025 remap
Changing box ...
  orthogonal box = (0.045101768 0.050161365 0.050161365) to (4.1028982 4.0978386 4.0978386)
  orthogonal box = (0.045101768 0.045101768 0.050161365) to (4.1028982 4.1028982 4.0978386)
  orthogonal box = (0.045101768 0.045101768 0.045101768) to (4.1028982 4.1028982 4.1028982)

run 1
WARNING: No fixes with time integration, atoms won't move (src/verlet.cpp:60)
Per MPI rank memory allocation (min/avg/max) = 8.615 | 8.617 | 8.629 Mbytes
   Step         PotEng         TotEng           Lx             Ly             Lz           Volume         Press           Pxx            Pyy            Pzz      
        20  -41.460552     -41.460552      4.0577965      4.0577965      4.0577965      66.814509      256228.22      256228.22      256228.22      256228.22    
        21  -41.460552     -41.460552      4.0577965      4.0577965      4.0577965      66.814509      256228.22      256228.22      256228.22      256228.22    
Loop time of 0.0004355 on 8 procs for 1 steps with 8 atoms

Performance: 198.393 ns/day, 0.121 hours/ns, 2296.211 timesteps/s, 18.370 katom-step/s
0.0% CPU use with 8 MPI tasks x 1 OpenMP threads

MPI task timing breakdown:
Section |  min time  |  avg time  |  max time  |%varavg| %total
---------------------------------------------------------------
Pair    | 0.000325   | 0.00033525 | 0.000396   |   0.0 | 76.98
Neigh   | 0          | 0          | 0          |   0.0 |  0.00
Comm    | 1.5e-05    | 4.4125e-05 | 9.3e-05    |   0.0 | 10.13
Output  | 1.1e-05    | 5.05e-05   | 8.9e-05    |   0.0 | 11.60
Modify  | 0          | 2.5e-07    | 1e-06      |   0.0 |  0.06
Other   |            | 5.375e-06  |            |       |  1.23

Nlocal:              1 ave           8 max           0 min
Histogram: 7 0 0 0 0 0 0 0 0 1
Nghost:            511 ave         512 max         504 min
Histogram: 1 0 0 0 0 0 0 0 0 7
Neighs:             85 ave         680 max           0 min
Histogram: 7 0 0 0 0 0 0 0 0 1
FullNghs:          170 ave        1360 max           0 min
Histogram: 7 0 0 0 0 0 0 0 0 1

Total # of neighbors = 1360
Ave neighs/atom = 170
Neighbor list builds = 0
Dangerous builds = 0
variable  natoms equal "count(all)"
variable xlength equal "lx"
variable  volume equal "vol"
variable  etotal equal "etotal"
variable    ecoh equal "pe/v_natoms"
print "${xlength}, ${volume}, ${etotal}, ${ecoh}" append lattice_cohesive_energy.txt screen no

next i
jump SELF loop

change_box all x scale 1.0025 y scale 1.0025 z scale 1.0025 remap
Changing box ...
  orthogonal box = (0.040029522 0.045101768 0.045101768) to (4.1079705 4.1028982 4.1028982)
  orthogonal box = (0.040029522 0.040029522 0.045101768) to (4.1079705 4.1079705 4.1028982)
  orthogonal box = (0.040029522 0.040029522 0.040029522) to (4.1079705 4.1079705 4.1079705)

run 1
WARNING: No fixes with time integration, atoms won't move (src/verlet.cpp:60)
Per MPI rank memory allocation (min/avg/max) = 8.615 | 8.617 | 8.629 Mbytes
   Step         PotEng         TotEng           Lx             Ly             Lz           Volume         Press           Pxx            Pyy            Pzz      
        21  -41.535662     -41.535662      4.067941       4.067941       4.067941       67.316871      223088.77      223088.77      223088.77      223088.77    
        22  -41.535662     -41.535662      4.067941       4.067941       4.067941       67.316871      223088.77      223088.77      223088.77      223088.77    
Loop time of 0.000515875 on 8 procs for 1 steps with 8 atoms

Performance: 167.482 ns/day, 0.143 hours/ns, 1938.454 timesteps/s, 15.508 katom-step/s
0.0% CPU use with 8 MPI tasks x 1 OpenMP threads

MPI task timing breakdown:
Section |  min time  |  avg time  |  max time  |%varavg| %total
---------------------------------------------------------------
Pair    | 0.000394   | 0.00040437 | 0.000468   |   0.0 | 78.39
Neigh   | 0          | 0          | 0          |   0.0 |  0.00
Comm    | 1.9e-05    | 4.9375e-05 | 9.9e-05    |   0.0 |  9.57
Output  | 1.5e-05    | 5.4875e-05 | 9.5e-05    |   0.0 | 10.64
Modify  | 0          | 2.5e-07    | 1e-06      |   0.0 |  0.05
Other   |            | 7e-06      |            |       |  1.36

Nlocal:              1 ave           8 max           0 min
Histogram: 7 0 0 0 0 0 0 0 0 1
Nghost:            511 ave         512 max         504 min
Histogram: 1 0 0 0 0 0 0 0 0 7
Neighs:             85 ave         680 max           0 min
Histogram: 7 0 0 0 0 0 0 0 0 1
FullNghs:          170 ave        1360 max           0 min
Histogram: 7 0 0 0 0 0 0 0 0 1

Total # of neighbors = 1360
Ave neighs/atom = 170
Neighbor list builds = 0
Dangerous builds = 0
variable  natoms equal "count(all)"
variable xlength equal "lx"
variable  volume equal "vol"
variable  etotal equal "etotal"
variable    ecoh equal "pe/v_natoms"
print "${xlength}, ${volume}, ${etotal}, ${ecoh}" append lattice_cohesive_energy.txt screen no

next i
jump SELF loop

change_box all x scale 1.0025 y scale 1.0025 z scale 1.0025 remap
Changing box ...
  orthogonal box = (0.034944596 0.040029522 0.040029522) to (4.1130554 4.1079705 4.1079705)
  orthogonal box = (0.034944596 0.034944596 0.040029522) to (4.1130554 4.1130554 4.1079705)
  orthogonal box = (0.034944596 0.034944596 0.034944596) to (4.1130554 4.1130554 4.1130554)

run 1
WARNING: No fixes with time integration, atoms won't move (src/verlet.cpp:60)
Per MPI rank memory allocation (min/avg/max) = 8.615 | 8.617 | 8.629 Mbytes
   Step         PotEng         TotEng           Lx             Ly             Lz           Volume         Press           Pxx            Pyy            Pzz      
        22  -41.601038     -41.601038      4.0781108      4.0781108      4.0781108      67.823011      191020.87      191020.87      191020.87      191020.87    
        23  -41.601038     -41.601038      4.0781108      4.0781108      4.0781108      67.823011      191020.87      191020.87      191020.87      191020.87    
Loop time of 0.000535 on 8 procs for 1 steps with 8 atoms

Performance: 161.495 ns/day, 0.149 hours/ns, 1869.159 timesteps/s, 14.953 katom-step/s
0.0% CPU use with 8 MPI tasks x 1 OpenMP threads

MPI task timing breakdown:
Section |  min time  |  avg time  |  max time  |%varavg| %total
---------------------------------------------------------------
Pair    | 0.000398   | 0.00041    | 0.000483   |   0.0 | 76.64
Neigh   | 0          | 0          | 0          |   0.0 |  0.00
Comm    | 1.5e-05    | 5.1625e-05 | 0.000111   |   0.0 |  9.65
Output  | 1.8e-05    | 6.7625e-05 | 0.000115   |   0.0 | 12.64
Modify  | 0          | 3.75e-07   | 1e-06      |   0.0 |  0.07
Other   |            | 5.375e-06  |            |       |  1.00

Nlocal:              1 ave           8 max           0 min
Histogram: 7 0 0 0 0 0 0 0 0 1
Nghost:            511 ave         512 max         504 min
Histogram: 1 0 0 0 0 0 0 0 0 7
Neighs:             85 ave         680 max           0 min
Histogram: 7 0 0 0 0 0 0 0 0 1
FullNghs:          170 ave        1360 max           0 min
Histogram: 7 0 0 0 0 0 0 0 0 1

Total # of neighbors = 1360
Ave neighs/atom = 170
Neighbor list builds = 0
Dangerous builds = 0
variable  natoms equal "count(all)"
variable xlength equal "lx"
variable  volume equal "vol"
variable  etotal equal "etotal"
variable    ecoh equal "pe/v_natoms"
print "${xlength}, ${volume}, ${etotal}, ${ecoh}" append lattice_cohesive_energy.txt screen no

next i
jump SELF loop

change_box all x scale 1.0025 y scale 1.0025 z scale 1.0025 remap
Changing box ...
  orthogonal box = (0.029846958 0.034944596 0.034944596) to (4.118153 4.1130554 4.1130554)
  orthogonal box = (0.029846958 0.029846958 0.034944596) to (4.118153 4.118153 4.1130554)
  orthogonal box = (0.029846958 0.029846958 0.029846958) to (4.118153 4.118153 4.118153)

run 1
WARNING: No fixes with time integration, atoms won't move (src/verlet.cpp:60)
Per MPI rank memory allocation (min/avg/max) = 8.615 | 8.617 | 8.629 Mbytes
   Step         PotEng         TotEng           Lx             Ly             Lz           Volume         Press           Pxx            Pyy            Pzz      
        23  -41.656866     -41.656866      4.0883061      4.0883061      4.0883061      68.332956      160000.14      160000.14      160000.14      160000.14    
        24  -41.656866     -41.656866      4.0883061      4.0883061      4.0883061      68.332956      160000.14      160000.14      160000.14      160000.14    
Loop time of 0.000404875 on 8 procs for 1 steps with 8 atoms

Performance: 213.399 ns/day, 0.112 hours/ns, 2469.898 timesteps/s, 19.759 katom-step/s
0.0% CPU use with 8 MPI tasks x 1 OpenMP threads

MPI task timing breakdown:
Section |  min time  |  avg time  |  max time  |%varavg| %total
---------------------------------------------------------------
Pair    | 0.000297   | 0.00030612 | 0.000367   |   0.0 | 75.61
Neigh   | 0          | 0          | 0          |   0.0 |  0.00
Comm    | 1.4e-05    | 4.3375e-05 | 9.1e-05    |   0.0 | 10.71
Output  | 1.1e-05    | 5.05e-05   | 8.9e-05    |   0.0 | 12.47
Modify  | 0          | 0          | 0          |   0.0 |  0.00
Other   |            | 4.875e-06  |            |       |  1.20

Nlocal:              1 ave           8 max           0 min
Histogram: 7 0 0 0 0 0 0 0 0 1
Nghost:            511 ave         512 max         504 min
Histogram: 1 0 0 0 0 0 0 0 0 7
Neighs:             85 ave         680 max           0 min
Histogram: 7 0 0 0 0 0 0 0 0 1
FullNghs:          170 ave        1360 max           0 min
Histogram: 7 0 0 0 0 0 0 0 0 1

Total # of neighbors = 1360
Ave neighs/atom = 170
Neighbor list builds = 0
Dangerous builds = 0
variable  natoms equal "count(all)"
variable xlength equal "lx"
variable  volume equal "vol"
variable  etotal equal "etotal"
variable    ecoh equal "pe/v_natoms"
print "${xlength}, ${volume}, ${etotal}, ${ecoh}" append lattice_cohesive_energy.txt screen no

next i
jump SELF loop

change_box all x scale 1.0025 y scale 1.0025 z scale 1.0025 remap
Changing box ...
  orthogonal box = (0.024736575 0.029846958 0.029846958) to (4.1232634 4.118153 4.118153)
  orthogonal box = (0.024736575 0.024736575 0.029846958) to (4.1232634 4.1232634 4.118153)
  orthogonal box = (0.024736575 0.024736575 0.024736575) to (4.1232634 4.1232634 4.1232634)

run 1
WARNING: No fixes with time integration, atoms won't move (src/verlet.cpp:60)
Per MPI rank memory allocation (min/avg/max) = 8.615 | 8.617 | 8.629 Mbytes
   Step         PotEng         TotEng           Lx             Ly             Lz           Volume         Press           Pxx            Pyy            Pzz      
        24  -41.703332     -41.703332      4.0985268      4.0985268      4.0985268      68.846736      130002.62      130002.62      130002.62      130002.62    
        25  -41.703332     -41.703332      4.0985268      4.0985268      4.0985268      68.846736      130002.62      130002.62      130002.62      130002.62    
Loop time of 0.000446625 on 8 procs for 1 steps with 8 atoms

Performance: 193.451 ns/day, 0.124 hours/ns, 2239.015 timesteps/s, 17.912 katom-step/s
0.0% CPU use with 8 MPI tasks x 1 OpenMP threads

MPI task timing breakdown:
Section |  min time  |  avg time  |  max time  |%varavg| %total
---------------------------------------------------------------
Pair    | 0.000297   | 0.00033312 | 0.000397   |   0.0 | 74.59
Neigh   | 0          | 0          | 0          |   0.0 |  0.00
Comm    | 1.6e-05    | 4.375e-05  | 0.000119   |   0.0 |  9.80
Output  | 1.8e-05    | 6.2125e-05 | 0.000121   |   0.0 | 13.91
Modify  | 0          | 0          | 0          |   0.0 |  0.00
Other   |            | 7.625e-06  |            |       |  1.71

Nlocal:              1 ave           8 max           0 min
Histogram: 7 0 0 0 0 0 0 0 0 1
Nghost:            511 ave         512 max         504 min
Histogram: 1 0 0 0 0 0 0 0 0 7
Neighs:             85 ave         680 max           0 min
Histogram: 7 0 0 0 0 0 0 0 0 1
FullNghs:          170 ave        1360 max           0 min
Histogram: 7 0 0 0 0 0 0 0 0 1

Total # of neighbors = 1360
Ave neighs/atom = 170
Neighbor list builds = 0
Dangerous builds = 0
variable  natoms equal "count(all)"
variable xlength equal "lx"
variable  volume equal "vol"
variable  etotal equal "etotal"
variable    ecoh equal "pe/v_natoms"
print "${xlength}, ${volume}, ${etotal}, ${ecoh}" append lattice_cohesive_energy.txt screen no

next i
jump SELF loop

change_box all x scale 1.0025 y scale 1.0025 z scale 1.0025 remap
Changing box ...
  orthogonal box = (0.019613417 0.024736575 0.024736575) to (4.1283866 4.1232634 4.1232634)
  orthogonal box = (0.019613417 0.019613417 0.024736575) to (4.1283866 4.1283866 4.1232634)
  orthogonal box = (0.019613417 0.019613417 0.019613417) to (4.1283866 4.1283866 4.1283866)

run 1
WARNING: No fixes with time integration, atoms won't move (src/verlet.cpp:60)
Per MPI rank memory allocation (min/avg/max) = 8.615 | 8.617 | 8.629 Mbytes
   Step         PotEng         TotEng           Lx             Ly             Lz           Volume         Press           Pxx            Pyy            Pzz      
        25  -41.740617     -41.740617      4.1087732      4.1087732      4.1087732      69.364378      101004.78      101004.78      101004.78      101004.78    
        26  -41.740617     -41.740617      4.1087732      4.1087732      4.1087732      69.364378      101004.78      101004.78      101004.78      101004.78    
Loop time of 0.00041325 on 8 procs for 1 steps with 8 atoms

Performance: 209.074 ns/day, 0.115 hours/ns, 2419.843 timesteps/s, 19.359 katom-step/s
945.3% CPU use with 8 MPI tasks x 1 OpenMP threads

MPI task timing breakdown:
Section |  min time  |  avg time  |  max time  |%varavg| %total
---------------------------------------------------------------
Pair    | 0.000299   | 0.00030862 | 0.000373   |   0.0 | 74.68
Neigh   | 0          | 0          | 0          |   0.0 |  0.00
Comm    | 1.5e-05    | 4.5625e-05 | 9.4e-05    |   0.0 | 11.04
Output  | 1.4e-05    | 5.425e-05  | 9.4e-05    |   0.0 | 13.13
Modify  | 0          | 1.25e-07   | 1e-06      |   0.0 |  0.03
Other   |            | 4.625e-06  |            |       |  1.12

Nlocal:              1 ave           8 max           0 min
Histogram: 7 0 0 0 0 0 0 0 0 1
Nghost:            511 ave         512 max         504 min
Histogram: 1 0 0 0 0 0 0 0 0 7
Neighs:             85 ave         680 max           0 min
Histogram: 7 0 0 0 0 0 0 0 0 1
FullNghs:          170 ave        1360 max           0 min
Histogram: 7 0 0 0 0 0 0 0 0 1

Total # of neighbors = 1360
Ave neighs/atom = 170
Neighbor list builds = 0
Dangerous builds = 0
variable  natoms equal "count(all)"
variable xlength equal "lx"
variable  volume equal "vol"
variable  etotal equal "etotal"
variable    ecoh equal "pe/v_natoms"
print "${xlength}, ${volume}, ${etotal}, ${ecoh}" append lattice_cohesive_energy.txt screen no

next i
jump SELF loop

change_box all x scale 1.0025 y scale 1.0025 z scale 1.0025 remap
Changing box ...
  orthogonal box = (0.01447745 0.019613417 0.019613417) to (4.1335225 4.1283866 4.1283866)
  orthogonal box = (0.01447745 0.01447745 0.019613417) to (4.1335225 4.1335225 4.1283866)
  orthogonal box = (0.01447745 0.01447745 0.01447745) to (4.1335225 4.1335225 4.1335225)

run 1
WARNING: No fixes with time integration, atoms won't move (src/verlet.cpp:60)
Per MPI rank memory allocation (min/avg/max) = 8.615 | 8.617 | 8.629 Mbytes
   Step         PotEng         TotEng           Lx             Ly             Lz           Volume         Press           Pxx            Pyy            Pzz      
        26  -41.768903     -41.768903      4.1190451      4.1190451      4.1190451      69.885913      72983.516      72983.516      72983.516      72983.516    
        27  -41.768903     -41.768903      4.1190451      4.1190451      4.1190451      69.885913      72983.516      72983.516      72983.516      72983.516    
Loop time of 0.000409125 on 8 procs for 1 steps with 8 atoms

Performance: 211.182 ns/day, 0.114 hours/ns, 2444.241 timesteps/s, 19.554 katom-step/s
0.0% CPU use with 8 MPI tasks x 1 OpenMP threads

MPI task timing breakdown:
Section |  min time  |  avg time  |  max time  |%varavg| %total
---------------------------------------------------------------
Pair    | 0.000294   | 0.00030612 | 0.000372   |   0.0 | 74.82
Neigh   | 0          | 0          | 0          |   0.0 |  0.00
Comm    | 1.5e-05    | 4.55e-05   | 9.8e-05    |   0.0 | 11.12
Output  | 1.2e-05    | 5.3375e-05 | 9.5e-05    |   0.0 | 13.05
Modify  | 0          | 1.25e-07   | 1e-06      |   0.0 |  0.03
Other   |            | 4e-06      |            |       |  0.98

Nlocal:              1 ave           8 max           0 min
Histogram: 7 0 0 0 0 0 0 0 0 1
Nghost:            511 ave         512 max         504 min
Histogram: 1 0 0 0 0 0 0 0 0 7
Neighs:             85 ave         680 max           0 min
Histogram: 7 0 0 0 0 0 0 0 0 1
FullNghs:          170 ave        1360 max           0 min
Histogram: 7 0 0 0 0 0 0 0 0 1

Total # of neighbors = 1360
Ave neighs/atom = 170
Neighbor list builds = 0
Dangerous builds = 0
variable  natoms equal "count(all)"
variable xlength equal "lx"
variable  volume equal "vol"
variable  etotal equal "etotal"
variable    ecoh equal "pe/v_natoms"
print "${xlength}, ${volume}, ${etotal}, ${ecoh}" append lattice_cohesive_energy.txt screen no

next i
jump SELF loop

change_box all x scale 1.0025 y scale 1.0025 z scale 1.0025 remap
Changing box ...
  orthogonal box = (0.0093286438 0.01447745 0.01447745) to (4.1386714 4.1335225 4.1335225)
  orthogonal box = (0.0093286438 0.0093286438 0.01447745) to (4.1386714 4.1386714 4.1335225)
  orthogonal box = (0.0093286438 0.0093286438 0.0093286438) to (4.1386714 4.1386714 4.1386714)

run 1
WARNING: No fixes with time integration, atoms won't move (src/verlet.cpp:60)
Per MPI rank memory allocation (min/avg/max) = 8.615 | 8.617 | 8.629 Mbytes
   Step         PotEng         TotEng           Lx             Ly             Lz           Volume         Press           Pxx            Pyy            Pzz      
        27  -41.788369     -41.788369      4.1293427      4.1293427      4.1293427      70.411368      45916.142      45916.142      45916.142      45916.142    
        28  -41.788369     -41.788369      4.1293427      4.1293427      4.1293427      70.411368      45916.142      45916.142      45916.142      45916.142    
Loop time of 0.000428 on 8 procs for 1 steps with 8 atoms

Performance: 201.869 ns/day, 0.119 hours/ns, 2336.449 timesteps/s, 18.692 katom-step/s
0.0% CPU use with 8 MPI tasks x 1 OpenMP threads

MPI task timing breakdown:
Section |  min time  |  avg time  |  max time  |%varavg| %total
---------------------------------------------------------------
Pair    | 0.000304   | 0.00031738 | 0.00039    |   0.0 | 74.15
Neigh   | 0          | 0          | 0          |   0.0 |  0.00
Comm    | 1.4e-05    | 4.6875e-05 | 0.000106   |   0.0 | 10.95
Output  | 1.3e-05    | 5.8625e-05 | 0.000104   |   0.0 | 13.70
Modify  | 0          | 1.25e-07   | 1e-06      |   0.0 |  0.03
Other   |            | 5e-06      |            |       |  1.17

Nlocal:              1 ave           8 max           0 min
Histogram: 7 0 0 0 0 0 0 0 0 1
Nghost:            511 ave         512 max         504 min
Histogram: 1 0 0 0 0 0 0 0 0 7
Neighs:             85 ave         680 max           0 min
Histogram: 7 0 0 0 0 0 0 0 0 1
FullNghs:          170 ave        1360 max           0 min
Histogram: 7 0 0 0 0 0 0 0 0 1

Total # of neighbors = 1360
Ave neighs/atom = 170
Neighbor list builds = 0
Dangerous builds = 0
variable  natoms equal "count(all)"
variable xlength equal "lx"
variable  volume equal "vol"
variable  etotal equal "etotal"
variable    ecoh equal "pe/v_natoms"
print "${xlength}, ${volume}, ${etotal}, ${ecoh}" append lattice_cohesive_energy.txt screen no

next i
jump SELF loop

change_box all x scale 1.0025 y scale 1.0025 z scale 1.0025 remap
Changing box ...
  orthogonal box = (0.0041669654 0.0093286438 0.0093286438) to (4.143833 4.1386714 4.1386714)
  orthogonal box = (0.0041669654 0.0041669654 0.0093286438) to (4.143833 4.143833 4.1386714)
  orthogonal box = (0.0041669654 0.0041669654 0.0041669654) to (4.143833 4.143833 4.143833)

run 1
WARNING: No fixes with time integration, atoms won't move (src/verlet.cpp:60)
Per MPI rank memory allocation (min/avg/max) = 8.615 | 8.617 | 8.629 Mbytes
   Step         PotEng         TotEng           Lx             Ly             Lz           Volume         Press           Pxx            Pyy            Pzz      
        28  -41.799193     -41.799193      4.1396661      4.1396661      4.1396661      70.940775      19780.382      19780.382      19780.382      19780.382    
        29  -41.799193     -41.799193      4.1396661      4.1396661      4.1396661      70.940775      19780.382      19780.382      19780.382      19780.382    
Loop time of 0.00041775 on 8 procs for 1 steps with 8 atoms

Performance: 206.822 ns/day, 0.116 hours/ns, 2393.776 timesteps/s, 19.150 katom-step/s
0.0% CPU use with 8 MPI tasks x 1 OpenMP threads

MPI task timing breakdown:
Section |  min time  |  avg time  |  max time  |%varavg| %total
---------------------------------------------------------------
Pair    | 0.000309   | 0.00031863 | 0.000379   |   0.0 | 76.27
Neigh   | 0          | 0          | 0          |   0.0 |  0.00
Comm    | 1.5e-05    | 4.375e-05  | 9e-05      |   0.0 | 10.47
Output  | 1.2e-05    | 5.075e-05  | 8.8e-05    |   0.0 | 12.15
Modify  | 0          | 1.25e-07   | 1e-06      |   0.0 |  0.03
Other   |            | 4.5e-06    |            |       |  1.08

Nlocal:              1 ave           8 max           0 min
Histogram: 7 0 0 0 0 0 0 0 0 1
Nghost:            511 ave         512 max         504 min
Histogram: 1 0 0 0 0 0 0 0 0 7
Neighs:             85 ave         680 max           0 min
Histogram: 7 0 0 0 0 0 0 0 0 1
FullNghs:          170 ave        1360 max           0 min
Histogram: 7 0 0 0 0 0 0 0 0 1

Total # of neighbors = 1360
Ave neighs/atom = 170
Neighbor list builds = 0
Dangerous builds = 0
variable  natoms equal "count(all)"
variable xlength equal "lx"
variable  volume equal "vol"
variable  etotal equal "etotal"
variable    ecoh equal "pe/v_natoms"
print "${xlength}, ${volume}, ${etotal}, ${ecoh}" append lattice_cohesive_energy.txt screen no

next i
jump SELF loop

change_box all x scale 1.0025 y scale 1.0025 z scale 1.0025 remap
Changing box ...
  orthogonal box = (-0.0010076172 0.0041669654 0.0041669654) to (4.1490076 4.143833 4.143833)
  orthogonal box = (-0.0010076172 -0.0010076172 0.0041669654) to (4.1490076 4.1490076 4.143833)
  orthogonal box = (-0.0010076172 -0.0010076172 -0.0010076172) to (4.1490076 4.1490076 4.1490076)

run 1
WARNING: No fixes with time integration, atoms won't move (src/verlet.cpp:60)
Per MPI rank memory allocation (min/avg/max) = 8.615 | 8.617 | 8.629 Mbytes
   Step         PotEng         TotEng           Lx             Ly             Lz           Volume         Press           Pxx            Pyy            Pzz      
        29  -41.801549     -41.801549      4.1500152      4.1500152      4.1500152      71.474162     -5445.6362     -5445.6362     -5445.6362     -5445.6362    
        30  -41.801549     -41.801549      4.1500152      4.1500152      4.1500152      71.474162     -5445.6362     -5445.6362     -5445.6362     -5445.6362    
Loop time of 0.0004095 on 8 procs for 1 steps with 8 atoms

Performance: 210.989 ns/day, 0.114 hours/ns, 2442.002 timesteps/s, 19.536 katom-step/s
953.9% CPU use with 8 MPI tasks x 1 OpenMP threads

MPI task timing breakdown:
Section |  min time  |  avg time  |  max time  |%varavg| %total
---------------------------------------------------------------
Pair    | 0.0003     | 0.000311   | 0.000371   |   0.0 | 75.95
Neigh   | 0          | 0          | 0          |   0.0 |  0.00
Comm    | 1.4e-05    | 4.3625e-05 | 9.3e-05    |   0.0 | 10.65
Output  | 1.1e-05    | 5e-05      | 9e-05      |   0.0 | 12.21
Modify  | 0          | 2.5e-07    | 1e-06      |   0.0 |  0.06
Other   |            | 4.625e-06  |            |       |  1.13

Nlocal:              1 ave           8 max           0 min
Histogram: 7 0 0 0 0 0 0 0 0 1
Nghost:            511 ave         512 max         504 min
Histogram: 1 0 0 0 0 0 0 0 0 7
Neighs:             85 ave         680 max           0 min
Histogram: 7 0 0 0 0 0 0 0 0 1
FullNghs:          170 ave        1360 max           0 min
Histogram: 7 0 0 0 0 0 0 0 0 1

Total # of neighbors = 1360
Ave neighs/atom = 170
Neighbor list builds = 0
Dangerous builds = 0
variable  natoms equal "count(all)"
variable xlength equal "lx"
variable  volume equal "vol"
variable  etotal equal "etotal"
variable    ecoh equal "pe/v_natoms"
print "${xlength}, ${volume}, ${etotal}, ${ecoh}" append lattice_cohesive_energy.txt screen no

next i
jump SELF loop

change_box all x scale 1.0025 y scale 1.0025 z scale 1.0025 remap
Changing box ...
  orthogonal box = (-0.0061951363 -0.0010076172 -0.0010076172) to (4.1541951 4.1490076 4.1490076)
  orthogonal box = (-0.0061951363 -0.0061951363 -0.0010076172) to (4.1541951 4.1541951 4.1490076)
  orthogonal box = (-0.0061951363 -0.0061951363 -0.0061951363) to (4.1541951 4.1541951 4.1541951)

run 1
WARNING: No fixes with time integration, atoms won't move (src/verlet.cpp:60)
Per MPI rank memory allocation (min/avg/max) = 8.615 | 8.617 | 8.629 Mbytes
   Step         PotEng         TotEng           Lx             Ly             Lz           Volume         Press           Pxx            Pyy            Pzz      
        30  -41.795611     -41.795611      4.1603903      4.1603903      4.1603903      72.01156      -29783.383     -29783.383     -29783.383     -29783.383    
        31  -41.795611     -41.795611      4.1603903      4.1603903      4.1603903      72.01156      -29783.383     -29783.383     -29783.383     -29783.383    
Loop time of 0.0004065 on 8 procs for 1 steps with 8 atoms

Performance: 212.546 ns/day, 0.113 hours/ns, 2460.025 timesteps/s, 19.680 katom-step/s
0.0% CPU use with 8 MPI tasks x 1 OpenMP threads

MPI task timing breakdown:
Section |  min time  |  avg time  |  max time  |%varavg| %total
---------------------------------------------------------------
Pair    | 0.000298   | 0.0003085  | 0.000369   |   0.0 | 75.89
Neigh   | 0          | 0          | 0          |   0.0 |  0.00
Comm    | 1.5e-05    | 4.3125e-05 | 9.1e-05    |   0.0 | 10.61
Output  | 1.1e-05    | 4.9625e-05 | 8.9e-05    |   0.0 | 12.21
Modify  | 0          | 3.75e-07   | 1e-06      |   0.0 |  0.09
Other   |            | 4.875e-06  |            |       |  1.20

Nlocal:              1 ave           8 max           0 min
Histogram: 7 0 0 0 0 0 0 0 0 1
Nghost:            511 ave         512 max         504 min
Histogram: 1 0 0 0 0 0 0 0 0 7
Neighs:             85 ave         680 max           0 min
Histogram: 7 0 0 0 0 0 0 0 0 1
FullNghs:          170 ave        1360 max           0 min
Histogram: 7 0 0 0 0 0 0 0 0 1

Total # of neighbors = 1360
Ave neighs/atom = 170
Neighbor list builds = 0
Dangerous builds = 0
variable  natoms equal "count(all)"
variable xlength equal "lx"
variable  volume equal "vol"
variable  etotal equal "etotal"
variable    ecoh equal "pe/v_natoms"
print "${xlength}, ${volume}, ${etotal}, ${ecoh}" append lattice_cohesive_energy.txt screen no

next i
jump SELF loop

change_box all x scale 1.0025 y scale 1.0025 z scale 1.0025 remap
Changing box ...
  orthogonal box = (-0.011395624 -0.0061951363 -0.0061951363) to (4.1593956 4.1541951 4.1541951)
  orthogonal box = (-0.011395624 -0.011395624 -0.0061951363) to (4.1593956 4.1593956 4.1541951)
  orthogonal box = (-0.011395624 -0.011395624 -0.011395624) to (4.1593956 4.1593956 4.1593956)

run 1
WARNING: No fixes with time integration, atoms won't move (src/verlet.cpp:60)
Per MPI rank memory allocation (min/avg/max) = 8.615 | 8.617 | 8.629 Mbytes
   Step         PotEng         TotEng           Lx             Ly             Lz           Volume         Press           Pxx            Pyy            Pzz      
        31  -41.781551     -41.781551      4.1707912      4.1707912      4.1707912      72.552998     -53253.937     -53253.937     -53253.937     -53253.937    
        32  -41.781551     -41.781551      4.1707912      4.1707912      4.1707912      72.552998     -53253.937     -53253.937     -53253.937     -53253.937    
Loop time of 0.000429875 on 8 procs for 1 steps with 8 atoms

Performance: 200.989 ns/day, 0.119 hours/ns, 2326.258 timesteps/s, 18.610 katom-step/s
0.0% CPU use with 8 MPI tasks x 1 OpenMP threads

MPI task timing breakdown:
Section |  min time  |  avg time  |  max time  |%varavg| %total
---------------------------------------------------------------
Pair    | 0.000315   | 0.00032625 | 0.000383   |   0.0 | 75.89
Neigh   | 0          | 0          | 0          |   0.0 |  0.00
Comm    | 1.5e-05    | 4.1625e-05 | 8.8e-05    |   0.0 |  9.68
Output  | 1.3e-05    | 4.9125e-05 | 8.5e-05    |   0.0 | 11.43
Modify  | 0          | 2.5e-07    | 1e-06      |   0.0 |  0.06
Other   |            | 1.263e-05  |            |       |  2.94

Nlocal:              1 ave           8 max           0 min
Histogram: 7 0 0 0 0 0 0 0 0 1
Nghost:            511 ave         512 max         504 min
Histogram: 1 0 0 0 0 0 0 0 0 7
Neighs:             85 ave         680 max           0 min
Histogram: 7 0 0 0 0 0 0 0 0 1
FullNghs:          170 ave        1360 max           0 min
Histogram: 7 0 0 0 0 0 0 0 0 1

Total # of neighbors = 1360
Ave neighs/atom = 170
Neighbor list builds = 0
Dangerous builds = 0
variable  natoms equal "count(all)"
variable xlength equal "lx"
variable  volume equal "vol"
variable  etotal equal "etotal"
variable    ecoh equal "pe/v_natoms"
print "${xlength}, ${volume}, ${etotal}, ${ecoh}" append lattice_cohesive_energy.txt screen no

next i
jump SELF loop

change_box all x scale 1.0025 y scale 1.0025 z scale 1.0025 remap
Changing box ...
  orthogonal box = (-0.016609113 -0.011395624 -0.011395624) to (4.1646091 4.1593956 4.1593956)
  orthogonal box = (-0.016609113 -0.016609113 -0.011395624) to (4.1646091 4.1646091 4.1593956)
  orthogonal box = (-0.016609113 -0.016609113 -0.016609113) to (4.1646091 4.1646091 4.1646091)

run 1
WARNING: No fixes with time integration, atoms won't move (src/verlet.cpp:60)
Per MPI rank memory allocation (min/avg/max) = 8.615 | 8.617 | 8.629 Mbytes
   Step         PotEng         TotEng           Lx             Ly             Lz           Volume         Press           Pxx            Pyy            Pzz      
        32  -41.759539     -41.759539      4.1812182      4.1812182      4.1812182      73.098507     -75877.989     -75877.989     -75877.989     -75877.989    
        33  -41.759539     -41.759539      4.1812182      4.1812182      4.1812182      73.098507     -75877.989     -75877.989     -75877.989     -75877.989    
Loop time of 0.000447375 on 8 procs for 1 steps with 8 atoms

Performance: 193.127 ns/day, 0.124 hours/ns, 2235.261 timesteps/s, 17.882 katom-step/s
0.0% CPU use with 8 MPI tasks x 1 OpenMP threads

MPI task timing breakdown:
Section |  min time  |  avg time  |  max time  |%varavg| %total
---------------------------------------------------------------
Pair    | 0.000316   | 0.00034012 | 0.000398   |   0.0 | 76.03
Neigh   | 0          | 0          | 0          |   0.0 |  0.00
Comm    | 1.6e-05    | 4.7875e-05 | 0.000101   |   0.0 | 10.70
Output  | 1.6e-05    | 4.9e-05    | 0.000105   |   0.0 | 10.95
Modify  | 0          | 0          | 0          |   0.0 |  0.00
Other   |            | 1.038e-05  |            |       |  2.32

Nlocal:              1 ave           8 max           0 min
Histogram: 7 0 0 0 0 0 0 0 0 1
Nghost:            511 ave         512 max         504 min
Histogram: 1 0 0 0 0 0 0 0 0 7
Neighs:             85 ave         680 max           0 min
Histogram: 7 0 0 0 0 0 0 0 0 1
FullNghs:          170 ave        1360 max           0 min
Histogram: 7 0 0 0 0 0 0 0 0 1

Total # of neighbors = 1360
Ave neighs/atom = 170
Neighbor list builds = 0
Dangerous builds = 0
variable  natoms equal "count(all)"
variable xlength equal "lx"
variable  volume equal "vol"
variable  etotal equal "etotal"
variable    ecoh equal "pe/v_natoms"
print "${xlength}, ${volume}, ${etotal}, ${ecoh}" append lattice_cohesive_energy.txt screen no

next i
jump SELF loop

change_box all x scale 1.0025 y scale 1.0025 z scale 1.0025 remap
Changing box ...
  orthogonal box = (-0.021835636 -0.016609113 -0.016609113) to (4.1698356 4.1646091 4.1646091)
  orthogonal box = (-0.021835636 -0.021835636 -0.016609113) to (4.1698356 4.1698356 4.1646091)
  orthogonal box = (-0.021835636 -0.021835636 -0.021835636) to (4.1698356 4.1698356 4.1698356)

run 1
WARNING: No fixes with time integration, atoms won't move (src/verlet.cpp:60)
Per MPI rank memory allocation (min/avg/max) = 8.615 | 8.617 | 8.629 Mbytes
[...]
Pair    | 0.000465   | 0.000496   | 0.000638   |   0.0 | 71.38
Neigh   | 0          | 0          | 0          |   0.0 |  0.00
Comm    | 1.6e-05    | 7.8875e-05 | 0.000199   |   0.0 | 11.35
Output  | 1.7e-05    | 0.00010838 | 0.000201   |   0.0 | 15.60
Modify  | 0          | 1.25e-07   | 1e-06      |   0.0 |  0.02
Other   |            | 1.15e-05   |            |       |  1.65

Nlocal:              1 ave           8 max           0 min
Histogram: 7 0 0 0 0 0 0 0 0 1
Nghost:            511 ave         512 max         504 min
Histogram: 1 0 0 0 0 0 0 0 0 7
Neighs:             73 ave         584 max           0 min
Histogram: 7 0 0 0 0 0 0 0 0 1
FullNghs:          146 ave        1168 max           0 min
Histogram: 7 0 0 0 0 0 0 0 0 1

Total # of neighbors = 1168
Ave neighs/atom = 146
Neighbor list builds = 0
Dangerous builds = 0
variable  natoms equal "count(all)"
variable xlength equal "lx"
variable  volume equal "vol"
variable  etotal equal "etotal"
variable    ecoh equal "pe/v_natoms"
print "${xlength}, ${volume}, ${etotal}, ${ecoh}" append lattice_cohesive_energy.txt screen no

next i
jump SELF loop

change_box all x scale 1.0025 y scale 1.0025 z scale 1.0025 remap
Changing box ...
  orthogonal box = (-0.096393892 -0.090981439 -0.090981439) to (4.2443939 4.2389814 4.2389814)
  orthogonal box = (-0.096393892 -0.096393892 -0.090981439) to (4.2443939 4.2443939 4.2389814)
  orthogonal box = (-0.096393892 -0.096393892 -0.096393892) to (4.2443939 4.2443939 4.2443939)

run 1
WARNING: No fixes with time integration, atoms won't move (src/verlet.cpp:60)
Per MPI rank memory allocation (min/avg/max) = 8.615 | 8.617 | 8.629 Mbytes
   Step         PotEng         TotEng           Lx             Ly             Lz           Volume         Press           Pxx            Pyy            Pzz      
        47  -40.58512      -40.58512       4.3407878      4.3407878      4.3407878      81.791027     -326604.23     -326604.23     -326604.23     -326604.23    
        48  -40.58512      -40.58512       4.3407878      4.3407878      4.3407878      81.791027     -326604.23     -326604.23     -326604.23     -326604.23    
Loop time of 0.000688375 on 8 procs for 1 steps with 8 atoms

Performance: 125.513 ns/day, 0.191 hours/ns, 1452.697 timesteps/s, 11.622 katom-step/s
0.0% CPU use with 8 MPI tasks x 1 OpenMP threads

MPI task timing breakdown:
Section |  min time  |  avg time  |  max time  |%varavg| %total
---------------------------------------------------------------
Pair    | 0.000461   | 0.0004975  | 0.000633   |   0.0 | 72.27
Neigh   | 0          | 0          | 0          |   0.0 |  0.00
Comm    | 1.7e-05    | 7.5e-05    | 0.000198   |   0.0 | 10.90
Output  | 1.8e-05    | 0.0001045  | 0.000199   |   0.0 | 15.18
Modify  | 0          | 2.5e-07    | 2e-06      |   0.0 |  0.04
Other   |            | 1.113e-05  |            |       |  1.62

Nlocal:              1 ave           8 max           0 min
Histogram: 7 0 0 0 0 0 0 0 0 1
Nghost:            511 ave         512 max         504 min
Histogram: 1 0 0 0 0 0 0 0 0 7
Neighs:             73 ave         584 max           0 min
Histogram: 7 0 0 0 0 0 0 0 0 1
FullNghs:          146 ave        1168 max           0 min
Histogram: 7 0 0 0 0 0 0 0 0 1

Total # of neighbors = 1168
Ave neighs/atom = 146
Neighbor list builds = 0
Dangerous builds = 0
variable  natoms equal "count(all)"
variable xlength equal "lx"
variable  volume equal "vol"
variable  etotal equal "etotal"
variable    ecoh equal "pe/v_natoms"
print "${xlength}, ${volume}, ${etotal}, ${ecoh}" append lattice_cohesive_energy.txt screen no

next i
jump SELF loop

change_box all x scale 1.0025 y scale 1.0025 z scale 1.0025 remap
Changing box ...
  orthogonal box = (-0.10181988 -0.096393892 -0.096393892) to (4.2498199 4.2443939 4.2443939)
  orthogonal box = (-0.10181988 -0.10181988 -0.096393892) to (4.2498199 4.2498199 4.2443939)
  orthogonal box = (-0.10181988 -0.10181988 -0.10181988) to (4.2498199 4.2498199 4.2498199)

run 1
WARNING: No fixes with time integration, atoms won't move (src/verlet.cpp:60)
Per MPI rank memory allocation (min/avg/max) = 8.615 | 8.617 | 8.629 Mbytes
   Step         PotEng         TotEng           Lx             Ly             Lz           Volume         Press           Pxx            Pyy            Pzz      
        48  -40.457512     -40.457512      4.3516398      4.3516398      4.3516398      82.405995     -338202.57     -338202.57     -338202.57     -338202.57    
        49  -40.457512     -40.457512      4.3516398      4.3516398      4.3516398      82.405995     -338202.57     -338202.57     -338202.57     -338202.57    
Loop time of 0.00068775 on 8 procs for 1 steps with 8 atoms

Performance: 125.627 ns/day, 0.191 hours/ns, 1454.017 timesteps/s, 11.632 katom-step/s
0.0% CPU use with 8 MPI tasks x 1 OpenMP threads

MPI task timing breakdown:
Section |  min time  |  avg time  |  max time  |%varavg| %total
---------------------------------------------------------------
Pair    | 0.000462   | 0.00049325 | 0.000633   |   0.0 | 71.72
Neigh   | 0          | 0          | 0          |   0.0 |  0.00
Comm    | 1.6e-05    | 7.7125e-05 | 0.000197   |   0.0 | 11.21
Output  | 1.7e-05    | 0.00010637 | 0.000198   |   0.0 | 15.47
Modify  | 0          | 1.25e-07   | 1e-06      |   0.0 |  0.02
Other   |            | 1.088e-05  |            |       |  1.58

Nlocal:              1 ave           8 max           0 min
Histogram: 7 0 0 0 0 0 0 0 0 1
Nghost:            511 ave         512 max         504 min
Histogram: 1 0 0 0 0 0 0 0 0 7
Neighs:             73 ave         584 max           0 min
Histogram: 7 0 0 0 0 0 0 0 0 1
FullNghs:          146 ave        1168 max           0 min
Histogram: 7 0 0 0 0 0 0 0 0 1

Total # of neighbors = 1168
Ave neighs/atom = 146
Neighbor list builds = 0
Dangerous builds = 0
variable  natoms equal "count(all)"
variable xlength equal "lx"
variable  volume equal "vol"
variable  etotal equal "etotal"
variable    ecoh equal "pe/v_natoms"
print "${xlength}, ${volume}, ${etotal}, ${ecoh}" append lattice_cohesive_energy.txt screen no

next i
jump SELF loop

change_box all x scale 1.0025 y scale 1.0025 z scale 1.0025 remap
Changing box ...
  orthogonal box = (-0.10725943 -0.10181988 -0.10181988) to (4.2552594 4.2498199 4.2498199)
  orthogonal box = (-0.10725943 -0.10725943 -0.10181988) to (4.2552594 4.2552594 4.2498199)
  orthogonal box = (-0.10725943 -0.10725943 -0.10725943) to (4.2552594 4.2552594 4.2552594)

run 1
WARNING: No fixes with time integration, atoms won't move (src/verlet.cpp:60)
Per MPI rank memory allocation (min/avg/max) = 8.615 | 8.617 | 8.629 Mbytes
   Step         PotEng         TotEng           Lx             Ly             Lz           Volume         Press           Pxx            Pyy            Pzz      
        49  -40.324567     -40.324567      4.3625189      4.3625189      4.3625189      83.025586     -349252        -349252        -349252        -349252       
        50  -40.324567     -40.324567      4.3625189      4.3625189      4.3625189      83.025586     -349252        -349252        -349252        -349252       
Loop time of 0.000739625 on 8 procs for 1 steps with 8 atoms

Performance: 116.816 ns/day, 0.205 hours/ns, 1352.037 timesteps/s, 10.816 katom-step/s
0.0% CPU use with 8 MPI tasks x 1 OpenMP threads

MPI task timing breakdown:
Section |  min time  |  avg time  |  max time  |%varavg| %total
---------------------------------------------------------------
Pair    | 0.000449   | 0.00049563 | 0.00068    |   0.0 | 67.01
Neigh   | 0          | 0          | 0          |   0.0 |  0.00
Comm    | 1.7e-05    | 9.35e-05   | 0.000259   |   0.0 | 12.64
Output  | 1.9e-05    | 0.00014037 | 0.000264   |   0.0 | 18.98
Modify  | 0          | 1.25e-07   | 1e-06      |   0.0 |  0.02
Other   |            | 1e-05      |            |       |  1.35

Nlocal:              1 ave           8 max           0 min
Histogram: 7 0 0 0 0 0 0 0 0 1
Nghost:            511 ave         512 max         504 min
Histogram: 1 0 0 0 0 0 0 0 0 7
Neighs:             73 ave         584 max           0 min
Histogram: 7 0 0 0 0 0 0 0 0 1
FullNghs:          146 ave        1168 max           0 min
Histogram: 7 0 0 0 0 0 0 0 0 1

Total # of neighbors = 1168
Ave neighs/atom = 146
Neighbor list builds = 0
Dangerous builds = 0
variable  natoms equal "count(all)"
variable xlength equal "lx"
variable  volume equal "vol"
variable  etotal equal "etotal"
variable    ecoh equal "pe/v_natoms"
print "${xlength}, ${volume}, ${etotal}, ${ecoh}" append lattice_cohesive_energy.txt screen no

next i
jump SELF loop

change_box all x scale 1.0025 y scale 1.0025 z scale 1.0025 remap
Changing box ...
  orthogonal box = (-0.11271258 -0.10725943 -0.10725943) to (4.2607126 4.2552594 4.2552594)
  orthogonal box = (-0.11271258 -0.11271258 -0.10725943) to (4.2607126 4.2607126 4.2552594)
  orthogonal box = (-0.11271258 -0.11271258 -0.11271258) to (4.2607126 4.2607126 4.2607126)

run 1
WARNING: No fixes with time integration, atoms won't move (src/verlet.cpp:60)
Per MPI rank memory allocation (min/avg/max) = 8.615 | 8.617 | 8.629 Mbytes
   Step         PotEng         TotEng           Lx             Ly             Lz           Volume         Press           Pxx            Pyy            Pzz      
        50  -40.186421     -40.186421      4.3734252      4.3734252      4.3734252      83.649836     -359767.11     -359767.11     -359767.11     -359767.11    
        51  -40.186421     -40.186421      4.3734252      4.3734252      4.3734252      83.649836     -359767.11     -359767.11     -359767.11     -359767.11    
Loop time of 0.000670625 on 8 procs for 1 steps with 8 atoms

Performance: 128.835 ns/day, 0.186 hours/ns, 1491.146 timesteps/s, 11.929 katom-step/s
0.0% CPU use with 8 MPI tasks x 1 OpenMP threads

MPI task timing breakdown:
Section |  min time  |  avg time  |  max time  |%varavg| %total
---------------------------------------------------------------
Pair    | 0.000456   | 0.00048738 | 0.000616   |   0.0 | 72.67
Neigh   | 0          | 0          | 0          |   0.0 |  0.00
Comm    | 1.6e-05    | 7.425e-05  | 0.000186   |   0.0 | 11.07
Output  | 1.7e-05    | 9.8875e-05 | 0.000188   |   0.0 | 14.74
Modify  | 0          | 0          | 0          |   0.0 |  0.00
Other   |            | 1.012e-05  |            |       |  1.51

Nlocal:              1 ave           8 max           0 min
Histogram: 7 0 0 0 0 0 0 0 0 1
Nghost:            511 ave         512 max         504 min
Histogram: 1 0 0 0 0 0 0 0 0 7
Neighs:             73 ave         584 max           0 min
Histogram: 7 0 0 0 0 0 0 0 0 1
FullNghs:          146 ave        1168 max           0 min
Histogram: 7 0 0 0 0 0 0 0 0 1

Total # of neighbors = 1168
Ave neighs/atom = 146
Neighbor list builds = 0
Dangerous builds = 0
variable  natoms equal "count(all)"
variable xlength equal "lx"
variable  volume equal "vol"
variable  etotal equal "etotal"
variable    ecoh equal "pe/v_natoms"
print "${xlength}, ${volume}, ${etotal}, ${ecoh}" append lattice_cohesive_energy.txt screen no

next i
jump SELF loop

change_box all x scale 1.0025 y scale 1.0025 z scale 1.0025 remap
Changing box ...
  orthogonal box = (-0.11817936 -0.11271258 -0.11271258) to (4.2661794 4.2607126 4.2607126)
  orthogonal box = (-0.11817936 -0.11817936 -0.11271258) to (4.2661794 4.2661794 4.2607126)
  orthogonal box = (-0.11817936 -0.11817936 -0.11817936) to (4.2661794 4.2661794 4.2661794)

run 1
WARNING: No fixes with time integration, atoms won't move (src/verlet.cpp:60)
Per MPI rank memory allocation (min/avg/max) = 8.615 | 8.617 | 8.629 Mbytes
   Step         PotEng         TotEng           Lx             Ly             Lz           Volume         Press           Pxx            Pyy            Pzz      
        51  -40.043211     -40.043211      4.3843587      4.3843587      4.3843587      84.27878      -369762.23     -369762.23     -369762.23     -369762.23    
        52  -40.043211     -40.043211      4.3843587      4.3843587      4.3843587      84.27878      -369762.23     -369762.23     -369762.23     -369762.23    
Loop time of 0.00067775 on 8 procs for 1 steps with 8 atoms

Performance: 127.481 ns/day, 0.188 hours/ns, 1475.470 timesteps/s, 11.804 katom-step/s
0.0% CPU use with 8 MPI tasks x 1 OpenMP threads

MPI task timing breakdown:
Section |  min time  |  avg time  |  max time  |%varavg| %total
---------------------------------------------------------------
Pair    | 0.000457   | 0.000491   | 0.000623   |   0.0 | 72.45
Neigh   | 0          | 0          | 0          |   0.0 |  0.00
Comm    | 1.7e-05    | 7.525e-05  | 0.000191   |   0.0 | 11.10
Output  | 1.7e-05    | 0.00010125 | 0.000192   |   0.0 | 14.94
Modify  | 0          | 1.25e-07   | 1e-06      |   0.0 |  0.02
Other   |            | 1.013e-05  |            |       |  1.49

Nlocal:              1 ave           8 max           0 min
Histogram: 7 0 0 0 0 0 0 0 0 1
Nghost:            511 ave         512 max         504 min
Histogram: 1 0 0 0 0 0 0 0 0 7
Neighs:             73 ave         584 max           0 min
Histogram: 7 0 0 0 0 0 0 0 0 1
FullNghs:          146 ave        1168 max           0 min
Histogram: 7 0 0 0 0 0 0 0 0 1

Total # of neighbors = 1168
Ave neighs/atom = 146
Neighbor list builds = 0
Dangerous builds = 0
variable  natoms equal "count(all)"
variable xlength equal "lx"
variable  volume equal "vol"
variable  etotal equal "etotal"
variable    ecoh equal "pe/v_natoms"
print "${xlength}, ${volume}, ${etotal}, ${ecoh}" append lattice_cohesive_energy.txt screen no

next i
jump SELF loop

change_box all x scale 1.0025 y scale 1.0025 z scale 1.0025 remap
Changing box ...
  orthogonal box = (-0.1236598 -0.11817936 -0.11817936) to (4.2716598 4.2661794 4.2661794)
  orthogonal box = (-0.1236598 -0.1236598 -0.11817936) to (4.2716598 4.2716598 4.2661794)
  orthogonal box = (-0.1236598 -0.1236598 -0.1236598) to (4.2716598 4.2716598 4.2716598)

run 1
WARNING: No fixes with time integration, atoms won't move (src/verlet.cpp:60)
Per MPI rank memory allocation (min/avg/max) = 8.615 | 8.617 | 8.629 Mbytes
   Step         PotEng         TotEng           Lx             Ly             Lz           Volume         Press           Pxx            Pyy            Pzz      
        52  -39.895072     -39.895072      4.3953196      4.3953196      4.3953196      84.912452     -379251.38     -379251.38     -379251.38     -379251.38    
        53  -39.895072     -39.895072      4.3953196      4.3953196      4.3953196      84.912452     -379251.38     -379251.38     -379251.38     -379251.38    
Loop time of 0.00067675 on 8 procs for 1 steps with 8 atoms

Performance: 127.669 ns/day, 0.188 hours/ns, 1477.651 timesteps/s, 11.821 katom-step/s
288.6% CPU use with 8 MPI tasks x 1 OpenMP threads

MPI task timing breakdown:
Section |  min time  |  avg time  |  max time  |%varavg| %total
---------------------------------------------------------------
Pair    | 0.000455   | 0.00048775 | 0.000619   |   0.0 | 72.07
Neigh   | 0          | 0          | 0          |   0.0 |  0.00
Comm    | 1.6e-05    | 7.6375e-05 | 0.000191   |   0.0 | 11.29
Output  | 1.8e-05    | 0.00010188 | 0.000192   |   0.0 | 15.05
Modify  | 0          | 1.25e-07   | 1e-06      |   0.0 |  0.02
Other   |            | 1.063e-05  |            |       |  1.57

Nlocal:              1 ave           8 max           0 min
Histogram: 7 0 0 0 0 0 0 0 0 1
Nghost:            511 ave         512 max         504 min
Histogram: 1 0 0 0 0 0 0 0 0 7
Neighs:             73 ave         584 max           0 min
Histogram: 7 0 0 0 0 0 0 0 0 1
FullNghs:          146 ave        1168 max           0 min
Histogram: 7 0 0 0 0 0 0 0 0 1

Total # of neighbors = 1168
Ave neighs/atom = 146
Neighbor list builds = 0
Dangerous builds = 0
variable  natoms equal "count(all)"
variable xlength equal "lx"
variable  volume equal "vol"
variable  etotal equal "etotal"
variable    ecoh equal "pe/v_natoms"
print "${xlength}, ${volume}, ${etotal}, ${ecoh}" append lattice_cohesive_energy.txt screen no

next i
jump SELF loop

change_box all x scale 1.0025 y scale 1.0025 z scale 1.0025 remap
Changing box ...
  orthogonal box = (-0.12915395 -0.1236598 -0.1236598) to (4.277154 4.2716598 4.2716598)
  orthogonal box = (-0.12915395 -0.12915395 -0.1236598) to (4.277154 4.277154 4.2716598)
  orthogonal box = (-0.12915395 -0.12915395 -0.12915395) to (4.277154 4.277154 4.277154)

run 1
WARNING: No fixes with time integration, atoms won't move (src/verlet.cpp:60)
Per MPI rank memory allocation (min/avg/max) = 8.615 | 8.617 | 8.629 Mbytes
   Step         PotEng         TotEng           Lx             Ly             Lz           Volume         Press           Pxx            Pyy            Pzz      
        53  -39.742137     -39.742137      4.4063079      4.4063079      4.4063079      85.550889     -388248.31     -388248.31     -388248.31     -388248.31    
        54  -39.742137     -39.742137      4.4063079      4.4063079      4.4063079      85.550889     -388248.31     -388248.31     -388248.31     -388248.31    
Loop time of 0.000689625 on 8 procs for 1 steps with 8 atoms

Performance: 125.285 ns/day, 0.192 hours/ns, 1450.063 timesteps/s, 11.601 katom-step/s
0.0% CPU use with 8 MPI tasks x 1 OpenMP threads

MPI task timing breakdown:
Section |  min time  |  avg time  |  max time  |%varavg| %total
---------------------------------------------------------------
Pair    | 0.000464   | 0.00049787 | 0.000631   |   0.0 | 72.20
Neigh   | 0          | 0          | 0          |   0.0 |  0.00
Comm    | 1.6e-05    | 7.675e-05  | 0.000195   |   0.0 | 11.13
Output  | 1.8e-05    | 0.00010387 | 0.000198   |   0.0 | 15.06
Modify  | 0          | 1.25e-07   | 1e-06      |   0.0 |  0.02
Other   |            | 1.1e-05    |            |       |  1.60

Nlocal:              1 ave           8 max           0 min
Histogram: 7 0 0 0 0 0 0 0 0 1
Nghost:            511 ave         512 max         504 min
Histogram: 1 0 0 0 0 0 0 0 0 7
Neighs:             73 ave         584 max           0 min
Histogram: 7 0 0 0 0 0 0 0 0 1
FullNghs:          146 ave        1168 max           0 min
Histogram: 7 0 0 0 0 0 0 0 0 1

Total # of neighbors = 1168
Ave neighs/atom = 146
Neighbor list builds = 0
Dangerous builds = 0
variable  natoms equal "count(all)"
variable xlength equal "lx"
variable  volume equal "vol"
variable  etotal equal "etotal"
variable    ecoh equal "pe/v_natoms"
print "${xlength}, ${volume}, ${etotal}, ${ecoh}" append lattice_cohesive_energy.txt screen no

next i
jump SELF loop

print "-------------------------------------------------------------"
-------------------------------------------------------------
print "Show results of 1st step (Running Minimization)"
Show results of 1st step (Running Minimization)
print "The number of atoms = ${natoms};"
The number of atoms = 8;
print "The lattice constant, x (Angstoms) = ${x0};"
The lattice constant, x (Angstoms) = 4.40630790896934;
print "The lattice constant, y (Angstoms) = ${y0};"
The lattice constant, y (Angstoms) = 4.40630790896934;
print "The lattice constant, z (Angstoms) = ${z0};"
The lattice constant, z (Angstoms) = 4.40630790896934;
print "The volume (Angstoms^3) = ${v0};"
The volume (Angstoms^3) = 85.5508888281744;
print "The total energy (eV) = ${etot0};"
The total energy (eV) = -39.7421367818634;
print "The cohesive energy (eV/atom) = ${ecoh0};"
The cohesive energy (eV/atom) = -4.96776709773293;
print "-------------------------------------------------------------"
-------------------------------------------------------------
print "Simulations completed !"
Simulations completed !
Total wall time: 0:00:00
