LAMMPS (22 Dec 2022)
  using 1 OpenMP thread(s) per MPI task
Loaded 1 plugins from C:\Program Files\LAMMPS 64-bit 23Jun2022\plugins
Loaded 0 plugins from C:\Program Files\LAMMPS 64-bit 23Jun2022-MPI\plugins
Loaded 1 plugins from C:\Program Files\LAMMPS 64-bit 22Dec2022-MSMPI\plugins
Loaded 1 plugins from C:\Program Files\LAMMPS 64-bit 28Mar2023-MPI\plugins
#------------------------------------------------------------------------------------------
# LAMMPS 64-bit 22Dec2022-MSMPI
#------------------------------------------------------------------------------------------
clear
  using 1 OpenMP thread(s) per MPI task
Loaded 1 plugins from C:\Program Files\LAMMPS 64-bit 23Jun2022\plugins
Loaded 0 plugins from C:\Program Files\LAMMPS 64-bit 23Jun2022-MPI\plugins
Loaded 1 plugins from C:\Program Files\LAMMPS 64-bit 22Dec2022-MSMPI\plugins
Loaded 1 plugins from C:\Program Files\LAMMPS 64-bit 28Mar2023-MPI\plugins
#echo both
# ---------- Initializing Simulation ---------------------------------
units metal
dimension 3
boundary p p p
atom_style atomic
atom_modify map array

#read_data ./../../Ni3Fe.data
read_data ./../../CrN.data
Reading data file ...
  orthogonal box = (0 0 0) to (4.148 4.148 4.148)
  2 by 2 by 2 MPI processor grid
  reading atoms ...
  8 atoms
  read_data CPU = 0.001 seconds
#read_data ./../../NiN.data

replicate 1 1 1
Replication is creating a 1x1x1 = 1 times larger system...
  orthogonal box = (0 0 0) to (4.148 4.148 4.148)
  2 by 2 by 2 MPI processor grid
  8 atoms
  replicate CPU = 0.000 seconds

# ---------- Defining the Interatomic Potential ---------------------
pair_style meam
#pair_coeff * * ./../../library.meam Fe Cr Ni N ./../../FeCrNiN.meam Fe Ni
pair_coeff * * ./../../library.meam Fe Cr Ni N ./../../FeCrNiN.meam Cr N
#pair_coeff * * ./../../library.meam Fe Cr Ni N ./../../FeCrNiN.meam Ni N

# ---------- Running Minimization -------------------------------------
fix 1 all box/relax iso 0.0 vmax 0.001

thermo 10
thermo_style custom step pe etotal lx ly lz vol press pxx pyy pzz

min_style cg
minimize 1e-25 1e-25 5000 10000
Neighbor list info ...
  update: every = 1 steps, delay = 0 steps, check = yes
  max neighbors/atom: 2000, page size: 100000
  master list distance cutoff = 7
  ghost atom cutoff = 7
  binsize = 3.5, bins = 2 2 2
  2 neighbor lists, perpetual/occasional/extra = 2 0 0
  (1) pair meam, perpetual
      attributes: full, newton on
      pair build: full/bin/atomonly
      stencil: full/bin/3d
      bin: standard
  (2) pair meam, perpetual, half/full from (1)
      attributes: half, newton on
      pair build: halffull/newton
      stencil: none
      bin: none
Per MPI rank memory allocation (min/avg/max) = 9.684 | 9.684 | 9.684 Mbytes
   Step         PotEng         TotEng           Lx             Ly             Lz           Volume         Press           Pxx            Pyy            Pzz      
         0  -41.796029     -41.796029      4.148          4.148          4.148          71.37009      -525.78175     -525.78175     -525.78175     -525.78175    
         4  -41.79603      -41.79603       4.1477818      4.1477818      4.1477818      71.358827      1.2671049e-09  1.2826195e-09  1.2685979e-09  1.2500973e-09
Loop time of 0.001869 on 8 procs for 4 steps with 8 atoms

0.0% CPU use with 8 MPI tasks x 1 OpenMP threads

Minimization stats:
  Stopping criterion = energy tolerance
  Energy initial, next-to-last, final = 
     -41.7960285909792  -41.7960304393232  -41.7960304393232
  Force two-norm initial, final = 0.070263964 1.6931542e-13
  Force max component initial, final = 0.070263964 1.6931445e-13
  Final line search alpha, max atom move = 1 1.6931445e-13
  Iterations, force evaluations = 4 8

MPI task timing breakdown:
Section |  min time  |  avg time  |  max time  |%varavg| %total
---------------------------------------------------------------
Pair    | 0.001158   | 0.001229   | 0.001307   |   0.2 | 65.76
Neigh   | 0          | 0          | 0          |   0.0 |  0.00
Comm    | 0.000214   | 0.00029225 | 0.000364   |   0.0 | 15.64
Output  | 0          | 0          | 0          |   0.0 |  0.00
Modify  | 0          | 0          | 0          |   0.0 |  0.00
Other   |            | 0.0003477  |            |       | 18.61

Nlocal:              1 ave           1 max           1 min
Histogram: 8 0 0 0 0 0 0 0 0 0
Nghost:            511 ave         511 max         511 min
Histogram: 8 0 0 0 0 0 0 0 0 0
Neighs:             85 ave          85 max          85 min
Histogram: 8 0 0 0 0 0 0 0 0 0
FullNghs:          170 ave         170 max         170 min
Histogram: 8 0 0 0 0 0 0 0 0 0

Total # of neighbors = 1360
Ave neighs/atom = 170
Neighbor list builds = 0
Dangerous builds = 0

variable  natoms equal "count(all)"
variable      x0 equal "lx"
variable      y0 equal "ly"
variable      z0 equal "lz"
variable      v0 equal "vol"
variable   etot0 equal "etotal"
variable   ecoh0 equal "pe/v_natoms"

unfix 1
write_data ./../step2_elastic/data.in
System init for write_data ...

# ---------- For Equation of States -------------------------------------
change_box all x scale 0.94 y scale 0.94 z scale 0.94 remap
Changing box ...
  orthogonal box = (0.12454256 0.00010910529 0.00010910529) to (4.0234574 4.1478909 4.1478909)
  orthogonal box = (0.12454256 0.12454256 0.00010910529) to (4.0234574 4.0234574 4.1478909)
  orthogonal box = (0.12454256 0.12454256 0.12454256) to (4.0234574 4.0234574 4.0234574)
run 1
WARNING: No fixes with time integration, atoms won't move (src/verlet.cpp:60)
WARNING: Proc sub-domain size < neighbor skin, could lead to lost atoms (src/domain.cpp:966)
Per MPI rank memory allocation (min/avg/max) = 8.559 | 8.559 | 8.559 Mbytes
   Step         PotEng         TotEng           Lx             Ly             Lz           Volume         Press           Pxx            Pyy            Pzz      
         4  -38.770961     -38.770961      3.8989149      3.8989149      3.8989149      59.2695        953444.14      953444.14      953444.14      953444.14    
         5  -38.770961     -38.770961      3.8989149      3.8989149      3.8989149      59.2695        953444.14      953444.14      953444.14      953444.14    
Loop time of 0.00017575 on 8 procs for 1 steps with 8 atoms

Performance: 491.607 ns/day, 0.049 hours/ns, 5689.900 timesteps/s, 45.519 katom-step/s
0.0% CPU use with 8 MPI tasks x 1 OpenMP threads

MPI task timing breakdown:
Section |  min time  |  avg time  |  max time  |%varavg| %total
---------------------------------------------------------------
Pair    | 0.000128   | 0.00013138 | 0.000134   |   0.0 | 74.75
Neigh   | 0          | 0          | 0          |   0.0 |  0.00
Comm    | 2.2e-05    | 2.5625e-05 | 2.9e-05    |   0.0 | 14.58
Output  | 1.4e-05    | 1.4625e-05 | 1.5e-05    |   0.0 |  8.32
Modify  | 0          | 6.25e-07   | 1e-06      |   0.0 |  0.36
Other   |            | 3.5e-06    |            |       |  1.99

Nlocal:              1 ave           1 max           1 min
Histogram: 8 0 0 0 0 0 0 0 0 0
Nghost:            511 ave         511 max         511 min
Histogram: 8 0 0 0 0 0 0 0 0 0
Neighs:             89 ave          89 max          89 min
Histogram: 8 0 0 0 0 0 0 0 0 0
FullNghs:          178 ave         178 max         178 min
Histogram: 8 0 0 0 0 0 0 0 0 0

Total # of neighbors = 1424
Ave neighs/atom = 178
Neighbor list builds = 0
Dangerous builds = 0
print "# Lattice constant (Angstroms), Volume (Angstrom), Total energy (eV), Cohesive energy (eV/atom)" file lattice_cohesive_energy.txt screen no


# Loop over lattice constants
variable i loop 49 # Number of steps
label loop

change_box all x scale 1.0025 y scale 1.0025 z scale 1.0025 remap
Changing box ...
  orthogonal box = (0.11966892 0.12454256 0.12454256) to (4.0283311 4.0234574 4.0234574)
  orthogonal box = (0.11966892 0.11966892 0.12454256) to (4.0283311 4.0283311 4.0234574)
  orthogonal box = (0.11966892 0.11966892 0.11966892) to (4.0283311 4.0283311 4.0283311)

run 1
WARNING: No fixes with time integration, atoms won't move (src/verlet.cpp:60)
WARNING: Proc sub-domain size < neighbor skin, could lead to lost atoms (src/domain.cpp:966)
Per MPI rank memory allocation (min/avg/max) = 8.559 | 8.559 | 8.559 Mbytes
   Step         PotEng         TotEng           Lx             Ly             Lz           Volume         Press           Pxx            Pyy            Pzz      
         5  -39.028606     -39.028606      3.9086622      3.9086622      3.9086622      59.715133      899491.32      899491.32      899491.32      899491.32    
         6  -39.028606     -39.028606      3.9086622      3.9086622      3.9086622      59.715133      899491.32      899491.32      899491.32      899491.32    
Loop time of 0.000199 on 8 procs for 1 steps with 8 atoms

Performance: 434.171 ns/day, 0.055 hours/ns, 5025.126 timesteps/s, 40.201 katom-step/s
0.0% CPU use with 8 MPI tasks x 1 OpenMP threads

MPI task timing breakdown:
Section |  min time  |  avg time  |  max time  |%varavg| %total
---------------------------------------------------------------
Pair    | 0.000136   | 0.00014312 | 0.000156   |   0.0 | 71.92
Neigh   | 0          | 0          | 0          |   0.0 |  0.00
Comm    | 2.2e-05    | 3.5625e-05 | 4.3e-05    |   0.0 | 17.90
Output  | 1.4e-05    | 1.475e-05  | 1.6e-05    |   0.0 |  7.41
Modify  | 0          | 0          | 0          |   0.0 |  0.00
Other   |            | 5.5e-06    |            |       |  2.76

Nlocal:              1 ave           1 max           1 min
Histogram: 8 0 0 0 0 0 0 0 0 0
Nghost:            511 ave         511 max         511 min
Histogram: 8 0 0 0 0 0 0 0 0 0
Neighs:             89 ave          89 max          89 min
Histogram: 8 0 0 0 0 0 0 0 0 0
FullNghs:          178 ave         178 max         178 min
Histogram: 8 0 0 0 0 0 0 0 0 0

Total # of neighbors = 1424
Ave neighs/atom = 178
Neighbor list builds = 0
Dangerous builds = 0
variable  natoms equal "count(all)"
variable xlength equal "lx"
variable  volume equal "vol"
variable  etotal equal "etotal"
variable    ecoh equal "pe/v_natoms"
print "${xlength}, ${volume}, ${etotal}, ${ecoh}" append lattice_cohesive_energy.txt screen no

next i
jump SELF loop

change_box all x scale 1.0025 y scale 1.0025 z scale 1.0025 remap
Changing box ...
  orthogonal box = (0.11478309 0.11966892 0.11966892) to (4.0332169 4.0283311 4.0283311)
  orthogonal box = (0.11478309 0.11478309 0.11966892) to (4.0332169 4.0332169 4.0283311)
  orthogonal box = (0.11478309 0.11478309 0.11478309) to (4.0332169 4.0332169 4.0332169)

run 1
WARNING: No fixes with time integration, atoms won't move (src/verlet.cpp:60)
WARNING: Proc sub-domain size < neighbor skin, could lead to lost atoms (src/domain.cpp:966)
Per MPI rank memory allocation (min/avg/max) = 8.559 | 8.559 | 8.559 Mbytes
   Step         PotEng         TotEng           Lx             Ly             Lz           Volume         Press           Pxx            Pyy            Pzz      
         6  -39.273283     -39.273283      3.9184338      3.9184338      3.9184338      60.164117      847063.55      847063.55      847063.55      847063.55    
         7  -39.273283     -39.273283      3.9184338      3.9184338      3.9184338      60.164117      847063.55      847063.55      847063.55      847063.55    
Loop time of 0.000329375 on 8 procs for 1 steps with 8 atoms

Performance: 262.315 ns/day, 0.091 hours/ns, 3036.053 timesteps/s, 24.288 katom-step/s
0.0% CPU use with 8 MPI tasks x 1 OpenMP threads

MPI task timing breakdown:
Section |  min time  |  avg time  |  max time  |%varavg| %total
---------------------------------------------------------------
Pair    | 0.000271   | 0.0002765  | 0.000281   |   0.0 | 83.95
Neigh   | 0          | 0          | 0          |   0.0 |  0.00
Comm    | 2.5e-05    | 3.1e-05    | 3.8e-05    |   0.0 |  9.41
Output  | 1.3e-05    | 1.5625e-05 | 1.7e-05    |   0.0 |  4.74
Modify  | 0          | 1.25e-07   | 1e-06      |   0.0 |  0.04
Other   |            | 6.125e-06  |            |       |  1.86

Nlocal:              1 ave           1 max           1 min
Histogram: 8 0 0 0 0 0 0 0 0 0
Nghost:            511 ave         511 max         511 min
Histogram: 8 0 0 0 0 0 0 0 0 0
Neighs:             89 ave          89 max          89 min
Histogram: 8 0 0 0 0 0 0 0 0 0
FullNghs:          178 ave         178 max         178 min
Histogram: 8 0 0 0 0 0 0 0 0 0

Total # of neighbors = 1424
Ave neighs/atom = 178
Neighbor list builds = 0
Dangerous builds = 0
variable  natoms equal "count(all)"
variable xlength equal "lx"
variable  volume equal "vol"
variable  etotal equal "etotal"
variable    ecoh equal "pe/v_natoms"
print "${xlength}, ${volume}, ${etotal}, ${ecoh}" append lattice_cohesive_energy.txt screen no

next i
jump SELF loop

change_box all x scale 1.0025 y scale 1.0025 z scale 1.0025 remap
Changing box ...
  orthogonal box = (0.10988505 0.11478309 0.11478309) to (4.038115 4.0332169 4.0332169)
  orthogonal box = (0.10988505 0.10988505 0.11478309) to (4.038115 4.038115 4.0332169)
  orthogonal box = (0.10988505 0.10988505 0.10988505) to (4.038115 4.038115 4.038115)

run 1
WARNING: No fixes with time integration, atoms won't move (src/verlet.cpp:60)
WARNING: Proc sub-domain size < neighbor skin, could lead to lost atoms (src/domain.cpp:966)
Per MPI rank memory allocation (min/avg/max) = 8.559 | 8.559 | 8.559 Mbytes
   Step         PotEng         TotEng           Lx             Ly             Lz           Volume         Press           Pxx            Pyy            Pzz      
         7  -39.50521      -39.50521       3.9282299      3.9282299      3.9282299      60.616477      796128.62      796128.62      796128.62      796128.62    
         8  -39.50521      -39.50521       3.9282299      3.9282299      3.9282299      60.616477      796128.62      796128.62      796128.62      796128.62    
Loop time of 0.000229875 on 8 procs for 1 steps with 8 atoms

Performance: 375.856 ns/day, 0.064 hours/ns, 4350.190 timesteps/s, 34.802 katom-step/s
0.0% CPU use with 8 MPI tasks x 1 OpenMP threads

MPI task timing breakdown:
Section |  min time  |  avg time  |  max time  |%varavg| %total
---------------------------------------------------------------
Pair    | 0.000168   | 0.00017363 | 0.000185   |   0.0 | 75.53
Neigh   | 0          | 0          | 0          |   0.0 |  0.00
Comm    | 2.2e-05    | 3.375e-05  | 3.9e-05    |   0.0 | 14.68
Output  | 1.5e-05    | 1.625e-05  | 1.7e-05    |   0.0 |  7.07
Modify  | 0          | 3.75e-07   | 1e-06      |   0.0 |  0.16
Other   |            | 5.875e-06  |            |       |  2.56

Nlocal:              1 ave           1 max           1 min
Histogram: 8 0 0 0 0 0 0 0 0 0
Nghost:            511 ave         511 max         511 min
Histogram: 8 0 0 0 0 0 0 0 0 0
Neighs:             89 ave          89 max          89 min
Histogram: 8 0 0 0 0 0 0 0 0 0
FullNghs:          178 ave         178 max         178 min
Histogram: 8 0 0 0 0 0 0 0 0 0

Total # of neighbors = 1424
Ave neighs/atom = 178
Neighbor list builds = 0
Dangerous builds = 0
variable  natoms equal "count(all)"
variable xlength equal "lx"
variable  volume equal "vol"
variable  etotal equal "etotal"
variable    ecoh equal "pe/v_natoms"
print "${xlength}, ${volume}, ${etotal}, ${ecoh}" append lattice_cohesive_energy.txt screen no

next i
jump SELF loop

change_box all x scale 1.0025 y scale 1.0025 z scale 1.0025 remap
Changing box ...
  orthogonal box = (0.10497476 0.10988505 0.10988505) to (4.0430252 4.038115 4.038115)
  orthogonal box = (0.10497476 0.10497476 0.10988505) to (4.0430252 4.0430252 4.038115)
  orthogonal box = (0.10497476 0.10497476 0.10497476) to (4.0430252 4.0430252 4.0430252)

run 1
WARNING: No fixes with time integration, atoms won't move (src/verlet.cpp:60)
WARNING: Proc sub-domain size < neighbor skin, could lead to lost atoms (src/domain.cpp:966)
Per MPI rank memory allocation (min/avg/max) = 8.559 | 8.559 | 8.559 Mbytes
   Step         PotEng         TotEng           Lx             Ly             Lz           Volume         Press           Pxx            Pyy            Pzz      
         8  -39.7246       -39.7246        3.9380505      3.9380505      3.9380505      61.072238      746654.87      746654.87      746654.87      746654.87    
         9  -39.7246       -39.7246        3.9380505      3.9380505      3.9380505      61.072238      746654.87      746654.87      746654.87      746654.87    
Loop time of 0.000175125 on 8 procs for 1 steps with 8 atoms

Performance: 493.362 ns/day, 0.049 hours/ns, 5710.207 timesteps/s, 45.682 katom-step/s
0.0% CPU use with 8 MPI tasks x 1 OpenMP threads

MPI task timing breakdown:
Section |  min time  |  avg time  |  max time  |%varavg| %total
---------------------------------------------------------------
Pair    | 0.000128   | 0.00013012 | 0.000133   |   0.0 | 74.30
Neigh   | 0          | 0          | 0          |   0.0 |  0.00
Comm    | 2.3e-05    | 2.5125e-05 | 2.7e-05    |   0.0 | 14.35
Output  | 1.4e-05    | 1.5375e-05 | 1.7e-05    |   0.0 |  8.78
Modify  | 0          | 2.5e-07    | 1e-06      |   0.0 |  0.14
Other   |            | 4.25e-06   |            |       |  2.43

Nlocal:              1 ave           1 max           1 min
Histogram: 8 0 0 0 0 0 0 0 0 0
Nghost:            511 ave         511 max         511 min
Histogram: 8 0 0 0 0 0 0 0 0 0
Neighs:             89 ave          89 max          89 min
Histogram: 8 0 0 0 0 0 0 0 0 0
FullNghs:          178 ave         178 max         178 min
Histogram: 8 0 0 0 0 0 0 0 0 0

Total # of neighbors = 1424
Ave neighs/atom = 178
Neighbor list builds = 0
Dangerous builds = 0
variable  natoms equal "count(all)"
variable xlength equal "lx"
variable  volume equal "vol"
variable  etotal equal "etotal"
variable    ecoh equal "pe/v_natoms"
print "${xlength}, ${volume}, ${etotal}, ${ecoh}" append lattice_cohesive_energy.txt screen no

next i
jump SELF loop

change_box all x scale 1.0025 y scale 1.0025 z scale 1.0025 remap
Changing box ...
  orthogonal box = (0.10005219 0.10497476 0.10497476) to (4.0479478 4.0430252 4.0430252)
  orthogonal box = (0.10005219 0.10005219 0.10497476) to (4.0479478 4.0479478 4.0430252)
  orthogonal box = (0.10005219 0.10005219 0.10005219) to (4.0479478 4.0479478 4.0479478)

run 1
WARNING: No fixes with time integration, atoms won't move (src/verlet.cpp:60)
WARNING: Proc sub-domain size < neighbor skin, could lead to lost atoms (src/domain.cpp:966)
Per MPI rank memory allocation (min/avg/max) = 8.559 | 8.559 | 8.559 Mbytes
   Step         PotEng         TotEng           Lx             Ly             Lz           Volume         Press           Pxx            Pyy            Pzz      
         9  -39.931666     -39.931666      3.9478956      3.9478956      3.9478956      61.531426      698611.19      698611.19      698611.19      698611.19    
        10  -39.931666     -39.931666      3.9478956      3.9478956      3.9478956      61.531426      698611.19      698611.19      698611.19      698611.19    
Loop time of 0.000180125 on 8 procs for 1 steps with 8 atoms

Performance: 479.667 ns/day, 0.050 hours/ns, 5551.700 timesteps/s, 44.414 katom-step/s
0.0% CPU use with 8 MPI tasks x 1 OpenMP threads

MPI task timing breakdown:
Section |  min time  |  avg time  |  max time  |%varavg| %total
---------------------------------------------------------------
Pair    | 0.000131   | 0.00013312 | 0.000136   |   0.0 | 73.91
Neigh   | 0          | 0          | 0          |   0.0 |  0.00
Comm    | 2.1e-05    | 2.3125e-05 | 2.6e-05    |   0.0 | 12.84
Output  | 1.1e-05    | 1.2125e-05 | 2e-05      |   0.0 |  6.73
Modify  | 0          | 0          | 0          |   0.0 |  0.00
Other   |            | 1.175e-05  |            |       |  6.52

Nlocal:              1 ave           1 max           1 min
Histogram: 8 0 0 0 0 0 0 0 0 0
Nghost:            511 ave         511 max         511 min
Histogram: 8 0 0 0 0 0 0 0 0 0
Neighs:             89 ave          89 max          89 min
Histogram: 8 0 0 0 0 0 0 0 0 0
FullNghs:          178 ave         178 max         178 min
Histogram: 8 0 0 0 0 0 0 0 0 0

Total # of neighbors = 1424
Ave neighs/atom = 178
Neighbor list builds = 0
Dangerous builds = 0
variable  natoms equal "count(all)"
variable xlength equal "lx"
variable  volume equal "vol"
variable  etotal equal "etotal"
variable    ecoh equal "pe/v_natoms"
print "${xlength}, ${volume}, ${etotal}, ${ecoh}" append lattice_cohesive_energy.txt screen no

next i
jump SELF loop

change_box all x scale 1.0025 y scale 1.0025 z scale 1.0025 remap
Changing box ...
  orthogonal box = (0.095117325 0.10005219 0.10005219) to (4.0528827 4.0479478 4.0479478)
  orthogonal box = (0.095117325 0.095117325 0.10005219) to (4.0528827 4.0528827 4.0479478)
  orthogonal box = (0.095117325 0.095117325 0.095117325) to (4.0528827 4.0528827 4.0528827)

run 1
WARNING: No fixes with time integration, atoms won't move (src/verlet.cpp:60)
WARNING: Proc sub-domain size < neighbor skin, could lead to lost atoms (src/domain.cpp:966)
Per MPI rank memory allocation (min/avg/max) = 8.559 | 8.559 | 8.559 Mbytes
   Step         PotEng         TotEng           Lx             Ly             Lz           Volume         Press           Pxx            Pyy            Pzz      
        10  -40.126619     -40.126619      3.9577653      3.9577653      3.9577653      61.994067      651967         651967         651967         651967       
        11  -40.126619     -40.126619      3.9577653      3.9577653      3.9577653      61.994067      651967         651967         651967         651967       
Loop time of 0.000167125 on 8 procs for 1 steps with 8 atoms

Performance: 516.978 ns/day, 0.046 hours/ns, 5983.545 timesteps/s, 47.868 katom-step/s
0.0% CPU use with 8 MPI tasks x 1 OpenMP threads

MPI task timing breakdown:
Section |  min time  |  avg time  |  max time  |%varavg| %total
---------------------------------------------------------------
Pair    | 0.000127   | 0.00012837 | 0.00013    |   0.0 | 76.81
Neigh   | 0          | 0          | 0          |   0.0 |  0.00
Comm    | 2.2e-05    | 2.3625e-05 | 2.5e-05    |   0.0 | 14.14
Output  | 1.1e-05    | 1.1e-05    | 1.1e-05    |   0.0 |  6.58
Modify  | 0          | 0          | 0          |   0.0 |  0.00
Other   |            | 4.125e-06  |            |       |  2.47

Nlocal:              1 ave           1 max           1 min
Histogram: 8 0 0 0 0 0 0 0 0 0
Nghost:            511 ave         511 max         511 min
Histogram: 8 0 0 0 0 0 0 0 0 0
Neighs:             89 ave          89 max          89 min
Histogram: 8 0 0 0 0 0 0 0 0 0
FullNghs:          178 ave         178 max         178 min
Histogram: 8 0 0 0 0 0 0 0 0 0

Total # of neighbors = 1424
Ave neighs/atom = 178
Neighbor list builds = 0
Dangerous builds = 0
variable  natoms equal "count(all)"
variable xlength equal "lx"
variable  volume equal "vol"
variable  etotal equal "etotal"
variable    ecoh equal "pe/v_natoms"
print "${xlength}, ${volume}, ${etotal}, ${ecoh}" append lattice_cohesive_energy.txt screen no

next i
jump SELF loop

change_box all x scale 1.0025 y scale 1.0025 z scale 1.0025 remap
Changing box ...
  orthogonal box = (0.090170119 0.095117325 0.095117325) to (4.0578299 4.0528827 4.0528827)
  orthogonal box = (0.090170119 0.090170119 0.095117325) to (4.0578299 4.0578299 4.0528827)
  orthogonal box = (0.090170119 0.090170119 0.090170119) to (4.0578299 4.0578299 4.0578299)

run 1
WARNING: No fixes with time integration, atoms won't move (src/verlet.cpp:60)
WARNING: Proc sub-domain size < neighbor skin, could lead to lost atoms (src/domain.cpp:966)
Per MPI rank memory allocation (min/avg/max) = 8.559 | 8.559 | 8.559 Mbytes
   Step         PotEng         TotEng           Lx             Ly             Lz           Volume         Press           Pxx            Pyy            Pzz      
        11  -40.309668     -40.309668      3.9676598      3.9676598      3.9676598      62.460185      606692.2       606692.2       606692.2       606692.2     
        12  -40.309668     -40.309668      3.9676598      3.9676598      3.9676598      62.460185      606692.2       606692.2       606692.2       606692.2     
Loop time of 0.000168375 on 8 procs for 1 steps with 8 atoms

Performance: 513.140 ns/day, 0.047 hours/ns, 5939.124 timesteps/s, 47.513 katom-step/s
0.0% CPU use with 8 MPI tasks x 1 OpenMP threads

MPI task timing breakdown:
Section |  min time  |  avg time  |  max time  |%varavg| %total
---------------------------------------------------------------
Pair    | 0.000128   | 0.00013025 | 0.000133   |   0.0 | 77.36
Neigh   | 0          | 0          | 0          |   0.0 |  0.00
Comm    | 2.1e-05    | 2.3625e-05 | 2.6e-05    |   0.0 | 14.03
Output  | 1e-05      | 1.0875e-05 | 1.1e-05    |   0.0 |  6.46
Modify  | 0          | 1.25e-07   | 1e-06      |   0.0 |  0.07
Other   |            | 3.5e-06    |            |       |  2.08

Nlocal:              1 ave           1 max           1 min
Histogram: 8 0 0 0 0 0 0 0 0 0
Nghost:            511 ave         511 max         511 min
Histogram: 8 0 0 0 0 0 0 0 0 0
Neighs:             89 ave          89 max          89 min
Histogram: 8 0 0 0 0 0 0 0 0 0
FullNghs:          178 ave         178 max         178 min
Histogram: 8 0 0 0 0 0 0 0 0 0

Total # of neighbors = 1424
Ave neighs/atom = 178
Neighbor list builds = 0
Dangerous builds = 0
variable  natoms equal "count(all)"
variable xlength equal "lx"
variable  volume equal "vol"
variable  etotal equal "etotal"
variable    ecoh equal "pe/v_natoms"
print "${xlength}, ${volume}, ${etotal}, ${ecoh}" append lattice_cohesive_energy.txt screen no

next i
jump SELF loop

change_box all x scale 1.0025 y scale 1.0025 z scale 1.0025 remap
Changing box ...
  orthogonal box = (0.085210544 0.090170119 0.090170119) to (4.0627895 4.0578299 4.0578299)
  orthogonal box = (0.085210544 0.085210544 0.090170119) to (4.0627895 4.0627895 4.0578299)
  orthogonal box = (0.085210544 0.085210544 0.085210544) to (4.0627895 4.0627895 4.0627895)

run 1
WARNING: No fixes with time integration, atoms won't move (src/verlet.cpp:60)
WARNING: Proc sub-domain size < neighbor skin, could lead to lost atoms (src/domain.cpp:966)
Per MPI rank memory allocation (min/avg/max) = 8.559 | 8.559 | 8.559 Mbytes
   Step         PotEng         TotEng           Lx             Ly             Lz           Volume         Press           Pxx            Pyy            Pzz      
        12  -40.481019     -40.481019      3.9775789      3.9775789      3.9775789      62.929809      562757.24      562757.24      562757.24      562757.24    
        13  -40.481019     -40.481019      3.9775789      3.9775789      3.9775789      62.929809      562757.24      562757.24      562757.24      562757.24    
Loop time of 0.00016625 on 8 procs for 1 steps with 8 atoms

Performance: 519.699 ns/day, 0.046 hours/ns, 6015.038 timesteps/s, 48.120 katom-step/s
0.0% CPU use with 8 MPI tasks x 1 OpenMP threads

MPI task timing breakdown:
Section |  min time  |  avg time  |  max time  |%varavg| %total
---------------------------------------------------------------
Pair    | 0.000129   | 0.00013012 | 0.000131   |   0.0 | 78.27
Neigh   | 0          | 0          | 0          |   0.0 |  0.00
Comm    | 2e-05      | 2.125e-05  | 2.2e-05    |   0.0 | 12.78
Output  | 1.1e-05    | 1.15e-05   | 1.2e-05    |   0.0 |  6.92
Modify  | 0          | 1.25e-07   | 1e-06      |   0.0 |  0.08
Other   |            | 3.25e-06   |            |       |  1.95

Nlocal:              1 ave           1 max           1 min
Histogram: 8 0 0 0 0 0 0 0 0 0
Nghost:            511 ave         511 max         511 min
Histogram: 8 0 0 0 0 0 0 0 0 0
Neighs:             89 ave          89 max          89 min
Histogram: 8 0 0 0 0 0 0 0 0 0
FullNghs:          178 ave         178 max         178 min
Histogram: 8 0 0 0 0 0 0 0 0 0

Total # of neighbors = 1424
Ave neighs/atom = 178
Neighbor list builds = 0
Dangerous builds = 0
variable  natoms equal "count(all)"
variable xlength equal "lx"
variable  volume equal "vol"
variable  etotal equal "etotal"
variable    ecoh equal "pe/v_natoms"
print "${xlength}, ${volume}, ${etotal}, ${ecoh}" append lattice_cohesive_energy.txt screen no

next i
jump SELF loop

change_box all x scale 1.0025 y scale 1.0025 z scale 1.0025 remap
Changing box ...
  orthogonal box = (0.08023857 0.085210544 0.085210544) to (4.0677614 4.0627895 4.0627895)
  orthogonal box = (0.08023857 0.08023857 0.085210544) to (4.0677614 4.0677614 4.0627895)
  orthogonal box = (0.08023857 0.08023857 0.08023857) to (4.0677614 4.0677614 4.0677614)

run 1
WARNING: No fixes with time integration, atoms won't move (src/verlet.cpp:60)
WARNING: Proc sub-domain size < neighbor skin, could lead to lost atoms (src/domain.cpp:966)
Per MPI rank memory allocation (min/avg/max) = 8.559 | 8.559 | 8.559 Mbytes
   Step         PotEng         TotEng           Lx             Ly             Lz           Volume         Press           Pxx            Pyy            Pzz      
        13  -40.640879     -40.640879      3.9875229      3.9875229      3.9875229      63.402963      520133.06      520133.06      520133.06      520133.06    
        14  -40.640879     -40.640879      3.9875229      3.9875229      3.9875229      63.402963      520133.06      520133.06      520133.06      520133.06    
Loop time of 0.000169875 on 8 procs for 1 steps with 8 atoms

Performance: 508.609 ns/day, 0.047 hours/ns, 5886.681 timesteps/s, 47.093 katom-step/s
0.0% CPU use with 8 MPI tasks x 1 OpenMP threads

MPI task timing breakdown:
Section |  min time  |  avg time  |  max time  |%varavg| %total
---------------------------------------------------------------
Pair    | 0.000128   | 0.00013112 | 0.000134   |   0.0 | 77.19
Neigh   | 0          | 0          | 0          |   0.0 |  0.00
Comm    | 1.9e-05    | 2.2625e-05 | 2.5e-05    |   0.0 | 13.32
Output  | 1e-05      | 1.1375e-05 | 1.2e-05    |   0.0 |  6.70
Modify  | 0          | 3.75e-07   | 1e-06      |   0.0 |  0.22
Other   |            | 4.375e-06  |            |       |  2.58

Nlocal:              1 ave           1 max           1 min
Histogram: 8 0 0 0 0 0 0 0 0 0
Nghost:            511 ave         511 max         511 min
Histogram: 8 0 0 0 0 0 0 0 0 0
Neighs:             89 ave          89 max          89 min
Histogram: 8 0 0 0 0 0 0 0 0 0
FullNghs:          178 ave         178 max         178 min
Histogram: 8 0 0 0 0 0 0 0 0 0

Total # of neighbors = 1424
Ave neighs/atom = 178
Neighbor list builds = 0
Dangerous builds = 0
variable  natoms equal "count(all)"
variable xlength equal "lx"
variable  volume equal "vol"
variable  etotal equal "etotal"
variable    ecoh equal "pe/v_natoms"
print "${xlength}, ${volume}, ${etotal}, ${ecoh}" append lattice_cohesive_energy.txt screen no

next i
jump SELF loop

change_box all x scale 1.0025 y scale 1.0025 z scale 1.0025 remap
Changing box ...
  orthogonal box = (0.075254167 0.08023857 0.08023857) to (4.0727458 4.0677614 4.0677614)
  orthogonal box = (0.075254167 0.075254167 0.08023857) to (4.0727458 4.0727458 4.0677614)
  orthogonal box = (0.075254167 0.075254167 0.075254167) to (4.0727458 4.0727458 4.0727458)

run 1
WARNING: No fixes with time integration, atoms won't move (src/verlet.cpp:60)
WARNING: Proc sub-domain size < neighbor skin, could lead to lost atoms (src/domain.cpp:966)
Per MPI rank memory allocation (min/avg/max) = 8.559 | 8.559 | 8.559 Mbytes
   Step         PotEng         TotEng           Lx             Ly             Lz           Volume         Press           Pxx            Pyy            Pzz      
        14  -40.78945      -40.78945       3.9974917      3.9974917      3.9974917      63.879675      478791.09      478791.09      478791.09      478791.09    
        15  -40.78945      -40.78945       3.9974917      3.9974917      3.9974917      63.879675      478791.09      478791.09      478791.09      478791.09    
Loop time of 0.000166125 on 8 procs for 1 steps with 8 atoms

Performance: 520.090 ns/day, 0.046 hours/ns, 6019.564 timesteps/s, 48.157 katom-step/s
0.0% CPU use with 8 MPI tasks x 1 OpenMP threads

MPI task timing breakdown:
Section |  min time  |  avg time  |  max time  |%varavg| %total
---------------------------------------------------------------
Pair    | 0.000125   | 0.00012687 | 0.00013    |   0.0 | 76.37
Neigh   | 0          | 0          | 0          |   0.0 |  0.00
Comm    | 2e-05      | 2.45e-05   | 2.6e-05    |   0.0 | 14.75
Output  | 1e-05      | 1.0625e-05 | 1.1e-05    |   0.0 |  6.40
Modify  | 0          | 1.25e-07   | 1e-06      |   0.0 |  0.08
Other   |            | 4e-06      |            |       |  2.41

Nlocal:              1 ave           1 max           1 min
Histogram: 8 0 0 0 0 0 0 0 0 0
Nghost:            511 ave         511 max         511 min
Histogram: 8 0 0 0 0 0 0 0 0 0
Neighs:             89 ave          89 max          89 min
Histogram: 8 0 0 0 0 0 0 0 0 0
FullNghs:          178 ave         178 max         178 min
Histogram: 8 0 0 0 0 0 0 0 0 0

Total # of neighbors = 1424
Ave neighs/atom = 178
Neighbor list builds = 0
Dangerous builds = 0
variable  natoms equal "count(all)"
variable xlength equal "lx"
variable  volume equal "vol"
variable  etotal equal "etotal"
variable    ecoh equal "pe/v_natoms"
print "${xlength}, ${volume}, ${etotal}, ${ecoh}" append lattice_cohesive_energy.txt screen no

next i
jump SELF loop

change_box all x scale 1.0025 y scale 1.0025 z scale 1.0025 remap
Changing box ...
  orthogonal box = (0.070257302 0.075254167 0.075254167) to (4.0777427 4.0727458 4.0727458)
  orthogonal box = (0.070257302 0.070257302 0.075254167) to (4.0777427 4.0777427 4.0727458)
  orthogonal box = (0.070257302 0.070257302 0.070257302) to (4.0777427 4.0777427 4.0777427)

run 1
WARNING: No fixes with time integration, atoms won't move (src/verlet.cpp:60)
Per MPI rank memory allocation (min/avg/max) = 8.559 | 8.559 | 8.559 Mbytes
   Step         PotEng         TotEng           Lx             Ly             Lz           Volume         Press           Pxx            Pyy            Pzz      
        15  -40.926933     -40.926933      4.0074854      4.0074854      4.0074854      64.359972      438703.27      438703.27      438703.27      438703.27    
        16  -40.926933     -40.926933      4.0074854      4.0074854      4.0074854      64.359972      438703.27      438703.27      438703.27      438703.27    
Loop time of 0.00018275 on 8 procs for 1 steps with 8 atoms

Performance: 472.777 ns/day, 0.051 hours/ns, 5471.956 timesteps/s, 43.776 katom-step/s
0.0% CPU use with 8 MPI tasks x 1 OpenMP threads

MPI task timing breakdown:
Section |  min time  |  avg time  |  max time  |%varavg| %total
---------------------------------------------------------------
Pair    | 0.000128   | 0.00013288 | 0.000141   |   0.0 | 72.71
Neigh   | 0          | 0          | 0          |   0.0 |  0.00
Comm    | 2.2e-05    | 3.0375e-05 | 3.6e-05    |   0.0 | 16.62
Output  | 1.1e-05    | 1.1625e-05 | 1.2e-05    |   0.0 |  6.36
Modify  | 0          | 1.25e-07   | 1e-06      |   0.0 |  0.07
Other   |            | 7.75e-06   |            |       |  4.24

Nlocal:              1 ave           1 max           1 min
Histogram: 8 0 0 0 0 0 0 0 0 0
Nghost:            511 ave         511 max         511 min
Histogram: 8 0 0 0 0 0 0 0 0 0
Neighs:             89 ave          89 max          89 min
Histogram: 8 0 0 0 0 0 0 0 0 0
FullNghs:          178 ave         178 max         178 min
Histogram: 8 0 0 0 0 0 0 0 0 0

Total # of neighbors = 1424
Ave neighs/atom = 178
Neighbor list builds = 0
Dangerous builds = 0
variable  natoms equal "count(all)"
variable xlength equal "lx"
variable  volume equal "vol"
variable  etotal equal "etotal"
variable    ecoh equal "pe/v_natoms"
print "${xlength}, ${volume}, ${etotal}, ${ecoh}" append lattice_cohesive_energy.txt screen no

next i
jump SELF loop

change_box all x scale 1.0025 y scale 1.0025 z scale 1.0025 remap
Changing box ...
  orthogonal box = (0.065247945 0.070257302 0.070257302) to (4.0827521 4.0777427 4.0777427)
  orthogonal box = (0.065247945 0.065247945 0.070257302) to (4.0827521 4.0827521 4.0777427)
  orthogonal box = (0.065247945 0.065247945 0.065247945) to (4.0827521 4.0827521 4.0827521)

run 1
WARNING: No fixes with time integration, atoms won't move (src/verlet.cpp:60)
Per MPI rank memory allocation (min/avg/max) = 8.559 | 8.559 | 8.559 Mbytes
   Step         PotEng         TotEng           Lx             Ly             Lz           Volume         Press           Pxx            Pyy            Pzz      
        16  -41.053529     -41.053529      4.0175041      4.0175041      4.0175041      64.843879      399842.01      399842.01      399842.01      399842.01    
        17  -41.053529     -41.053529      4.0175041      4.0175041      4.0175041      64.843879      399842.01      399842.01      399842.01      399842.01    
Loop time of 0.000167875 on 8 procs for 1 steps with 8 atoms

Performance: 514.669 ns/day, 0.047 hours/ns, 5956.813 timesteps/s, 47.655 katom-step/s
0.0% CPU use with 8 MPI tasks x 1 OpenMP threads

MPI task timing breakdown:
Section |  min time  |  avg time  |  max time  |%varavg| %total
---------------------------------------------------------------
Pair    | 0.000127   | 0.00012963 | 0.000133   |   0.0 | 77.22
Neigh   | 0          | 0          | 0          |   0.0 |  0.00
Comm    | 2e-05      | 2.325e-05  | 2.6e-05    |   0.0 | 13.85
Output  | 1.1e-05    | 1.1125e-05 | 1.2e-05    |   0.0 |  6.63
Modify  | 0          | 0          | 0          |   0.0 |  0.00
Other   |            | 3.875e-06  |            |       |  2.31

Nlocal:              1 ave           1 max           1 min
Histogram: 8 0 0 0 0 0 0 0 0 0
Nghost:            511 ave         511 max         511 min
Histogram: 8 0 0 0 0 0 0 0 0 0
Neighs:             89 ave          89 max          89 min
Histogram: 8 0 0 0 0 0 0 0 0 0
FullNghs:          178 ave         178 max         178 min
Histogram: 8 0 0 0 0 0 0 0 0 0

Total # of neighbors = 1424
Ave neighs/atom = 178
Neighbor list builds = 0
Dangerous builds = 0
variable  natoms equal "count(all)"
variable xlength equal "lx"
variable  volume equal "vol"
variable  etotal equal "etotal"
variable    ecoh equal "pe/v_natoms"
print "${xlength}, ${volume}, ${etotal}, ${ecoh}" append lattice_cohesive_energy.txt screen no

next i
jump SELF loop

change_box all x scale 1.0025 y scale 1.0025 z scale 1.0025 remap
Changing box ...
  orthogonal box = (0.060226065 0.065247945 0.065247945) to (4.0877739 4.0827521 4.0827521)
  orthogonal box = (0.060226065 0.060226065 0.065247945) to (4.0877739 4.0877739 4.0827521)
  orthogonal box = (0.060226065 0.060226065 0.060226065) to (4.0877739 4.0877739 4.0877739)

run 1
WARNING: No fixes with time integration, atoms won't move (src/verlet.cpp:60)
Per MPI rank memory allocation (min/avg/max) = 8.559 | 8.559 | 8.559 Mbytes
   Step         PotEng         TotEng           Lx             Ly             Lz           Volume         Press           Pxx            Pyy            Pzz      
        17  -41.169434     -41.169434      4.0275479      4.0275479      4.0275479      65.331425      362180.22      362180.22      362180.22      362180.22    
        18  -41.169434     -41.169434      4.0275479      4.0275479      4.0275479      65.331425      362180.22      362180.22      362180.22      362180.22    
Loop time of 0.000167625 on 8 procs for 1 steps with 8 atoms

Performance: 515.436 ns/day, 0.047 hours/ns, 5965.697 timesteps/s, 47.726 katom-step/s
0.0% CPU use with 8 MPI tasks x 1 OpenMP threads

MPI task timing breakdown:
Section |  min time  |  avg time  |  max time  |%varavg| %total
---------------------------------------------------------------
Pair    | 0.000124   | 0.0001275  | 0.00013    |   0.0 | 76.06
Neigh   | 0          | 0          | 0          |   0.0 |  0.00
Comm    | 2.1e-05    | 2.3875e-05 | 2.7e-05    |   0.0 | 14.24
Output  | 1.2e-05    | 1.2e-05    | 1.2e-05    |   0.0 |  7.16
Modify  | 0          | 1.25e-07   | 1e-06      |   0.0 |  0.07
Other   |            | 4.125e-06  |            |       |  2.46

Nlocal:              1 ave           1 max           1 min
Histogram: 8 0 0 0 0 0 0 0 0 0
Nghost:            511 ave         511 max         511 min
Histogram: 8 0 0 0 0 0 0 0 0 0
Neighs:             89 ave          89 max          89 min
Histogram: 8 0 0 0 0 0 0 0 0 0
FullNghs:          178 ave         178 max         178 min
Histogram: 8 0 0 0 0 0 0 0 0 0

Total # of neighbors = 1424
Ave neighs/atom = 178
Neighbor list builds = 0
Dangerous builds = 0
variable  natoms equal "count(all)"
variable xlength equal "lx"
variable  volume equal "vol"
variable  etotal equal "etotal"
variable    ecoh equal "pe/v_natoms"
print "${xlength}, ${volume}, ${etotal}, ${ecoh}" append lattice_cohesive_energy.txt screen no

next i
jump SELF loop

change_box all x scale 1.0025 y scale 1.0025 z scale 1.0025 remap
Changing box ...
  orthogonal box = (0.05519163 0.060226065 0.060226065) to (4.0928084 4.0877739 4.0877739)
  orthogonal box = (0.05519163 0.05519163 0.060226065) to (4.0928084 4.0928084 4.0877739)
  orthogonal box = (0.05519163 0.05519163 0.05519163) to (4.0928084 4.0928084 4.0928084)

run 1
WARNING: No fixes with time integration, atoms won't move (src/verlet.cpp:60)
Per MPI rank memory allocation (min/avg/max) = 8.559 | 8.559 | 8.559 Mbytes
   Step         PotEng         TotEng           Lx             Ly             Lz           Volume         Press           Pxx            Pyy            Pzz      
        18  -41.274845     -41.274845      4.0376167      4.0376167      4.0376167      65.822637      325691.26      325691.26      325691.26      325691.26    
        19  -41.274845     -41.274845      4.0376167      4.0376167      4.0376167      65.822637      325691.26      325691.26      325691.26      325691.26    
Loop time of 0.00016925 on 8 procs for 1 steps with 8 atoms

Performance: 510.487 ns/day, 0.047 hours/ns, 5908.419 timesteps/s, 47.267 katom-step/s
0.0% CPU use with 8 MPI tasks x 1 OpenMP threads

MPI task timing breakdown:
Section |  min time  |  avg time  |  max time  |%varavg| %total
---------------------------------------------------------------
Pair    | 0.000127   | 0.000129   | 0.000132   |   0.0 | 76.22
Neigh   | 0          | 0          | 0          |   0.0 |  0.00
Comm    | 2.1e-05    | 2.4e-05    | 2.6e-05    |   0.0 | 14.18
Output  | 1.1e-05    | 1.1e-05    | 1.1e-05    |   0.0 |  6.50
Modify  | 0          | 0          | 0          |   0.0 |  0.00
Other   |            | 5.25e-06   |            |       |  3.10

Nlocal:              1 ave           1 max           1 min
Histogram: 8 0 0 0 0 0 0 0 0 0
Nghost:            511 ave         511 max         511 min
Histogram: 8 0 0 0 0 0 0 0 0 0
Neighs:             89 ave          89 max          89 min
Histogram: 8 0 0 0 0 0 0 0 0 0
FullNghs:          178 ave         178 max         178 min
Histogram: 8 0 0 0 0 0 0 0 0 0

Total # of neighbors = 1424
Ave neighs/atom = 178
Neighbor list builds = 0
Dangerous builds = 0
variable  natoms equal "count(all)"
variable xlength equal "lx"
variable  volume equal "vol"
variable  etotal equal "etotal"
variable    ecoh equal "pe/v_natoms"
print "${xlength}, ${volume}, ${etotal}, ${ecoh}" append lattice_cohesive_energy.txt screen no

next i
jump SELF loop

change_box all x scale 1.0025 y scale 1.0025 z scale 1.0025 remap
Changing box ...
  orthogonal box = (0.05014461 0.05519163 0.05519163) to (4.0978554 4.0928084 4.0928084)
  orthogonal box = (0.05014461 0.05014461 0.05519163) to (4.0978554 4.0978554 4.0928084)
  orthogonal box = (0.05014461 0.05014461 0.05014461) to (4.0978554 4.0978554 4.0978554)

run 1
WARNING: No fixes with time integration, atoms won't move (src/verlet.cpp:60)
Per MPI rank memory allocation (min/avg/max) = 8.559 | 8.559 | 8.559 Mbytes
   Step         PotEng         TotEng           Lx             Ly             Lz           Volume         Press           Pxx            Pyy            Pzz      
        19  -41.369955     -41.369955      4.0477108      4.0477108      4.0477108      66.317542      290348.95      290348.95      290348.95      290348.95    
        20  -41.369955     -41.369955      4.0477108      4.0477108      4.0477108      66.317542      290348.95      290348.95      290348.95      290348.95    
Loop time of 0.000176875 on 8 procs for 1 steps with 8 atoms

Performance: 488.481 ns/day, 0.049 hours/ns, 5653.710 timesteps/s, 45.230 katom-step/s
0.0% CPU use with 8 MPI tasks x 1 OpenMP threads

MPI task timing breakdown:
Section |  min time  |  avg time  |  max time  |%varavg| %total
---------------------------------------------------------------
Pair    | 0.000134   | 0.00013613 | 0.000138   |   0.0 | 76.96
Neigh   | 0          | 0          | 0          |   0.0 |  0.00
Comm    | 2e-05      | 2.2375e-05 | 2.5e-05    |   0.0 | 12.65
Output  | 1.1e-05    | 1.1375e-05 | 1.2e-05    |   0.0 |  6.43
Modify  | 0          | 2.5e-07    | 1e-06      |   0.0 |  0.14
Other   |            | 6.75e-06   |            |       |  3.82

Nlocal:              1 ave           1 max           1 min
Histogram: 8 0 0 0 0 0 0 0 0 0
Nghost:            511 ave         511 max         511 min
Histogram: 8 0 0 0 0 0 0 0 0 0
Neighs:             85 ave          85 max          85 min
Histogram: 8 0 0 0 0 0 0 0 0 0
FullNghs:          170 ave         170 max         170 min
Histogram: 8 0 0 0 0 0 0 0 0 0

Total # of neighbors = 1360
Ave neighs/atom = 170
Neighbor list builds = 0
Dangerous builds = 0
variable  natoms equal "count(all)"
variable xlength equal "lx"
variable  volume equal "vol"
variable  etotal equal "etotal"
variable    ecoh equal "pe/v_natoms"
print "${xlength}, ${volume}, ${etotal}, ${ecoh}" append lattice_cohesive_energy.txt screen no

next i
jump SELF loop

change_box all x scale 1.0025 y scale 1.0025 z scale 1.0025 remap
Changing box ...
  orthogonal box = (0.045084971 0.05014461 0.05014461) to (4.102915 4.0978554 4.0978554)
  orthogonal box = (0.045084971 0.045084971 0.05014461) to (4.102915 4.102915 4.0978554)
  orthogonal box = (0.045084971 0.045084971 0.045084971) to (4.102915 4.102915 4.102915)

run 1
WARNING: No fixes with time integration, atoms won't move (src/verlet.cpp:60)
Per MPI rank memory allocation (min/avg/max) = 8.559 | 8.559 | 8.559 Mbytes
   Step         PotEng         TotEng           Lx             Ly             Lz           Volume         Press           Pxx            Pyy            Pzz      
        20  -41.454956     -41.454956      4.0578301      4.0578301      4.0578301      66.816168      256127.61      256127.61      256127.61      256127.61    
        21  -41.454956     -41.454956      4.0578301      4.0578301      4.0578301      66.816168      256127.61      256127.61      256127.61      256127.61    
Loop time of 0.000167875 on 8 procs for 1 steps with 8 atoms

Performance: 514.669 ns/day, 0.047 hours/ns, 5956.813 timesteps/s, 47.655 katom-step/s
0.0% CPU use with 8 MPI tasks x 1 OpenMP threads

MPI task timing breakdown:
Section |  min time  |  avg time  |  max time  |%varavg| %total
---------------------------------------------------------------
Pair    | 0.000127   | 0.00012887 | 0.000131   |   0.0 | 76.77
Neigh   | 0          | 0          | 0          |   0.0 |  0.00
Comm    | 2.1e-05    | 2.3375e-05 | 2.6e-05    |   0.0 | 13.92
Output  | 1.1e-05    | 1.125e-05  | 1.2e-05    |   0.0 |  6.70
Modify  | 0          | 1.25e-07   | 1e-06      |   0.0 |  0.07
Other   |            | 4.25e-06   |            |       |  2.53

Nlocal:              1 ave           1 max           1 min
Histogram: 8 0 0 0 0 0 0 0 0 0
Nghost:            511 ave         511 max         511 min
Histogram: 8 0 0 0 0 0 0 0 0 0
Neighs:             85 ave          85 max          85 min
Histogram: 8 0 0 0 0 0 0 0 0 0
FullNghs:          170 ave         170 max         170 min
Histogram: 8 0 0 0 0 0 0 0 0 0

Total # of neighbors = 1360
Ave neighs/atom = 170
Neighbor list builds = 0
Dangerous builds = 0
variable  natoms equal "count(all)"
variable xlength equal "lx"
variable  volume equal "vol"
variable  etotal equal "etotal"
variable    ecoh equal "pe/v_natoms"
print "${xlength}, ${volume}, ${etotal}, ${ecoh}" append lattice_cohesive_energy.txt screen no

next i
jump SELF loop

change_box all x scale 1.0025 y scale 1.0025 z scale 1.0025 remap
Changing box ...
  orthogonal box = (0.040012683 0.045084971 0.045084971) to (4.1079873 4.102915 4.102915)
  orthogonal box = (0.040012683 0.040012683 0.045084971) to (4.1079873 4.1079873 4.102915)
  orthogonal box = (0.040012683 0.040012683 0.040012683) to (4.1079873 4.1079873 4.1079873)

run 1
WARNING: No fixes with time integration, atoms won't move (src/verlet.cpp:60)
Per MPI rank memory allocation (min/avg/max) = 8.559 | 8.559 | 8.559 Mbytes
   Step         PotEng         TotEng           Lx             Ly             Lz           Volume         Press           Pxx            Pyy            Pzz      
        21  -41.530039     -41.530039      4.0679746      4.0679746      4.0679746      67.318543      223001.98      223001.98      223001.98      223001.98    
        22  -41.530039     -41.530039      4.0679746      4.0679746      4.0679746      67.318543      223001.98      223001.98      223001.98      223001.98    
Loop time of 0.000176375 on 8 procs for 1 steps with 8 atoms

Performance: 489.865 ns/day, 0.049 hours/ns, 5669.738 timesteps/s, 45.358 katom-step/s
0.0% CPU use with 8 MPI tasks x 1 OpenMP threads

MPI task timing breakdown:
Section |  min time  |  avg time  |  max time  |%varavg| %total
---------------------------------------------------------------
Pair    | 0.000135   | 0.000138   | 0.00014    |   0.0 | 78.24
Neigh   | 0          | 0          | 0          |   0.0 |  0.00
Comm    | 2.1e-05    | 2.3375e-05 | 2.6e-05    |   0.0 | 13.25
Output  | 1e-05      | 1.125e-05  | 1.2e-05    |   0.0 |  6.38
Modify  | 0          | 2.5e-07    | 1e-06      |   0.0 |  0.14
Other   |            | 3.5e-06    |            |       |  1.98

Nlocal:              1 ave           1 max           1 min
Histogram: 8 0 0 0 0 0 0 0 0 0
Nghost:            511 ave         511 max         511 min
Histogram: 8 0 0 0 0 0 0 0 0 0
Neighs:             85 ave          85 max          85 min
Histogram: 8 0 0 0 0 0 0 0 0 0
FullNghs:          170 ave         170 max         170 min
Histogram: 8 0 0 0 0 0 0 0 0 0

Total # of neighbors = 1360
Ave neighs/atom = 170
Neighbor list builds = 0
Dangerous builds = 0
variable  natoms equal "count(all)"
variable xlength equal "lx"
variable  volume equal "vol"
variable  etotal equal "etotal"
variable    ecoh equal "pe/v_natoms"
print "${xlength}, ${volume}, ${etotal}, ${ecoh}" append lattice_cohesive_energy.txt screen no

next i
jump SELF loop

change_box all x scale 1.0025 y scale 1.0025 z scale 1.0025 remap
Changing box ...
  orthogonal box = (0.034927715 0.040012683 0.040012683) to (4.1130723 4.1079873 4.1079873)
  orthogonal box = (0.034927715 0.034927715 0.040012683) to (4.1130723 4.1130723 4.1079873)
  orthogonal box = (0.034927715 0.034927715 0.034927715) to (4.1130723 4.1130723 4.1130723)

run 1
WARNING: No fixes with time integration, atoms won't move (src/verlet.cpp:60)
Per MPI rank memory allocation (min/avg/max) = 8.559 | 8.559 | 8.559 Mbytes
   Step         PotEng         TotEng           Lx             Ly             Lz           Volume         Press           Pxx            Pyy            Pzz      
        22  -41.595391     -41.595391      4.0781446      4.0781446      4.0781446      67.824695      190947.24      190947.24      190947.24      190947.24    
        23  -41.595391     -41.595391      4.0781446      4.0781446      4.0781446      67.824695      190947.24      190947.24      190947.24      190947.24    
Loop time of 0.000183875 on 8 procs for 1 steps with 8 atoms

Performance: 469.884 ns/day, 0.051 hours/ns, 5438.477 timesteps/s, 43.508 katom-step/s
1062.2% CPU use with 8 MPI tasks x 1 OpenMP threads

MPI task timing breakdown:
Section |  min time  |  avg time  |  max time  |%varavg| %total
---------------------------------------------------------------
Pair    | 0.000138   | 0.0001425  | 0.000148   |   0.0 | 77.50
Neigh   | 0          | 0          | 0          |   0.0 |  0.00
Comm    | 2e-05      | 2.6125e-05 | 3e-05      |   0.0 | 14.21
Output  | 1.1e-05    | 1.1125e-05 | 1.2e-05    |   0.0 |  6.05
Modify  | 0          | 0          | 0          |   0.0 |  0.00
Other   |            | 4.125e-06  |            |       |  2.24

Nlocal:              1 ave           1 max           1 min
Histogram: 8 0 0 0 0 0 0 0 0 0
Nghost:            511 ave         511 max         511 min
Histogram: 8 0 0 0 0 0 0 0 0 0
Neighs:             85 ave          85 max          85 min
Histogram: 8 0 0 0 0 0 0 0 0 0
FullNghs:          170 ave         170 max         170 min
Histogram: 8 0 0 0 0 0 0 0 0 0

Total # of neighbors = 1360
Ave neighs/atom = 170
Neighbor list builds = 0
Dangerous builds = 0
variable  natoms equal "count(all)"
variable xlength equal "lx"
variable  volume equal "vol"
variable  etotal equal "etotal"
variable    ecoh equal "pe/v_natoms"
print "${xlength}, ${volume}, ${etotal}, ${ecoh}" append lattice_cohesive_energy.txt screen no

next i
jump SELF loop

change_box all x scale 1.0025 y scale 1.0025 z scale 1.0025 remap
Changing box ...
  orthogonal box = (0.029830034 0.034927715 0.034927715) to (4.11817 4.1130723 4.1130723)
  orthogonal box = (0.029830034 0.029830034 0.034927715) to (4.11817 4.11817 4.1130723)
  orthogonal box = (0.029830034 0.029830034 0.029830034) to (4.11817 4.11817 4.11817)

run 1
WARNING: No fixes with time integration, atoms won't move (src/verlet.cpp:60)
Per MPI rank memory allocation (min/avg/max) = 8.559 | 8.559 | 8.559 Mbytes
   Step         PotEng         TotEng           Lx             Ly             Lz           Volume         Press           Pxx            Pyy            Pzz      
        23  -41.6512       -41.6512        4.0883399      4.0883399      4.0883399      68.334653      159939.04      159939.04      159939.04      159939.04    
        24  -41.6512       -41.6512        4.0883399      4.0883399      4.0883399      68.334653      159939.04      159939.04      159939.04      159939.04    
Loop time of 0.000225 on 8 procs for 1 steps with 8 atoms

Performance: 384.000 ns/day, 0.063 hours/ns, 4444.444 timesteps/s, 35.556 katom-step/s
0.0% CPU use with 8 MPI tasks x 1 OpenMP threads

MPI task timing breakdown:
Section |  min time  |  avg time  |  max time  |%varavg| %total
---------------------------------------------------------------
Pair    | 0.000186   | 0.00018713 | 0.000189   |   0.0 | 83.17
Neigh   | 0          | 0          | 0          |   0.0 |  0.00
Comm    | 2.1e-05    | 2.2625e-05 | 2.3e-05    |   0.0 | 10.06
Output  | 1.1e-05    | 1.1125e-05 | 1.2e-05    |   0.0 |  4.94
Modify  | 0          | 0          | 0          |   0.0 |  0.00
Other   |            | 4.125e-06  |            |       |  1.83

Nlocal:              1 ave           1 max           1 min
Histogram: 8 0 0 0 0 0 0 0 0 0
Nghost:            511 ave         511 max         511 min
Histogram: 8 0 0 0 0 0 0 0 0 0
Neighs:             85 ave          85 max          85 min
Histogram: 8 0 0 0 0 0 0 0 0 0
FullNghs:          170 ave         170 max         170 min
Histogram: 8 0 0 0 0 0 0 0 0 0

Total # of neighbors = 1360
Ave neighs/atom = 170
Neighbor list builds = 0
Dangerous builds = 0
variable  natoms equal "count(all)"
variable xlength equal "lx"
variable  volume equal "vol"
variable  etotal equal "etotal"
variable    ecoh equal "pe/v_natoms"
print "${xlength}, ${volume}, ${etotal}, ${ecoh}" append lattice_cohesive_energy.txt screen no

next i
jump SELF loop

change_box all x scale 1.0025 y scale 1.0025 z scale 1.0025 remap
Changing box ...
  orthogonal box = (0.02471961 0.029830034 0.029830034) to (4.1232804 4.11817 4.11817)
  orthogonal box = (0.02471961 0.02471961 0.029830034) to (4.1232804 4.1232804 4.11817)
  orthogonal box = (0.02471961 0.02471961 0.02471961) to (4.1232804 4.1232804 4.1232804)

run 1
WARNING: No fixes with time integration, atoms won't move (src/verlet.cpp:60)
Per MPI rank memory allocation (min/avg/max) = 8.559 | 8.559 | 8.559 Mbytes
   Step         PotEng         TotEng           Lx             Ly             Lz           Volume         Press           Pxx            Pyy            Pzz      
        24  -41.697649     -41.697649      4.0985608      4.0985608      4.0985608      68.848446      129953.43      129953.43      129953.43      129953.43    
        25  -41.697649     -41.697649      4.0985608      4.0985608      4.0985608      68.848446      129953.43      129953.43      129953.43      129953.43    
Loop time of 0.000168 on 8 procs for 1 steps with 8 atoms

Performance: 514.286 ns/day, 0.047 hours/ns, 5952.381 timesteps/s, 47.619 katom-step/s
0.0% CPU use with 8 MPI tasks x 1 OpenMP threads

MPI task timing breakdown:
Section |  min time  |  avg time  |  max time  |%varavg| %total
---------------------------------------------------------------
Pair    | 0.000128   | 0.00013012 | 0.000134   |   0.0 | 77.46
Neigh   | 0          | 0          | 0          |   0.0 |  0.00
Comm    | 2e-05      | 2.375e-05  | 2.6e-05    |   0.0 | 14.14
Output  | 1e-05      | 1.075e-05  | 1.1e-05    |   0.0 |  6.40
Modify  | 0          | 0          | 0          |   0.0 |  0.00
Other   |            | 3.375e-06  |            |       |  2.01

Nlocal:              1 ave           1 max           1 min
Histogram: 8 0 0 0 0 0 0 0 0 0
Nghost:            511 ave         511 max         511 min
Histogram: 8 0 0 0 0 0 0 0 0 0
Neighs:             85 ave          85 max          85 min
Histogram: 8 0 0 0 0 0 0 0 0 0
FullNghs:          170 ave         170 max         170 min
Histogram: 8 0 0 0 0 0 0 0 0 0

Total # of neighbors = 1360
Ave neighs/atom = 170
Neighbor list builds = 0
Dangerous builds = 0
variable  natoms equal "count(all)"
variable xlength equal "lx"
variable  volume equal "vol"
variable  etotal equal "etotal"
variable    ecoh equal "pe/v_natoms"
print "${xlength}, ${volume}, ${etotal}, ${ecoh}" append lattice_cohesive_energy.txt screen no

next i
jump SELF loop

change_box all x scale 1.0025 y scale 1.0025 z scale 1.0025 remap
Changing box ...
  orthogonal box = (0.019596409 0.02471961 0.02471961) to (4.1284036 4.1232804 4.1232804)
  orthogonal box = (0.019596409 0.019596409 0.02471961) to (4.1284036 4.1284036 4.1232804)
  orthogonal box = (0.019596409 0.019596409 0.019596409) to (4.1284036 4.1284036 4.1284036)

run 1
WARNING: No fixes with time integration, atoms won't move (src/verlet.cpp:60)
Per MPI rank memory allocation (min/avg/max) = 8.559 | 8.559 | 8.559 Mbytes
   Step         PotEng         TotEng           Lx             Ly             Lz           Volume         Press           Pxx            Pyy            Pzz      
        25  -41.734921     -41.734921      4.1088072      4.1088072      4.1088072      69.366101      100966.91      100966.91      100966.91      100966.91    
        26  -41.734921     -41.734921      4.1088072      4.1088072      4.1088072      69.366101      100966.91      100966.91      100966.91      100966.91    
Loop time of 0.000160125 on 8 procs for 1 steps with 8 atoms

Performance: 539.578 ns/day, 0.044 hours/ns, 6245.121 timesteps/s, 49.961 katom-step/s
0.0% CPU use with 8 MPI tasks x 1 OpenMP threads

MPI task timing breakdown:
Section |  min time  |  avg time  |  max time  |%varavg| %total
---------------------------------------------------------------
Pair    | 0.00012    | 0.00012213 | 0.000124   |   0.0 | 76.27
Neigh   | 0          | 0          | 0          |   0.0 |  0.00
Comm    | 2e-05      | 2.2125e-05 | 2.5e-05    |   0.0 | 13.82
Output  | 1.1e-05    | 1.175e-05  | 1.3e-05    |   0.0 |  7.34
Modify  | 0          | 1.25e-07   | 1e-06      |   0.0 |  0.08
Other   |            | 4e-06      |            |       |  2.50

Nlocal:              1 ave           1 max           1 min
Histogram: 8 0 0 0 0 0 0 0 0 0
Nghost:            511 ave         511 max         511 min
Histogram: 8 0 0 0 0 0 0 0 0 0
Neighs:             85 ave          85 max          85 min
Histogram: 8 0 0 0 0 0 0 0 0 0
FullNghs:          170 ave         170 max         170 min
Histogram: 8 0 0 0 0 0 0 0 0 0

Total # of neighbors = 1360
Ave neighs/atom = 170
Neighbor list builds = 0
Dangerous builds = 0
variable  natoms equal "count(all)"
variable xlength equal "lx"
variable  volume equal "vol"
variable  etotal equal "etotal"
variable    ecoh equal "pe/v_natoms"
print "${xlength}, ${volume}, ${etotal}, ${ecoh}" append lattice_cohesive_energy.txt screen no

next i
jump SELF loop

change_box all x scale 1.0025 y scale 1.0025 z scale 1.0025 remap
Changing box ...
  orthogonal box = (0.0144604 0.019596409 0.019596409) to (4.1335396 4.1284036 4.1284036)
  orthogonal box = (0.0144604 0.0144604 0.019596409) to (4.1335396 4.1335396 4.1284036)
  orthogonal box = (0.0144604 0.0144604 0.0144604) to (4.1335396 4.1335396 4.1335396)

run 1
WARNING: No fixes with time integration, atoms won't move (src/verlet.cpp:60)
Per MPI rank memory allocation (min/avg/max) = 8.559 | 8.559 | 8.559 Mbytes
   Step         PotEng         TotEng           Lx             Ly             Lz           Volume         Press           Pxx            Pyy            Pzz      
        26  -41.763197     -41.763197      4.1190792      4.1190792      4.1190792      69.887648      72956.405      72956.405      72956.405      72956.405    
        27  -41.763197     -41.763197      4.1190792      4.1190792      4.1190792      69.887648      72956.405      72956.405      72956.405      72956.405    
Loop time of 0.000170875 on 8 procs for 1 steps with 8 atoms

Performance: 505.633 ns/day, 0.047 hours/ns, 5852.231 timesteps/s, 46.818 katom-step/s
0.0% CPU use with 8 MPI tasks x 1 OpenMP threads

MPI task timing breakdown:
Section |  min time  |  avg time  |  max time  |%varavg| %total
---------------------------------------------------------------
Pair    | 0.00013    | 0.0001305  | 0.000132   |   0.0 | 76.37
Neigh   | 0          | 0          | 0          |   0.0 |  0.00
Comm    | 2.3e-05    | 2.4375e-05 | 2.5e-05    |   0.0 | 14.26
Output  | 1.1e-05    | 1.15e-05   | 1.2e-05    |   0.0 |  6.73
Modify  | 0          | 1.25e-07   | 1e-06      |   0.0 |  0.07
Other   |            | 4.375e-06  |            |       |  2.56

Nlocal:              1 ave           1 max           1 min
Histogram: 8 0 0 0 0 0 0 0 0 0
Nghost:            511 ave         511 max         511 min
Histogram: 8 0 0 0 0 0 0 0 0 0
Neighs:             85 ave          85 max          85 min
Histogram: 8 0 0 0 0 0 0 0 0 0
FullNghs:          170 ave         170 max         170 min
Histogram: 8 0 0 0 0 0 0 0 0 0

Total # of neighbors = 1360
Ave neighs/atom = 170
Neighbor list builds = 0
Dangerous builds = 0
variable  natoms equal "count(all)"
variable xlength equal "lx"
variable  volume equal "vol"
variable  etotal equal "etotal"
variable    ecoh equal "pe/v_natoms"
print "${xlength}, ${volume}, ${etotal}, ${ecoh}" append lattice_cohesive_energy.txt screen no

next i
jump SELF loop

change_box all x scale 1.0025 y scale 1.0025 z scale 1.0025 remap
Changing box ...
  orthogonal box = (0.0093115506 0.0144604 0.0144604) to (4.1386884 4.1335396 4.1335396)
  orthogonal box = (0.0093115506 0.0093115506 0.0144604) to (4.1386884 4.1386884 4.1335396)
  orthogonal box = (0.0093115506 0.0093115506 0.0093115506) to (4.1386884 4.1386884 4.1386884)

run 1
WARNING: No fixes with time integration, atoms won't move (src/verlet.cpp:60)
Per MPI rank memory allocation (min/avg/max) = 8.559 | 8.559 | 8.559 Mbytes
   Step         PotEng         TotEng           Lx             Ly             Lz           Volume         Press           Pxx            Pyy            Pzz      
        27  -41.782656     -41.782656      4.1293769      4.1293769      4.1293769      70.413117      45899.243      45899.243      45899.243      45899.243    
        28  -41.782656     -41.782656      4.1293769      4.1293769      4.1293769      70.413117      45899.243      45899.243      45899.243      45899.243    
Loop time of 0.00034775 on 8 procs for 1 steps with 8 atoms

Performance: 248.454 ns/day, 0.097 hours/ns, 2875.629 timesteps/s, 23.005 katom-step/s
0.0% CPU use with 8 MPI tasks x 1 OpenMP threads

MPI task timing breakdown:
Section |  min time  |  avg time  |  max time  |%varavg| %total
---------------------------------------------------------------
Pair    | 0.000194   | 0.00027775 | 0.000306   |   0.0 | 79.87
Neigh   | 0          | 0          | 0          |   0.0 |  0.00
Comm    | 2.3e-05    | 5.225e-05  | 0.000137   |   0.0 | 15.03
Output  | 1.1e-05    | 1.1625e-05 | 1.3e-05    |   0.0 |  3.34
Modify  | 0          | 6.25e-07   | 2e-06      |   0.0 |  0.18
Other   |            | 5.5e-06    |            |       |  1.58

Nlocal:              1 ave           1 max           1 min
Histogram: 8 0 0 0 0 0 0 0 0 0
Nghost:            511 ave         511 max         511 min
Histogram: 8 0 0 0 0 0 0 0 0 0
Neighs:             85 ave          85 max          85 min
Histogram: 8 0 0 0 0 0 0 0 0 0
FullNghs:          170 ave         170 max         170 min
Histogram: 8 0 0 0 0 0 0 0 0 0

Total # of neighbors = 1360
Ave neighs/atom = 170
Neighbor list builds = 0
Dangerous builds = 0
variable  natoms equal "count(all)"
variable xlength equal "lx"
variable  volume equal "vol"
variable  etotal equal "etotal"
variable    ecoh equal "pe/v_natoms"
print "${xlength}, ${volume}, ${etotal}, ${ecoh}" append lattice_cohesive_energy.txt screen no

next i
jump SELF loop

change_box all x scale 1.0025 y scale 1.0025 z scale 1.0025 remap
Changing box ...
  orthogonal box = (0.0041498295 0.0093115506 0.0093115506) to (4.1438502 4.1386884 4.1386884)
  orthogonal box = (0.0041498295 0.0041498295 0.0093115506) to (4.1438502 4.1438502 4.1386884)
  orthogonal box = (0.0041498295 0.0041498295 0.0041498295) to (4.1438502 4.1438502 4.1438502)

run 1
WARNING: No fixes with time integration, atoms won't move (src/verlet.cpp:60)
Per MPI rank memory allocation (min/avg/max) = 8.559 | 8.559 | 8.559 Mbytes
   Step         PotEng         TotEng           Lx             Ly             Lz           Volume         Press           Pxx            Pyy            Pzz      
        28  -41.793476     -41.793476      4.1397003      4.1397003      4.1397003      70.942537      19773.169      19773.169      19773.169      19773.169    
        29  -41.793476     -41.793476      4.1397003      4.1397003      4.1397003      70.942537      19773.169      19773.169      19773.169      19773.169    
Loop time of 0.00016025 on 8 procs for 1 steps with 8 atoms

Performance: 539.158 ns/day, 0.045 hours/ns, 6240.250 timesteps/s, 49.922 katom-step/s
0.0% CPU use with 8 MPI tasks x 1 OpenMP threads

MPI task timing breakdown:
Section |  min time  |  avg time  |  max time  |%varavg| %total
---------------------------------------------------------------
Pair    | 0.000123   | 0.00012438 | 0.000125   |   0.0 | 77.61
Neigh   | 0          | 0          | 0          |   0.0 |  0.00
Comm    | 2e-05      | 2.125e-05  | 2.2e-05    |   0.0 | 13.26
Output  | 1e-05      | 1.075e-05  | 1.1e-05    |   0.0 |  6.71
Modify  | 0          | 2.5e-07    | 1e-06      |   0.0 |  0.16
Other   |            | 3.625e-06  |            |       |  2.26

Nlocal:              1 ave           1 max           1 min
Histogram: 8 0 0 0 0 0 0 0 0 0
Nghost:            511 ave         511 max         511 min
Histogram: 8 0 0 0 0 0 0 0 0 0
Neighs:             85 ave          85 max          85 min
Histogram: 8 0 0 0 0 0 0 0 0 0
FullNghs:          170 ave         170 max         170 min
Histogram: 8 0 0 0 0 0 0 0 0 0

Total # of neighbors = 1360
Ave neighs/atom = 170
Neighbor list builds = 0
Dangerous builds = 0
variable  natoms equal "count(all)"
variable xlength equal "lx"
variable  volume equal "vol"
variable  etotal equal "etotal"
variable    ecoh equal "pe/v_natoms"
print "${xlength}, ${volume}, ${etotal}, ${ecoh}" append lattice_cohesive_energy.txt screen no

next i
jump SELF loop

change_box all x scale 1.0025 y scale 1.0025 z scale 1.0025 remap
Changing box ...
  orthogonal box = (-0.0010247959 0.0041498295 0.0041498295) to (4.1490248 4.1438502 4.1438502)
  orthogonal box = (-0.0010247959 -0.0010247959 0.0041498295) to (4.1490248 4.1490248 4.1438502)
  orthogonal box = (-0.0010247959 -0.0010247959 -0.0010247959) to (4.1490248 4.1490248 4.1490248)

run 1
WARNING: No fixes with time integration, atoms won't move (src/verlet.cpp:60)
Per MPI rank memory allocation (min/avg/max) = 8.559 | 8.559 | 8.559 Mbytes
   Step         PotEng         TotEng           Lx             Ly             Lz           Volume         Press           Pxx            Pyy            Pzz      
        29  -41.795831     -41.795831      4.1500496      4.1500496      4.1500496      71.475937     -5443.6688     -5443.6688     -5443.6688     -5443.6688    
        30  -41.795831     -41.795831      4.1500496      4.1500496      4.1500496      71.475937     -5443.6688     -5443.6688     -5443.6688     -5443.6688    
Loop time of 0.00016125 on 8 procs for 1 steps with 8 atoms

Performance: 535.814 ns/day, 0.045 hours/ns, 6201.550 timesteps/s, 49.612 katom-step/s
0.0% CPU use with 8 MPI tasks x 1 OpenMP threads

MPI task timing breakdown:
Section |  min time  |  avg time  |  max time  |%varavg| %total
---------------------------------------------------------------
Pair    | 0.000121   | 0.00012325 | 0.000126   |   0.0 | 76.43
Neigh   | 0          | 0          | 0          |   0.0 |  0.00
Comm    | 2.1e-05    | 2.2875e-05 | 2.5e-05    |   0.0 | 14.19
Output  | 1e-05      | 1.0875e-05 | 1.1e-05    |   0.0 |  6.74
Modify  | 0          | 1.25e-07   | 1e-06      |   0.0 |  0.08
Other   |            | 4.125e-06  |            |       |  2.56

Nlocal:              1 ave           1 max           1 min
Histogram: 8 0 0 0 0 0 0 0 0 0
Nghost:            511 ave         511 max         511 min
Histogram: 8 0 0 0 0 0 0 0 0 0
Neighs:             85 ave          85 max          85 min
Histogram: 8 0 0 0 0 0 0 0 0 0
FullNghs:          170 ave         170 max         170 min
Histogram: 8 0 0 0 0 0 0 0 0 0

Total # of neighbors = 1360
Ave neighs/atom = 170
Neighbor list builds = 0
Dangerous builds = 0
variable  natoms equal "count(all)"
variable xlength equal "lx"
variable  volume equal "vol"
variable  etotal equal "etotal"
variable    ecoh equal "pe/v_natoms"
print "${xlength}, ${volume}, ${etotal}, ${ecoh}" append lattice_cohesive_energy.txt screen no

next i
jump SELF loop

change_box all x scale 1.0025 y scale 1.0025 z scale 1.0025 remap
Changing box ...
  orthogonal box = (-0.0062123579 -0.0010247959 -0.0010247959) to (4.1542124 4.1490248 4.1490248)
  orthogonal box = (-0.0062123579 -0.0062123579 -0.0010247959) to (4.1542124 4.1542124 4.1490248)
  orthogonal box = (-0.0062123579 -0.0062123579 -0.0062123579) to (4.1542124 4.1542124 4.1542124)

run 1
WARNING: No fixes with time integration, atoms won't move (src/verlet.cpp:60)
Per MPI rank memory allocation (min/avg/max) = 8.559 | 8.559 | 8.559 Mbytes
   Step         PotEng         TotEng           Lx             Ly             Lz           Volume         Press           Pxx            Pyy            Pzz      
        30  -41.789895     -41.789895      4.1604247      4.1604247      4.1604247      72.013348     -29772.722     -29772.722     -29772.722     -29772.722    
        31  -41.789895     -41.789895      4.1604247      4.1604247      4.1604247      72.013348     -29772.722     -29772.722     -29772.722     -29772.722    
Loop time of 0.000159375 on 8 procs for 1 steps with 8 atoms

Performance: 542.118 ns/day, 0.044 hours/ns, 6274.510 timesteps/s, 50.196 katom-step/s
0.0% CPU use with 8 MPI tasks x 1 OpenMP threads

MPI task timing breakdown:
Section |  min time  |  avg time  |  max time  |%varavg| %total
---------------------------------------------------------------
Pair    | 0.000122   | 0.00012262 | 0.000123   |   0.0 | 76.94
Neigh   | 0          | 0          | 0          |   0.0 |  0.00
Comm    | 2e-05      | 2.15e-05   | 2.2e-05    |   0.0 | 13.49
Output  | 1.1e-05    | 1.1125e-05 | 1.2e-05    |   0.0 |  6.98
Modify  | 0          | 1.25e-07   | 1e-06      |   0.0 |  0.08
Other   |            | 4e-06      |            |       |  2.51

Nlocal:              1 ave           1 max           1 min
Histogram: 8 0 0 0 0 0 0 0 0 0
Nghost:            511 ave         511 max         511 min
Histogram: 8 0 0 0 0 0 0 0 0 0
Neighs:             85 ave          85 max          85 min
Histogram: 8 0 0 0 0 0 0 0 0 0
FullNghs:          170 ave         170 max         170 min
Histogram: 8 0 0 0 0 0 0 0 0 0

Total # of neighbors = 1360
Ave neighs/atom = 170
Neighbor list builds = 0
Dangerous builds = 0
variable  natoms equal "count(all)"
variable xlength equal "lx"
variable  volume equal "vol"
variable  etotal equal "etotal"
variable    ecoh equal "pe/v_natoms"
print "${xlength}, ${volume}, ${etotal}, ${ecoh}" append lattice_cohesive_energy.txt screen no

next i
jump SELF loop

change_box all x scale 1.0025 y scale 1.0025 z scale 1.0025 remap
Changing box ...
  orthogonal box = (-0.011412889 -0.0062123579 -0.0062123579) to (4.1594129 4.1542124 4.1542124)
  orthogonal box = (-0.011412889 -0.011412889 -0.0062123579) to (4.1594129 4.1594129 4.1542124)
  orthogonal box = (-0.011412889 -0.011412889 -0.011412889) to (4.1594129 4.1594129 4.1594129)

run 1
WARNING: No fixes with time integration, atoms won't move (src/verlet.cpp:60)
Per MPI rank memory allocation (min/avg/max) = 8.559 | 8.559 | 8.559 Mbytes
   Step         PotEng         TotEng           Lx             Ly             Lz           Volume         Press           Pxx            Pyy            Pzz      
        31  -41.77584      -41.77584       4.1708258      4.1708258      4.1708258      72.5548       -53235.051     -53235.051     -53235.051     -53235.051    
        32  -41.77584      -41.77584       4.1708258      4.1708258      4.1708258      72.5548       -53235.051     -53235.051     -53235.051     -53235.051    
Loop time of 0.000169125 on 8 procs for 1 steps with 8 atoms

Performance: 510.865 ns/day, 0.047 hours/ns, 5912.786 timesteps/s, 47.302 katom-step/s
0.0% CPU use with 8 MPI tasks x 1 OpenMP threads

MPI task timing breakdown:
Section |  min time  |  avg time  |  max time  |%varavg| %total
---------------------------------------------------------------
Pair    | 0.000121   | 0.00012312 | 0.000125   |   0.0 | 72.80
Neigh   | 0          | 0          | 0          |   0.0 |  0.00
Comm    | 2e-05      | 2.1625e-05 | 2.3e-05    |   0.0 | 12.79
Output  | 1e-05      | 1.15e-05   | 2e-05      |   0.0 |  6.80
Modify  | 0          | 6.25e-07   | 1e-06      |   0.0 |  0.37
Other   |            | 1.225e-05  |            |       |  7.24

Nlocal:              1 ave           1 max           1 min
Histogram: 8 0 0 0 0 0 0 0 0 0
Nghost:            511 ave         511 max         511 min
Histogram: 8 0 0 0 0 0 0 0 0 0
Neighs:             85 ave          85 max          85 min
Histogram: 8 0 0 0 0 0 0 0 0 0
FullNghs:          170 ave         170 max         170 min
Histogram: 8 0 0 0 0 0 0 0 0 0

Total # of neighbors = 1360
Ave neighs/atom = 170
Neighbor list builds = 0
Dangerous builds = 0
variable  natoms equal "count(all)"
variable xlength equal "lx"
variable  volume equal "vol"
variable  etotal equal "etotal"
variable    ecoh equal "pe/v_natoms"
print "${xlength}, ${volume}, ${etotal}, ${ecoh}" append lattice_cohesive_energy.txt screen no

next i
jump SELF loop

change_box all x scale 1.0025 y scale 1.0025 z scale 1.0025 remap
Changing box ...
  orthogonal box = (-0.016626421 -0.011412889 -0.011412889) to (4.1646264 4.1594129 4.1594129)
  orthogonal box = (-0.016626421 -0.016626421 -0.011412889) to (4.1646264 4.1646264 4.1594129)
  orthogonal box = (-0.016626421 -0.016626421 -0.016626421) to (4.1646264 4.1646264 4.1646264)

run 1
WARNING: No fixes with time integration, atoms won't move (src/verlet.cpp:60)
Per MPI rank memory allocation (min/avg/max) = 8.559 | 8.559 | 8.559 Mbytes
   Step         PotEng         TotEng           Lx             Ly             Lz           Volume         Press           Pxx            Pyy            Pzz      
        32  -41.753835     -41.753835      4.1812528      4.1812528      4.1812528      73.100322     -75851.328     -75851.328     -75851.328     -75851.328    
        33  -41.753835     -41.753835      4.1812528      4.1812528      4.1812528      73.100322     -75851.328     -75851.328     -75851.328     -75851.328    
Loop time of 0.000350375 on 8 procs for 1 steps with 8 atoms

Performance: 246.593 ns/day, 0.097 hours/ns, 2854.085 timesteps/s, 22.833 katom-step/s
0.0% CPU use with 8 MPI tasks x 1 OpenMP threads

MPI task timing breakdown:
Section |  min time  |  avg time  |  max time  |%varavg| %total
---------------------------------------------------------------
Pair    | 0.000213   | 0.00025037 | 0.000291   |   0.0 | 71.46
Neigh   | 0          | 0          | 0          |   0.0 |  0.00
Comm    | 3e-05      | 6.8e-05    | 0.000108   |   0.0 | 19.41
Output  | 1.8e-05    | 2.1125e-05 | 2.4e-05    |   0.0 |  6.03
Modify  | 0          | 5e-07      | 1e-06      |   0.0 |  0.14
Other   |            | 1.038e-05  |            |       |  2.96

Nlocal:              1 ave           1 max           1 min
Histogram: 8 0 0 0 0 0 0 0 0 0
Nghost:            511 ave         511 max         511 min
Histogram: 8 0 0 0 0 0 0 0 0 0
Neighs:             85 ave          85 max          85 min
Histogram: 8 0 0 0 0 0 0 0 0 0
FullNghs:          170 ave         170 max         170 min
Histogram: 8 0 0 0 0 0 0 0 0 0

Total # of neighbors = 1360
Ave neighs/atom = 170
Neighbor list builds = 0
Dangerous builds = 0
variable  natoms equal "count(all)"
variable xlength equal "lx"
variable  volume equal "vol"
variable  etotal equal "etotal"
variable    ecoh equal "pe/v_natoms"
print "${xlength}, ${volume}, ${etotal}, ${ecoh}" append lattice_cohesive_energy.txt screen no

next i
jump SELF loop

change_box all x scale 1.0025 y scale 1.0025 z scale 1.0025 remap
Changing box ...
  orthogonal box = (-0.021852987 -0.016626421 -0.016626421) to (4.169853 4.1646264 4.1646264)
  orthogonal box = (-0.021852987 -0.021852987 -0.016626421) to (4.169853 4.169853 4.1646264)
  orthogonal box = (-0.021852987 -0.021852987 -0.021852987) to (4.169853 4.169853 4.169853)

run 1
WARNING: No fixes with time integration, atoms won't move (src/verlet.cpp:60)
Per MPI rank memory allocation (min/avg/max) = 8.559 | 8.559 | 8.559 Mbytes
[...]
Pair    | 0.000204   | 0.00024538 | 0.000277   |   0.0 | 63.67
Neigh   | 0          | 0          | 0          |   0.0 |  0.00
Comm    | 7.9e-05    | 0.0001085  | 0.000148   |   0.0 | 28.15
Output  | 1.9e-05    | 2.1625e-05 | 2.4e-05    |   0.0 |  5.61
Modify  | 0          | 3.75e-07   | 1e-06      |   0.0 |  0.10
Other   |            | 9.5e-06    |            |       |  2.47

Nlocal:              1 ave           1 max           1 min
Histogram: 8 0 0 0 0 0 0 0 0 0
Nghost:            511 ave         511 max         511 min
Histogram: 8 0 0 0 0 0 0 0 0 0
Neighs:             73 ave          73 max          73 min
Histogram: 8 0 0 0 0 0 0 0 0 0
FullNghs:          146 ave         146 max         146 min
Histogram: 8 0 0 0 0 0 0 0 0 0

Total # of neighbors = 1168
Ave neighs/atom = 146
Neighbor list builds = 0
Dangerous builds = 0
variable  natoms equal "count(all)"
variable xlength equal "lx"
variable  volume equal "vol"
variable  etotal equal "etotal"
variable    ecoh equal "pe/v_natoms"
print "${xlength}, ${volume}, ${etotal}, ${ecoh}" append lattice_cohesive_energy.txt screen no

next i
jump SELF loop

change_box all x scale 1.0025 y scale 1.0025 z scale 1.0025 remap
Changing box ...
  orthogonal box = (-0.096411861 -0.090999362 -0.090999362) to (4.2444119 4.2389994 4.2389994)
  orthogonal box = (-0.096411861 -0.096411861 -0.090999362) to (4.2444119 4.2444119 4.2389994)
  orthogonal box = (-0.096411861 -0.096411861 -0.096411861) to (4.2444119 4.2444119 4.2444119)

run 1
WARNING: No fixes with time integration, atoms won't move (src/verlet.cpp:60)
Per MPI rank memory allocation (min/avg/max) = 8.559 | 8.559 | 8.559 Mbytes
   Step         PotEng         TotEng           Lx             Ly             Lz           Volume         Press           Pxx            Pyy            Pzz      
        47  -40.579767     -40.579767      4.3408237      4.3408237      4.3408237      81.793059     -326504.43     -326504.43     -326504.43     -326504.43    
        48  -40.579767     -40.579767      4.3408237      4.3408237      4.3408237      81.793059     -326504.43     -326504.43     -326504.43     -326504.43    
Loop time of 0.00030975 on 8 procs for 1 steps with 8 atoms

Performance: 278.935 ns/day, 0.086 hours/ns, 3228.410 timesteps/s, 25.827 katom-step/s
0.0% CPU use with 8 MPI tasks x 1 OpenMP threads

MPI task timing breakdown:
Section |  min time  |  avg time  |  max time  |%varavg| %total
---------------------------------------------------------------
Pair    | 0.000196   | 0.00022438 | 0.00025    |   0.0 | 72.44
Neigh   | 0          | 0          | 0          |   0.0 |  0.00
Comm    | 3.3e-05    | 5.8125e-05 | 8.7e-05    |   0.0 | 18.77
Output  | 1.6e-05    | 1.875e-05  | 2.1e-05    |   0.0 |  6.05
Modify  | 0          | 2.5e-07    | 1e-06      |   0.0 |  0.08
Other   |            | 8.25e-06   |            |       |  2.66

Nlocal:              1 ave           1 max           1 min
Histogram: 8 0 0 0 0 0 0 0 0 0
Nghost:            511 ave         511 max         511 min
Histogram: 8 0 0 0 0 0 0 0 0 0
Neighs:             73 ave          73 max          73 min
Histogram: 8 0 0 0 0 0 0 0 0 0
FullNghs:          146 ave         146 max         146 min
Histogram: 8 0 0 0 0 0 0 0 0 0

Total # of neighbors = 1168
Ave neighs/atom = 146
Neighbor list builds = 0
Dangerous builds = 0
variable  natoms equal "count(all)"
variable xlength equal "lx"
variable  volume equal "vol"
variable  etotal equal "etotal"
variable    ecoh equal "pe/v_natoms"
print "${xlength}, ${volume}, ${etotal}, ${ecoh}" append lattice_cohesive_energy.txt screen no

next i
jump SELF loop

change_box all x scale 1.0025 y scale 1.0025 z scale 1.0025 remap
Changing box ...
  orthogonal box = (-0.10183789 -0.096411861 -0.096411861) to (4.2498379 4.2444119 4.2444119)
  orthogonal box = (-0.10183789 -0.10183789 -0.096411861) to (4.2498379 4.2498379 4.2444119)
  orthogonal box = (-0.10183789 -0.10183789 -0.10183789) to (4.2498379 4.2498379 4.2498379)

run 1
WARNING: No fixes with time integration, atoms won't move (src/verlet.cpp:60)
Per MPI rank memory allocation (min/avg/max) = 8.615 | 8.616 | 8.626 Mbytes
   Step         PotEng         TotEng           Lx             Ly             Lz           Volume         Press           Pxx            Pyy            Pzz      
        48  -40.452195     -40.452195      4.3516758      4.3516758      4.3516758      82.408042     -338100.19     -338100.19     -338100.19     -338100.19    
        49  -40.452195     -40.452195      4.3516758      4.3516758      4.3516758      82.408042     -338100.19     -338100.19     -338100.19     -338100.19    
Loop time of 0.0004155 on 8 procs for 1 steps with 8 atoms

Performance: 207.942 ns/day, 0.115 hours/ns, 2406.739 timesteps/s, 19.254 katom-step/s
0.0% CPU use with 8 MPI tasks x 1 OpenMP threads

MPI task timing breakdown:
Section |  min time  |  avg time  |  max time  |%varavg| %total
---------------------------------------------------------------
Pair    | 0.000301   | 0.00032325 | 0.000366   |   0.0 | 77.80
Neigh   | 0          | 0          | 0          |   0.0 |  0.00
Comm    | 1.3e-05    | 3.95e-05   | 8.2e-05    |   0.0 |  9.51
Output  | 1.5e-05    | 4.3875e-05 | 9e-05      |   0.0 | 10.56
Modify  | 0          | 1.25e-07   | 1e-06      |   0.0 |  0.03
Other   |            | 8.75e-06   |            |       |  2.11

Nlocal:              1 ave           8 max           0 min
Histogram: 7 0 0 0 0 0 0 0 0 1
Nghost:            511 ave         512 max         504 min
Histogram: 1 0 0 0 0 0 0 0 0 7
Neighs:             73 ave         584 max           0 min
Histogram: 7 0 0 0 0 0 0 0 0 1
FullNghs:          146 ave        1168 max           0 min
Histogram: 7 0 0 0 0 0 0 0 0 1

Total # of neighbors = 1168
Ave neighs/atom = 146
Neighbor list builds = 0
Dangerous builds = 0
variable  natoms equal "count(all)"
variable xlength equal "lx"
variable  volume equal "vol"
variable  etotal equal "etotal"
variable    ecoh equal "pe/v_natoms"
print "${xlength}, ${volume}, ${etotal}, ${ecoh}" append lattice_cohesive_energy.txt screen no

next i
jump SELF loop

change_box all x scale 1.0025 y scale 1.0025 z scale 1.0025 remap
Changing box ...
  orthogonal box = (-0.10727748 -0.10183789 -0.10183789) to (4.2552775 4.2498379 4.2498379)
  orthogonal box = (-0.10727748 -0.10727748 -0.10183789) to (4.2552775 4.2552775 4.2498379)
  orthogonal box = (-0.10727748 -0.10727748 -0.10727748) to (4.2552775 4.2552775 4.2552775)

run 1
WARNING: No fixes with time integration, atoms won't move (src/verlet.cpp:60)
Per MPI rank memory allocation (min/avg/max) = 8.615 | 8.616 | 8.626 Mbytes
   Step         PotEng         TotEng           Lx             Ly             Lz           Volume         Press           Pxx            Pyy            Pzz      
        49  -40.319286     -40.319286      4.362555       4.362555       4.362555       83.027648     -349147.26     -349147.26     -349147.26     -349147.26    
        50  -40.319286     -40.319286      4.362555       4.362555       4.362555       83.027648     -349147.26     -349147.26     -349147.26     -349147.26    
Loop time of 0.000398875 on 8 procs for 1 steps with 8 atoms

Performance: 216.609 ns/day, 0.111 hours/ns, 2507.051 timesteps/s, 20.056 katom-step/s
0.0% CPU use with 8 MPI tasks x 1 OpenMP threads

MPI task timing breakdown:
Section |  min time  |  avg time  |  max time  |%varavg| %total
---------------------------------------------------------------
Pair    | 0.000287   | 0.00030787 | 0.000351   |   0.0 | 77.19
Neigh   | 0          | 0          | 0          |   0.0 |  0.00
Comm    | 1.4e-05    | 3.95e-05   | 8.3e-05    |   0.0 |  9.90
Output  | 1.5e-05    | 4.3375e-05 | 8.8e-05    |   0.0 | 10.87
Modify  | 0          | 3.75e-07   | 1e-06      |   0.0 |  0.09
Other   |            | 7.75e-06   |            |       |  1.94

Nlocal:              1 ave           8 max           0 min
Histogram: 7 0 0 0 0 0 0 0 0 1
Nghost:            511 ave         512 max         504 min
Histogram: 1 0 0 0 0 0 0 0 0 7
Neighs:             73 ave         584 max           0 min
Histogram: 7 0 0 0 0 0 0 0 0 1
FullNghs:          146 ave        1168 max           0 min
Histogram: 7 0 0 0 0 0 0 0 0 1

Total # of neighbors = 1168
Ave neighs/atom = 146
Neighbor list builds = 0
Dangerous builds = 0
variable  natoms equal "count(all)"
variable xlength equal "lx"
variable  volume equal "vol"
variable  etotal equal "etotal"
variable    ecoh equal "pe/v_natoms"
print "${xlength}, ${volume}, ${etotal}, ${ecoh}" append lattice_cohesive_energy.txt screen no

next i
jump SELF loop

change_box all x scale 1.0025 y scale 1.0025 z scale 1.0025 remap
Changing box ...
  orthogonal box = (-0.11273068 -0.10727748 -0.10727748) to (4.2607307 4.2552775 4.2552775)
  orthogonal box = (-0.11273068 -0.11273068 -0.10727748) to (4.2607307 4.2607307 4.2552775)
  orthogonal box = (-0.11273068 -0.11273068 -0.11273068) to (4.2607307 4.2607307 4.2607307)

run 1
WARNING: No fixes with time integration, atoms won't move (src/verlet.cpp:60)
Per MPI rank memory allocation (min/avg/max) = 8.615 | 8.616 | 8.626 Mbytes
   Step         PotEng         TotEng           Lx             Ly             Lz           Volume         Press           Pxx            Pyy            Pzz      
        50  -40.181178     -40.181178      4.3734614      4.3734614      4.3734614      83.651914     -359660.22     -359660.22     -359660.22     -359660.22    
        51  -40.181178     -40.181178      4.3734614      4.3734614      4.3734614      83.651914     -359660.22     -359660.22     -359660.22     -359660.22    
Loop time of 0.000402875 on 8 procs for 1 steps with 8 atoms

Performance: 214.459 ns/day, 0.112 hours/ns, 2482.159 timesteps/s, 19.857 katom-step/s
0.0% CPU use with 8 MPI tasks x 1 OpenMP threads

MPI task timing breakdown:
Section |  min time  |  avg time  |  max time  |%varavg| %total
---------------------------------------------------------------
Pair    | 0.000291   | 0.00031463 | 0.000356   |   0.0 | 78.09
Neigh   | 0          | 0          | 0          |   0.0 |  0.00
Comm    | 1.4e-05    | 3.875e-05  | 8.1e-05    |   0.0 |  9.62
Output  | 1.5e-05    | 4.1625e-05 | 8.9e-05    |   0.0 | 10.33
Modify  | 0          | 2.5e-07    | 1e-06      |   0.0 |  0.06
Other   |            | 7.625e-06  |            |       |  1.89

Nlocal:              1 ave           8 max           0 min
Histogram: 7 0 0 0 0 0 0 0 0 1
Nghost:            511 ave         512 max         504 min
Histogram: 1 0 0 0 0 0 0 0 0 7
Neighs:             73 ave         584 max           0 min
Histogram: 7 0 0 0 0 0 0 0 0 1
FullNghs:          146 ave        1168 max           0 min
Histogram: 7 0 0 0 0 0 0 0 0 1

Total # of neighbors = 1168
Ave neighs/atom = 146
Neighbor list builds = 0
Dangerous builds = 0
variable  natoms equal "count(all)"
variable xlength equal "lx"
variable  volume equal "vol"
variable  etotal equal "etotal"
variable    ecoh equal "pe/v_natoms"
print "${xlength}, ${volume}, ${etotal}, ${ecoh}" append lattice_cohesive_energy.txt screen no

next i
jump SELF loop

change_box all x scale 1.0025 y scale 1.0025 z scale 1.0025 remap
Changing box ...
  orthogonal box = (-0.11819751 -0.11273068 -0.11273068) to (4.2661975 4.2607307 4.2607307)
  orthogonal box = (-0.11819751 -0.11819751 -0.11273068) to (4.2661975 4.2661975 4.2607307)
  orthogonal box = (-0.11819751 -0.11819751 -0.11819751) to (4.2661975 4.2661975 4.2661975)

run 1
WARNING: No fixes with time integration, atoms won't move (src/verlet.cpp:60)
Per MPI rank memory allocation (min/avg/max) = 8.615 | 8.616 | 8.626 Mbytes
   Step         PotEng         TotEng           Lx             Ly             Lz           Volume         Press           Pxx            Pyy            Pzz      
        51  -40.038007     -40.038007      4.384395       4.384395       4.384395       84.280873     -369653.38     -369653.38     -369653.38     -369653.38    
        52  -40.038007     -40.038007      4.384395       4.384395       4.384395       84.280873     -369653.38     -369653.38     -369653.38     -369653.38    
Loop time of 0.000401625 on 8 procs for 1 steps with 8 atoms

Performance: 215.126 ns/day, 0.112 hours/ns, 2489.885 timesteps/s, 19.919 katom-step/s
0.0% CPU use with 8 MPI tasks x 1 OpenMP threads

MPI task timing breakdown:
Section |  min time  |  avg time  |  max time  |%varavg| %total
---------------------------------------------------------------
Pair    | 0.000291   | 0.000313   | 0.000355   |   0.0 | 77.93
Neigh   | 0          | 0          | 0          |   0.0 |  0.00
Comm    | 1.5e-05    | 3.875e-05  | 8.1e-05    |   0.0 |  9.65
Output  | 1.5e-05    | 4.1625e-05 | 8.8e-05    |   0.0 | 10.36
Modify  | 0          | 1.25e-07   | 1e-06      |   0.0 |  0.03
Other   |            | 8.125e-06  |            |       |  2.02

Nlocal:              1 ave           8 max           0 min
Histogram: 7 0 0 0 0 0 0 0 0 1
Nghost:            511 ave         512 max         504 min
Histogram: 1 0 0 0 0 0 0 0 0 7
Neighs:             73 ave         584 max           0 min
Histogram: 7 0 0 0 0 0 0 0 0 1
FullNghs:          146 ave        1168 max           0 min
Histogram: 7 0 0 0 0 0 0 0 0 1

Total # of neighbors = 1168
Ave neighs/atom = 146
Neighbor list builds = 0
Dangerous builds = 0
variable  natoms equal "count(all)"
variable xlength equal "lx"
variable  volume equal "vol"
variable  etotal equal "etotal"
variable    ecoh equal "pe/v_natoms"
print "${xlength}, ${volume}, ${etotal}, ${ecoh}" append lattice_cohesive_energy.txt screen no

next i
jump SELF loop

change_box all x scale 1.0025 y scale 1.0025 z scale 1.0025 remap
Changing box ...
  orthogonal box = (-0.123678 -0.11819751 -0.11819751) to (4.271678 4.2661975 4.2661975)
  orthogonal box = (-0.123678 -0.123678 -0.11819751) to (4.271678 4.271678 4.2661975)
  orthogonal box = (-0.123678 -0.123678 -0.123678) to (4.271678 4.271678 4.271678)

run 1
WARNING: No fixes with time integration, atoms won't move (src/verlet.cpp:60)
Per MPI rank memory allocation (min/avg/max) = 8.615 | 8.616 | 8.626 Mbytes
   Step         PotEng         TotEng           Lx             Ly             Lz           Volume         Press           Pxx            Pyy            Pzz      
        52  -39.889908     -39.889908      4.395356       4.395356       4.395356       84.914561     -379140.78     -379140.78     -379140.78     -379140.78    
        53  -39.889908     -39.889908      4.395356       4.395356       4.395356       84.914561     -379140.78     -379140.78     -379140.78     -379140.78    
Loop time of 0.00040525 on 8 procs for 1 steps with 8 atoms

Performance: 213.202 ns/day, 0.113 hours/ns, 2467.613 timesteps/s, 19.741 katom-step/s
0.0% CPU use with 8 MPI tasks x 1 OpenMP threads

MPI task timing breakdown:
Section |  min time  |  avg time  |  max time  |%varavg| %total
---------------------------------------------------------------
Pair    | 0.000298   | 0.00032012 | 0.000359   |   0.0 | 78.99
Neigh   | 0          | 0          | 0          |   0.0 |  0.00
Comm    | 1.3e-05    | 3.7625e-05 | 7.8e-05    |   0.0 |  9.28
Output  | 1.5e-05    | 3.95e-05   | 8.5e-05    |   0.0 |  9.75
Modify  | 0          | 0          | 0          |   0.0 |  0.00
Other   |            | 8e-06      |            |       |  1.97

Nlocal:              1 ave           8 max           0 min
Histogram: 7 0 0 0 0 0 0 0 0 1
Nghost:            511 ave         512 max         504 min
Histogram: 1 0 0 0 0 0 0 0 0 7
Neighs:             73 ave         584 max           0 min
Histogram: 7 0 0 0 0 0 0 0 0 1
FullNghs:          146 ave        1168 max           0 min
Histogram: 7 0 0 0 0 0 0 0 0 1

Total # of neighbors = 1168
Ave neighs/atom = 146
Neighbor list builds = 0
Dangerous builds = 0
variable  natoms equal "count(all)"
variable xlength equal "lx"
variable  volume equal "vol"
variable  etotal equal "etotal"
variable    ecoh equal "pe/v_natoms"
print "${xlength}, ${volume}, ${etotal}, ${ecoh}" append lattice_cohesive_energy.txt screen no

next i
jump SELF loop

change_box all x scale 1.0025 y scale 1.0025 z scale 1.0025 remap
Changing box ...
  orthogonal box = (-0.12917219 -0.123678 -0.123678) to (4.2771722 4.271678 4.271678)
  orthogonal box = (-0.12917219 -0.12917219 -0.123678) to (4.2771722 4.2771722 4.271678)
  orthogonal box = (-0.12917219 -0.12917219 -0.12917219) to (4.2771722 4.2771722 4.2771722)

run 1
WARNING: No fixes with time integration, atoms won't move (src/verlet.cpp:60)
Per MPI rank memory allocation (min/avg/max) = 8.615 | 8.616 | 8.626 Mbytes
   Step         PotEng         TotEng           Lx             Ly             Lz           Volume         Press           Pxx            Pyy            Pzz      
        53  -39.737013     -39.737013      4.4063444      4.4063444      4.4063444      85.553014     -388136.14     -388136.14     -388136.14     -388136.14    
        54  -39.737013     -39.737013      4.4063444      4.4063444      4.4063444      85.553014     -388136.14     -388136.14     -388136.14     -388136.14    
Loop time of 0.000399375 on 8 procs for 1 steps with 8 atoms

Performance: 216.338 ns/day, 0.111 hours/ns, 2503.912 timesteps/s, 20.031 katom-step/s
0.0% CPU use with 8 MPI tasks x 1 OpenMP threads

MPI task timing breakdown:
Section |  min time  |  avg time  |  max time  |%varavg| %total
---------------------------------------------------------------
Pair    | 0.000283   | 0.00030488 | 0.000352   |   0.0 | 76.34
Neigh   | 0          | 0          | 0          |   0.0 |  0.00
Comm    | 1.5e-05    | 4.1125e-05 | 8.7e-05    |   0.0 | 10.30
Output  | 1.6e-05    | 4.6e-05    | 9.4e-05    |   0.0 | 11.52
Modify  | 0          | 0          | 0          |   0.0 |  0.00
Other   |            | 7.375e-06  |            |       |  1.85

Nlocal:              1 ave           8 max           0 min
Histogram: 7 0 0 0 0 0 0 0 0 1
Nghost:            511 ave         512 max         504 min
Histogram: 1 0 0 0 0 0 0 0 0 7
Neighs:             73 ave         584 max           0 min
Histogram: 7 0 0 0 0 0 0 0 0 1
FullNghs:          146 ave        1168 max           0 min
Histogram: 7 0 0 0 0 0 0 0 0 1

Total # of neighbors = 1168
Ave neighs/atom = 146
Neighbor list builds = 0
Dangerous builds = 0
variable  natoms equal "count(all)"
variable xlength equal "lx"
variable  volume equal "vol"
variable  etotal equal "etotal"
variable    ecoh equal "pe/v_natoms"
print "${xlength}, ${volume}, ${etotal}, ${ecoh}" append lattice_cohesive_energy.txt screen no

next i
jump SELF loop

print "-------------------------------------------------------------"
-------------------------------------------------------------
print "Show results of 1st step (Running Minimization)"
Show results of 1st step (Running Minimization)
print "The number of atoms = ${natoms};"
The number of atoms = 8;
print "The lattice constant, x (Angstoms) = ${x0};"
The lattice constant, x (Angstoms) = 4.40634438818955;
print "The lattice constant, y (Angstoms) = ${y0};"
The lattice constant, y (Angstoms) = 4.40634438818955;
print "The lattice constant, z (Angstoms) = ${z0};"
The lattice constant, z (Angstoms) = 4.40634438818955;
print "The volume (Angstoms^3) = ${v0};"
The volume (Angstoms^3) = 85.5530136380702;
print "The total energy (eV) = ${etot0};"
The total energy (eV) = -39.7370129323702;
print "The cohesive energy (eV/atom) = ${ecoh0};"
The cohesive energy (eV/atom) = -4.96712661654628;
print "-------------------------------------------------------------"
-------------------------------------------------------------
print "Simulations completed !"
Simulations completed !
Total wall time: 0:00:00
