ITEM: TIMESTEP
0
ITEM: NUMBER OF ATOMS
6000
ITEM: BOX BOUNDS pp pp pp
-4.9081009155757016e-01 1.8464810091556952e+01
-5.2720075441737357e-01 1.8501200754417333e+01
-4.0273335476934307e+00 2.1132333354769244e+02
ITEM: ATOMS id type x y z c_peratom fx fy fz 
242 3 3.53538 3.87882 1.21884 -25.9872 -0.220814 -3.70473 -0.772871 
282 3 2.58501 7.00986 1.44399 -25.1091 2.19357 0.0864946 -0.1576 
442 3 7.02883 3.25821 1.21569 -26.1599 -0.177293 2.24933 2.01587 
482 3 6.51817 7.39672 1.36022 -27.6454 3.88825 0.90153 0.872597 
1001 3 1.25955 1.35194 -0.923974 -28.3215 0.131611 2.12689 -2.72847 
1002 3 1.21477 1.82773 3.44442 -28.0256 -5.69678 2.9479 1.68672 
1041 3 1.11746 5.25546 -1.44065 -26.8887 1.0279 1.52029 -2.76118 
1042 3 0.602521 5.33679 3.98225 -27.0403 2.02101 -1.26591 1.70851 
1201 3 5.2613 1.79678 -1.77093 -27.515 -0.644782 -1.76848 1.27845 
1202 2 4.70391 1.41329 3.72619 -23.1183 -4.05824 -0.380884 -0.940337 
1241 3 4.7311 5.4334 -1.61035 -27.5541 -0.370532 0.523754 0.938759 
1242 3 4.95031 5.8469 3.84236 -26.6643 0.426506 -1.39196 1.48741 
3921 1 7.23195 1.47797 2.6721 -8.93009 -0.404899 1.27251 -1.20583 
5401 1 5.20088 6.52091 0.253811 -8.37267 -1.04362 -0.337564 1.6102 
1082 3 1.17505 8.94041 4.1006 -26.8029 -2.68604 0.718057 2.89633 
2602 1 0.783719 3.20006 -1.75817 -8.30917 -0.171121 2.44423 0.430316 
5161 1 5.04204 3.85862 -0.0999919 -8.95582 -1.05782 1.13555 0.188718 
5681 1 3.19908 5.18585 -2.89041 -8.17953 -0.182119 -0.256286 -0.314348 
3399 1 4.95039 7.41649 -2.06707 -7.93542 -1.019 1.44718 -1.92868 
5603 1 2.33676 0.690698 2.99563 -6.78565 5.3011 -4.24262 -3.64653 
2162 1 2.3722 5.63414 -0.153775 -9.14064 3.66253 -2.23279 3.60795 
4402 1 4.32204 1.57791 1.68705 -8.88479 1.78783 0.762377 -1.50526 
2281 1 7.5333 -0.161439 -2.09886 -7.49068 0.849526 -3.696 1.29723 
281 3 3.20356 7.86384 -3.81589 -27.209 -0.699066 -3.71733 1.69478 
4441 1 2.20561 2.49495 0.379725 -7.58627 0.994648 1.00306 0.853195 
3161 1 4.8681 -0.339876 -0.298993 -8.18763 -0.0578949 2.8013 1.62388 
4280 1 6.35174 5.22695 -2.66249 -7.82 2.47393 1.31739 0.61841 
5560 1 2.00921 7.38386 -1.94784 -7.46119 -0.962888 2.38709 -1.41719 
2440 1 6.46168 1.87957 -0.168749 -8.65717 2.20977 -0.794307 1.23694 
202 3 3.21609 -0.218679 1.40426 -28.0536 0.315295 -2.72034 -0.723918 
4442 1 3.02795 1.61621 -2.25919 -7.51692 1.50925 -0.810036 -0.41114 
201 2 3.08165 -0.0315788 -3.88438 -23.9799 2.04978 0.275419 -0.409151 
5083 1 1.03651 6.92715 2.7584 -10.1984 0.214234 1.62543 0.417291 
3522 1 4.55137 7.46418 2.67948 -9.12094 -1.39615 -2.56876 -1.43138 
4163 1 5.16196 3.84505 3.16458 -7.83744 -0.374534 -1.32265 -0.853613 
5080 1 5.11282 -0.161344 -2.8722 -9.0861 -0.086041 0.289075 -2.21509 
4882 1 2.92129 4.89565 2.56541 -8.60055 -1.11062 3.1667 -1.26666 
3442 1 7.33687 2.01549 -2.83171 -8.40674 -1.26132 2.4113 -1.62784 
4361 1 -0.181919 5.88503 0.340502 -8.54941 4.62026 -3.57228 -3.01622 
5801 1 -0.0621347 0.765244 2.25123 -6.80995 -0.791309 -1.97772 -0.287549 
2083 1 8.63819 7.79008 2.09366 -6.38674 -0.125381 -1.14085 1.33277 
402 3 6.56235 0.0248668 1.28107 -27.5885 0.823588 0.292405 0.104039 
4360 1 4.97639 3.25232 -2.97478 -7.78214 -0.677348 -0.363324 0.997331 
3163 1 1.92709 -0.242127 -0.181454 -8.26794 -0.253658 0.588575 2.83083 
2721 1 8.32277 4.51392 0.268216 -8.19994 0.153907 -1.69842 -2.18948 
5040 1 -0.442803 5.62789 -2.635 -8.83654 -1.43654 -0.1544 0.290943 
5442 1 2.77846 2.24396 4.72875 -7.58088 0.946909 1.07651 -1.71704 
5802 1 1.62068 8.3482 0.432914 -8.95061 -0.834709 0.698848 1.24356 
5239 1 8.53586 0.0691957 0.339446 -8.42107 3.27375 0.461899 -0.743438 
5203 1 1.38214 -0.405301 -2.57215 -7.8908 -3.18268 0.61416 -1.36797 
5881 1 0.52356 3.35403 2.36333 -7.63465 -0.507347 3.17371 0.979002 
5282 1 8.26071 7.26142 -2.52729 -6.90237 1.35042 -0.430181 -1.13635 
2202 1 6.96623 5.53244 2.63458 -7.49531 -0.983113 1.94636 0.223571 
1081 3 1.11234 9.35094 -1.45657 -27.6885 1.59706 1.48056 0.78872 
4161 1 5.21864 11.0666 2.60903 -7.33017 -0.717922 1.4751 -2.3475 
1282 3 4.86138 9.4056 3.93581 -29.0967 1.43696 1.07787 2.07198 
4961 1 7.04619 9.06189 -0.127902 -8.45285 -4.10606 0.73454 1.64037 
4080 1 0.0892404 9.50035 -3.09892 -7.97254 -2.07098 -4.39714 -0.613854 
1281 3 5.0508 9.41057 -1.34509 -27.2559 2.68855 0.255855 0.925477 
5041 1 3.6035 9.77739 -2.36302 -8.30517 -1.98966 -0.951778 -3.44158 
4000 1 1.45923 14.8538 2.13056 -7.52776 -0.978348 -5.18283 2.5198 
521 2 7.20979 11.695 -3.58006 -23.7414 -3.00104 -1.91417 -3.67875 
5121 1 8.32702 10.8352 2.59067 -7.63004 1.17187 2.3011 -3.26812 
2441 1 4.32134 10.2716 0.277454 -7.70718 -0.141601 -2.66065 2.03498 
5720 1 6.7646 9.43405 -2.78949 -8.46841 0.139349 0.908796 -1.85825 
4682 1 1.56634 11.2512 -2.87925 -7.5373 -0.73305 2.845 0.41997 
1561 3 8.73558 17.0343 -1.31231 -27.1044 -0.363722 -0.233743 -1.72314 
2121 1 1.27248 11.2957 -0.413657 -7.36871 -0.14556 -1.47946 0.973791 
361 3 3.06445 15.1367 -3.94628 -29.0959 -0.00134867 -0.799969 -4.02475 
5882 1 1.3857 11.6469 2.1291 -7.78687 -2.79196 -0.104331 -0.508788 
4364 1 6.06901 11.5266 -1.26202 -7.46401 -2.20139 -0.863656 -0.668717 
4321 1 6.8571 13.143 1.90792 -8.19818 -2.19312 1.805 0.420528 
5921 1 3.33558 12.7331 2.91254 -7.78545 -1.14921 2.90965 -0.144097 
5400 1 3.13247 16.9018 -2.66801 -8.24295 2.04898 -0.0905102 -0.217113 
322 3 3.11412 11.1149 1.84988 -27.4774 3.11676 -1.21779 -3.70749 
362 3 3.08939 15.1904 1.24362 -27.4077 0.653301 -0.782952 0.410231 
522 3 6.81046 11.2101 0.878194 -28.6603 -1.42885 -1.55292 2.00312 
562 3 6.9828 15.5752 1.50506 -27.2785 0.498349 -2.88631 -0.850261 
1121 3 1.40832 13.0267 -1.37515 -26.975 1.83785 -2.84579 -1.62994 
1122 2 1.17722 13.0379 3.80989 -23.221 -1.0439 3.73009 -2.44578 
1161 3 1.62021 16.9962 -1.4794 -26.7239 1.3834 -0.5753 0.919599 
1162 3 1.11273 16.6954 4.24399 -27.5075 0.552764 0.279951 -4.54756 
1321 2 5.0884 13.5509 -1.51124 -24.582 0.0442574 -1.40798 -0.506809 
1322 3 5.0144 13.0958 3.71429 -28.2059 2.7288 -1.92255 2.38228 
1361 3 5.46014 17.2667 -1.36227 -27.7076 -1.23445 -2.0576 -0.3364 
1362 3 4.84878 16.3601 4.06571 -25.928 1.02469 2.46382 -0.628718 
3842 1 3.34542 16.7148 0.160171 -8.03677 0.00916476 -0.915506 -1.06723 
2960 1 3.53424 12.8165 -0.0614945 -7.40552 0.553498 2.53287 0.364266 
3962 1 3.25218 13.5661 -2.80427 -7.83288 -2.26147 -1.62888 3.43623 
4282 1 6.85967 17.2914 0.525837 -8.37373 0.0636071 -2.2168 -2.13164 
2362 1 2.56151 16.9559 2.72979 -6.95697 1.30329 1.25956 -0.758594 
4002 1 8.11633 12.0216 -0.0401996 -6.16966 2.80208 1.87324 -0.495592 
5200 1 4.6504 14.936 2.68658 -9.20205 -0.236065 0.451728 -1.04506 
2322 1 6.8554 15.465 3.63331 -8.12635 -1.75398 -0.277477 -1.09537 
3519 1 7.11005 13.5194 -2.47293 -7.70847 0.00765159 1.51396 0.734566 
5322 1 6.44438 9.0369 2.82925 -6.99038 1.21898 -2.73508 -1.51083 
4562 1 1.44797 14.5698 -0.306483 -9.16204 -0.437218 2.11473 -2.04291 
2443 1 4.98615 18.0979 2.6699 -8.98723 0.413256 0.964821 0.318115 
4762 1 5.53981 15.1201 -0.144486 -8.15111 -1.6408 -0.121079 1.97354 
3402 1 4.26166 11.25 4.87619 -7.32171 -1.72207 -0.762235 2.02311 
3481 1 0.837987 11.2574 4.70415 -8.40533 1.21288 -2.73112 3.94168 
5561 1 7.05545 16.1424 -1.97649 -7.77038 1.29436 3.12941 -1.95157 
3599 1 5.06498 15.2471 -3.16802 -7.7481 -1.78599 1.18781 0.625316 
1562 3 8.62887 16.7068 3.90369 -28.6822 3.31681 -0.911807 1.99624 
2963 1 -0.153832 16.5275 2.3441 -7.01661 -2.49898 2.7041 1.86804 
1481 3 8.51122 9.26865 -1.38772 -29.6198 3.45689 -1.07685 0.0823603 
5443 1 7.67427 17.7607 2.80633 -7.15366 -2.09514 0.581899 -1.77819 
2522 1 0.269488 17.0337 -0.017872 -9.00375 -1.03637 -2.1787 -3.61238 
5162 1 2.8011 9.22333 3.35129 -9.32442 0.959071 1.22962 -2.23029 
162 3 -0.349331 15.1698 0.80459 -27.1356 -0.482365 -0.319761 3.51927 
1522 2 8.35932 12.9984 3.41844 -25.7063 5.48413 0.157431 1.45437 
3802 1 8.6341 14.8623 -0.00304523 -7.56775 0.0141031 2.7613 0.733428 
4400 1 6.83311 12.6238 4.75448 -6.77794 -1.01292 -0.350727 -0.492035 
2961 1 -0.411332 13.1607 -3.8071 -7.10369 0.289448 2.20865 3.82436 
1482 3 8.37617 9.49736 3.89938 -30.2315 0.264889 -1.52793 0.97198 
3999 1 1.05104 15.3992 -3.2218 -8.45989 0.00934276 1.55453 4.29799 
2481 1 -0.246803 9.53292 2.54316 -8.95228 -1.7732 -3.42444 -0.469311 
3521 1 8.86337 11.4967 -2.55174 -7.65778 4.65124 -2.36666 2.26925 
5362 1 6.68823 5.69191 5.74925 -8.16295 -0.302552 -0.321098 -2.00716 
4123 1 8.98219 1.29032 6.51533 -7.498 -3.39438 -0.873107 0.215071 
4722 1 6.46151 1.33171 13.4318 -8.89056 0.871454 3.71154 0.246563 
2644 1 4.69193 3.74994 13.3694 -7.73659 -2.07103 -2.42999 -0.0822954 
5962 1 0.949994 0.0993494 8.09986 -8.66421 -1.19928 0.342652 -2.27464 
4683 1 7.1425 7.24252 13.7027 -6.45489 -3.38467 -1.41423 0.914076 
3723 1 8.38502 -0.232044 10.8622 -8.18685 -0.108822 1.03673 -4.40875 
403 2 6.65042 -0.0440457 6.20563 -22.7684 -0.734415 0.532924 2.66584 
2402 1 2.51898 5.58617 13.5411 -7.51318 -1.073 0.540206 -0.142537 
3683 1 2.78453 1.62481 12.7579 -9.06785 -2.21896 -0.57278 -2.375 
2442 1 1.08555 7.37456 5.54561 -7.74784 -1.76274 -0.776182 -2.21379 
5280 1 8.57373 3.85457 5.29712 -8.75527 0.388552 -0.684975 -0.0423721 
1443 3 8.30935 5.65574 9.25495 -26.8732 -2.22747 -2.35833 2.15979 
3882 1 4.98456 7.88077 5.33078 -7.97702 0.0658817 -2.11728 -0.470918 
2844 1 2.71298 5.72142 10.8502 -9.79063 0.171096 -4.64845 -2.29953 
4325 1 3.22132 8.86776 12.7998 -8.43084 -1.30997 2.65996 0.792125 
4445 1 2.37148 2.12108 10.0657 -8.7903 -0.645873 -0.559674 0.886688 
3083 1 8.22969 7.7138 4.99003 -8.14956 -3.26733 1.04226 2.93183 
2242 1 1.23212 7.78021 10.9749 -7.54337 -1.13214 -1.41695 -0.814833 
5042 1 8.74321 4.20591 7.9921 -8.35784 0.509013 0.0212393 -1.01705 
3202 1 8.15343 7.52903 8.36027 -9.97436 0.442028 -0.0522003 -1.2967 
2843 1 3.53871 -0.42715 9.1493 -8.20613 1.36892 1.96123 -0.210619 
5842 1 5.94188 0.997255 10.7001 -7.8872 1.43152 1.59214 -0.894636 
2203 1 3.13495 5.46156 5.03187 -7.80298 2.0077 0.897801 1.84915 
5241 1 1.08342 3.28585 7.63675 -7.65719 -2.44885 -0.949954 2.32078 
4563 1 2.25385 7.45484 8.30047 -7.38198 -2.67589 3.40821 3.93517 
4802 1 4.62245 3.32779 10.7994 -8.57045 -2.05212 1.29741 -0.570409 
4444 1 4.73136 3.45277 7.27294 -7.0134 5.53943 2.16929 1.75099 
5725 1 6.42273 1.81833 8.02705 -8.22739 1.32187 -1.60798 -0.191031 
243 2 2.95591 3.41278 6.43725 -24.0563 -6.86758 9.74272 -4.08469 
244 3 2.40395 3.6291 12.0783 -27.4726 1.13518 0.838799 0.042866 
283 3 3.26432 7.12438 6.86119 -28.5233 0.388829 0.619346 -4.29547 
284 3 3.1565 7.05946 12.0048 -26.8709 -3.09443 3.11643 -0.00514822 
443 3 6.91687 3.65129 6.58028 -27.7285 -1.75287 0.594486 2.08898 
444 3 6.2998 3.23629 12.0776 -28.1688 1.27497 2.07169 -0.399631 
483 3 6.81278 7.44528 6.91149 -27.2159 -3.97509 0.426953 -2.27786 
484 3 6.40223 7.58917 11.6054 -28.0144 -0.0844641 -1.29994 1.11752 
1003 3 0.340029 2.19777 9.09939 -26.7021 2.00218 -1.63347 2.0723 
1043 3 1.22724 6.1052 9.4083 -27.4696 -2.7524 -1.09812 0.0625811 
1203 2 4.28857 1.92725 9.21801 -23.4017 4.00325 -1.11586 -1.26395 
1243 3 4.37522 5.54139 9.57737 -27.1432 2.88679 0.387092 -3.56797 
2043 1 3.00305 5.28566 8.03081 -8.11887 0.194313 -2.16439 0.947828 
404 3 6.81142 -0.186945 12.2059 -27.9251 -3.33951 -2.1773 -1.0405 
2404 1 7.53302 3.53201 10.5403 -6.9138 -0.0702071 0.668131 1.13239 
4162 1 4.39132 7.92218 10.4166 -7.57589 -1.08571 -1.9371 1.09614 
2323 1 0.768771 3.99558 5.37619 -6.84411 1.77121 -2.54404 -2.97495 
4483 1 4.97636 7.27204 7.95453 -7.3879 -0.148098 0.586907 -0.109227 
4525 1 0.60859 3.86888 10.5417 -8.36929 -0.602355 -0.165244 -1.43396 
3204 1 0.743744 -0.0512676 10.5856 -7.65059 -2.34305 1.80047 -0.791235 
4443 1 0.842181 3.66526 13.0858 -7.09984 -0.295895 -0.524073 0.76214 
2363 1 3.18831 1.66005 7.2524 -7.51331 -0.127835 -6.06192 4.7462 
5484 1 5.84426 5.67461 10.692 -7.80456 1.50156 2.06415 2.30862 
2841 1 8.6193 6.77574 10.9068 -8.01293 -1.85938 -0.0853225 -0.619161 
4203 1 6.08885 1.80753 5.06262 -8.4784 6.12675 2.00717 4.42813 
4003 1 -0.181462 6.40646 8.13883 -7.00374 -0.665057 -0.258017 -0.372085 
2403 1 6.38987 5.3097 8.1987 -6.66989 1.93461 -0.336659 0.778743 
203 3 3.03574 -0.181461 7.06857 -27.424 -1.1089 -4.14477 -1.27133 
5642 1 4.38508 -0.00515685 5.47455 -8.18658 1.46107 -2.51101 -0.275231 
1403 3 8.02844 1.16212 9.27953 -27.677 0.0438521 1.92083 -0.213548 
5924 1 8.8561 1.94937 12.5567 -7.73041 -1.30909 0.684559 -2.43864 
5205 1 4.61783 6.72979 13.0446 -8.00288 3.49106 0.658455 1.54985 
204 3 2.5053 0.0730896 11.2505 -27.5557 -0.538115 -1.39969 0.0742309 
4083 1 0.210527 7.1377 13.8864 -7.90711 0.743543 0.0753128 0.0611869 
4324 1 6.9838 4.58665 13.759 -6.67739 0.371076 -0.521356 -0.835646 
2285 1 4.87447 15.9897 13.4016 -5.91416 1.8113 -3.30583 1.18822 
2524 1 8.65052 14.6453 10.8243 -8.01337 -0.589305 3.92746 0.0581276 
3323 1 3.02472 13.5063 13.9131 -6.5564 0.211381 0.993619 -2.06199 
2682 1 0.388208 18.4349 12.9591 -7.51179 2.77009 0.816614 4.34364 
3922 1 8.58002 14.8922 5.70983 -7.42362 -4.35069 -0.395873 -1.80992 
5242 1 1.14381 11.2051 13.3692 -7.4799 1.79854 3.17359 1.21053 
5481 1 7.65032 18.3271 8.20035 -8.96354 0.782065 -0.0612855 -0.370873 
4283 1 5.60813 14.1147 5.96106 -7.19157 -2.85064 2.21534 0.470972 
2164 1 6.69272 13.168 13.3436 -8.37238 -0.405829 0.50134 2.80226 
2923 1 7.37703 17.0728 5.58244 -8.40686 -1.31572 1.8871 0.35705 
5763 1 6.15512 9.18675 12.9075 -7.8281 -1.76836 1.71335 0.208151 
2762 1 0.857606 14.9398 5.24898 -9.49648 -2.19181 -0.158861 -0.333016 
4362 1 4.49999 11.9022 7.74209 -8.43303 -3.27155 -0.163791 -1.44033 
1563 2 8.16869 16.666 9.48854 -22.7574 0.288397 0.74084 2.64988 
1523 3 8.66068 13.208 9.43097 -28.1881 0.871444 -0.974369 1.11313 
2523 1 2.15237 16.7174 10.8557 -7.45537 1.54409 -0.45343 -1.71796 
3563 1 8.23372 18.0421 13.0118 -6.75355 -0.52364 -1.78016 4.3022 
3841 1 8.73539 9.4954 6.79941 -8.95148 -0.821641 0.919525 3.6078 
3682 1 2.64412 10.1254 9.21137 -7.44725 1.62246 0.143403 -0.639035 
5325 1 4.14754 18.4891 11.6446 -6.37054 1.60899 -0.163542 1.72211 
3242 1 2.75671 9.09442 6.29625 -7.41964 -0.0942851 3.61063 -0.433794 
3243 1 6.39739 9.29782 10.2685 -8.42579 4.68786 -0.247023 1.04449 
1283 3 4.75311 9.7507 9.16048 -27.9249 -4.9333 -2.59724 2.07664 
5683 1 2.36997 13.0545 10.8832 -7.96564 1.724 -1.07347 -0.712914 
5361 1 1.0339 11.535 7.70528 -8.6333 2.01252 0.923729 -2.56964 
3964 1 8.04637 10.9027 13.4525 -7.92136 2.64883 -0.295626 -0.174886 
5522 1 1.29706 18.4038 4.98771 -8.08508 -1.68137 0.593174 4.06087 
5123 1 8.22321 11.5645 10.8791 -8.39424 1.43976 -1.61844 -1.34451 
4724 1 0.5241 10.5708 10.5662 -7.61747 0.228924 2.41574 0.722633 
1163 2 0.58944 17.2077 9.36119 -24.2884 2.38054 -2.89176 -2.0861 
524 2 6.33611 11.2516 12.1338 -24.5997 -0.194826 0.473037 0.343965 
324 2 2.61981 11.1177 11.8183 -24.0942 -1.44026 -1.70482 0.613117 
3602 1 6.5796 10.1627 5.20846 -6.59808 0.187404 -3.25433 -0.208109 
1123 3 0.524604 12.9078 9.3623 -27.5866 2.24664 -0.57432 0.502942 
363 3 2.48128 14.9033 6.55532 -27.0491 1.29964 1.61814 3.74461 
2201 1 1.41048 14.4754 8.61478 -7.26889 -1.03696 -0.777433 -1.93756 
2125 1 4.56365 11.5825 13.7637 -6.73113 1.13253 -2.88488 -4.49703 
3441 1 3.27819 16.0802 5.0134 -8.77454 -0.327319 -0.855979 1.78307 
5439 1 2.65099 13.1792 5.44278 -8.95196 0.188578 0.959132 1.87963 
3002 1 5.79827 9.75967 7.81618 -7.41178 3.7736 -3.5446 -4.69409 
2643 1 6.9395 11.7063 8.36083 -8.37814 2.13608 2.75146 4.31802 
523 3 6.54668 11.427 6.58301 -28.4266 -1.39944 1.17778 -4.20505 
1323 2 4.92093 13.1625 9.3282 -23.3127 -0.616176 2.08878 0.360406 
4243 1 5.35662 17.0773 7.25732 -7.42458 -0.0706829 1.24266 -0.531278 
4606 1 2.38069 16.9068 7.66557 -7.62827 -1.16786 -0.247213 -1.4249 
4962 1 6.52308 16.5761 10.9387 -7.55944 1.56411 5.60839 -0.53391 
1083 3 0.858437 9.4304 8.86785 -27.8868 1.55749 -0.407468 2.1452 
1363 2 4.34527 16.4577 9.44874 -24.59 0.589532 7.137 -1.00754 
3763 1 6.24696 13.3548 10.9355 -7.39441 1.03753 -5.04172 -1.37486 
564 2 7.0104 14.9299 12.1 -24.433 -2.72044 1.07056 3.72945 
364 3 3.06646 15.0753 12.1345 -29.4086 -2.23674 0.154302 1.25603 
4523 1 4.50099 10.9368 10.798 -8.85039 1.21151 3.32701 0.660943 
323 3 2.62208 11.3868 6.33975 -26.7542 2.21372 -2.6508 0.0678489 
563 3 6.75925 15.3568 6.84318 -27.2138 -0.56544 0.148513 -1.58601 
5005 1 4.63271 15.0641 10.8671 -6.937 -3.65567 -3.7252 2.73258 
5483 1 6.39722 15.1597 8.81839 -7.89992 3.53568 -1.22357 -1.44296 
5122 1 4.01929 14.8888 8.23501 -7.4208 -2.33275 -4.90359 -3.83372 
2562 1 0.421864 14.585 11.8275 -5.39941 3.99525 -0.491963 -1.03212 
1483 2 8.14459 9.85045 9.05137 -22.4476 0.080246 0.630692 0.662335 
2284 1 8.4732 15.4368 13.6627 -7.49258 -0.887618 1.07456 0.492769 
5363 1 -0.452998 9.66536 13.0411 -6.83625 -2.38482 -4.52007 3.03548 
4685 1 2.3316 16.0272 13.5515 -6.21429 -1.68555 2.77549 2.37366 
245 2 2.93998 3.504 17.3986 -23.5102 4.36663 -2.54626 -0.0165548 
285 3 2.83868 7.24294 17.276 -29.297 1.37964 2.54651 1.34914 
445 2 7.04106 3.71959 17.6513 -23.617 -3.3985 3.44546 -1.79821 
485 3 6.70641 7.76427 17.3962 -28.8181 -0.26334 -2.62515 -1.7606 
1005 3 1.11075 1.82993 19.8732 -27.6495 -1.95902 -0.67363 3.49479 
1045 3 1.06035 5.49368 19.6308 -28.2404 0.0755343 -0.755044 4.68425 
1205 3 4.52136 1.75226 19.8739 -28.6248 -0.248293 0.573194 4.93386 
1245 3 4.93919 5.38308 20.3663 -29.8301 -1.22109 -1.87627 -1.8825 
3044 1 4.34175 7.34453 15.9262 -8.41343 -0.360261 -0.624693 -3.03855 
5487 1 8.7866 -0.442148 21.04 -7.52389 2.06424 -1.11545 1.29291 
5044 1 6.55579 5.60416 19.0224 -7.97784 -0.0245197 -1.45111 0.386168 
1445 3 8.39823 5.35662 19.8969 -28.4272 0.69948 2.0383 -0.144938 
4246 1 6.70453 5.81194 16.2983 -7.39881 -0.0650138 0.353711 -0.394437 
1204 2 4.35856 1.24998 14.0381 -22.8383 -1.37225 3.70031 2.67529 
2647 1 5.55834 0.628626 18.673 -7.94162 0.479633 0.0802307 -0.413637 
1004 3 0.510703 1.44758 14.4185 -27.6138 4.26383 2.86117 -2.29847 
4843 1 2.6721 2.16178 15.2639 -6.91757 1.47829 -1.99539 1.22501 
2724 1 6.62894 3.03787 20.4967 -7.0965 1.88161 -0.479934 0.220259 
5806 1 1.41695 6.82681 18.4603 -6.60304 -4.72702 0.895992 1.09442 
2366 1 7.68999 7.35422 21.1462 -7.18694 -1.07082 0.735192 -0.433872 
5124 1 2.82477 4.97088 16.0904 -7.95565 -1.52628 6.97064 -2.47786 
1044 3 0.840899 5.48331 14.8528 -27.402 0.340128 -2.15175 -2.10553 
5084 1 0.70857 3.5255 15.7219 -7.74748 -3.82667 0.907659 2.37134 
3645 1 4.25359 3.35608 21.7957 -5.86293 2.74034 -1.29782 2.78567 
1244 2 4.8782 5.37735 14.8772 -25.6638 1.05061 -1.36473 -0.170952 
4485 1 4.86191 7.85367 18.3781 -7.14465 -1.22404 -1.40305 -2.23167 
3406 1 3.01467 5.15895 20.951 -6.55965 -3.80471 2.67347 2.48233 
4085 1 3.38061 5.77738 18.8012 -5.60947 1.7037 -1.34232 -2.90375 
1284 3 4.29622 8.87737 14.4157 -27.3191 2.4375 2.14278 2.18548 
2045 1 4.73219 3.52634 19.2281 -6.78999 -1.79341 0.156785 -4.04984 
446 2 6.40463 3.37372 22.6573 -24.7344 -2.56158 -2.02733 -2.45219 
5447 1 4.66987 7.46456 21.1026 -8.57912 -0.677127 -0.823905 0.84815 
5686 1 0.828922 3.16403 21.6599 -7.53146 -0.254423 -2.34466 -3.41218 
1484 3 8.42439 8.93834 14.2195 -28.0782 -2.54589 5.27147 4.38095 
5843 1 0.2535 0.148322 20.9105 -6.56835 2.01191 -0.625261 -2.26984 
3245 1 2.7213 1.40608 21.3476 -6.48198 -1.3417 -0.185612 -1.17151 
405 2 6.49338 -0.524694 17.0109 -22.7416 -3.23847 -0.7758 4.91914 
3765 1 8.14287 0.293035 18.3357 -7.48644 1.4423 1.88851 1.16942 
3446 1 6.16778 5.43734 22.1035 -7.89991 -0.625379 -1.34753 -1.23575 
3165 1 2.81583 1.58696 18.5886 -9.83569 -1.41844 1.09295 -0.485344 
1405 3 8.28942 1.43395 20.2126 -28.1192 -1.07719 -1.87891 2.84429 
5445 1 0.692351 7.76213 16.3878 -7.31858 0.891457 -4.10907 -2.49435 
4204 1 1.2372 3.87508 18.5244 -9.37151 -0.451916 -2.72742 0.668701 
205 3 2.46295 0.00106951 17.2843 -27.1721 -2.09455 -1.59353 -0.222475 
3363 1 0.0491394 1.45934 17.9586 -8.78579 0.319398 1.43462 0.0641612 
3483 1 4.95977 0.362777 21.3974 -7.27495 1.33037 0.129382 -0.971748 
4564 1 5.10708 3.76998 16.5344 -7.40774 -0.0233561 -2.15429 -0.106934 
2004 1 0.977132 -0.00808328 15.788 -8.40319 0.644866 -1.20168 -0.397755 
4844 1 8.09373 -0.224663 15.9012 -8.90936 3.77149 0.467116 -5.30933 
3685 1 7.48476 1.42443 22.2786 -7.19763 -0.352172 0.100149 -0.473229 
286 3 3.08428 6.96235 22.2261 -27.5204 0.461931 -0.348964 3.01122 
1485 3 8.40368 8.88231 20.0871 -28.5583 3.9916 0.0534144 1.26428 
86 3 -0.286459 7.1809 22.6346 -28.401 -1.86645 0.147126 -0.913086 
2087 1 8.50108 7.16766 18.7469 -7.33508 0.121256 0.77583 -1.04093 
1444 3 8.3566 5.98271 14.6377 -29.6483 0.422665 -3.41456 -1.13152 
1404 3 8.76553 1.79368 14.4617 -28.5825 2.11744 -0.161699 0.45605 
5244 1 8.60527 7.45013 16.0768 -7.84667 -3.30076 3.22828 -0.280277 
2124 1 8.53279 2.98346 18.9598 -9.21413 0.55834 -1.36799 0.104093 
2604 1 8.14563 3.16588 15.8301 -7.72134 -0.539412 -0.292491 0.961682 
2243 1 4.07981 0.104686 16.35 -8.13334 3.42731 0.107381 -0.781347 
5004 1 1.5779 7.93557 21.4606 -8.66544 -0.590554 -0.357329 -0.72269 
5324 1 0.3054 5.58201 21.6963 -7.85616 0.838782 -0.595824 1.07785 
4084 1 2.87863 10.3786 20.6511 -6.67846 -0.0797113 -1.20248 0.441644 
5364 1 5.17338 18.4682 14.2304 -7.30013 1.98675 -3.61871 1.76218 
3284 1 4.52278 11.5876 16.1572 -6.83367 -3.08843 -0.140071 1.96951 
1085 3 0.977151 9.45912 19.9641 -28.9442 1.22075 -0.10475 -0.870494 
1285 2 5.18093 9.10191 19.9309 -23.7532 -3.4536 4.82103 4.61156 
3324 1 2.15506 9.25445 18.2539 -6.36319 1.0256 1.65272 1.24832 
5684 1 6.15176 9.37714 16.0941 -7.44985 -0.136436 -2.12681 -0.840112 
1164 3 0.632026 16.7061 14.7283 -28.3831 1.54076 -0.859552 -1.86299 
5405 1 5.59203 16.7666 18.1121 -8.20698 -0.713965 0.399061 -0.668563 
5404 1 8.40809 16.7732 17.7192 -8.3313 1.20218 -0.538825 -0.94146 
5087 1 6.95266 9.10295 18.8847 -7.94699 2.01071 0.970303 -2.00819 
3084 1 2.48367 9.39588 15.734 -7.09404 2.44305 0.370128 -3.13157 
1084 3 0.460172 9.33351 15.0403 -28.6161 2.15618 -0.845107 -2.23272 
2527 1 6.49784 12.8079 21.0342 -9.2152 2.09676 0.900551 1.95591 
5365 1 8.97541 12.8333 22.5464 -9.0824 1.63632 0.502117 -1.66227 
4045 1 0.924703 16.8955 22.5561 -6.63341 2.2445 -1.47818 0.0557672 
1364 3 4.38392 16.8978 15.564 -27.2036 2.53507 0.791513 -4.94551 
2645 1 3.44127 12.9728 21.6932 -7.33754 -0.478258 -0.207998 -0.378694 
4966 1 4.78415 15.2531 21.1646 -7.84944 1.15529 0.227352 -0.32384 
2165 1 2.43257 14.965 19.5093 -7.2269 -0.479238 2.65149 0.431876 
1324 3 4.89774 13.3636 14.7624 -28.7777 -1.61614 -0.826449 0.103667 
325 2 2.54376 11.5461 17.2708 -24.186 0.920383 -7.23617 0.366088 
365 2 2.67101 14.7272 17.268 -23.3226 -0.804316 1.4361 4.23129 
525 3 6.22805 11.2309 17.139 -30.1334 0.860815 0.562543 -1.40222 
565 3 6.75269 15.0798 17.52 -29.2972 -0.836835 -1.13529 -0.96486 
1125 3 1.42326 12.9577 20.3129 -28.3518 0.904058 -1.46635 -0.435849 
1165 2 0.779954 17.1182 20.0118 -24.8279 0.276064 -0.727676 2.28926 
1325 3 5.10007 12.899 19.8811 -28.0576 -4.6895 -0.382114 -0.266574 
1365 3 4.79705 17.5182 20.1214 -28.8902 -1.15095 -0.279314 0.0989867 
3526 1 6.29901 13.2945 16.0786 -5.89758 -0.707334 -1.60907 -3.05507 
1124 3 0.646435 12.8688 14.5098 -28.2501 0.284284 -0.36098 -0.804706 
5284 1 0.176625 14.5945 14.2493 -6.65422 -1.54352 2.55624 2.86735 
3364 1 3.23115 12.8373 18.8084 -7.85281 -2.66919 -1.05425 -0.242518 
4205 1 1.84341 13.1301 16.1187 -8.34094 -0.0103756 2.18559 1.14324 
5323 1 0.710776 11.4306 18.9234 -8.54977 0.437617 0.367138 -0.724968 
4884 1 0.11105 17.8033 18.1549 -7.27076 0.790596 2.59704 0.117041 
2088 1 5.4189 13.7516 18.2182 -6.59194 0.417541 1.10682 2.00643 
5964 1 3.24618 17.9675 18.8271 -7.43272 -1.40416 -0.227225 -0.863658 
5926 1 4.35272 15.0791 16.1641 -8.46542 1.35414 -1.28065 -1.63306 
5285 1 0.479931 11.091 16.0995 -8.2452 0.998312 0.80138 -1.37532 
2364 1 6.74822 16.4375 15.7897 -8.40834 -1.64278 1.85802 -0.605112 
5204 1 5.10875 10.9071 18.7714 -7.59165 -1.4467 1.12492 0.889561 
2205 1 2.63281 17.0334 16.0956 -8.06421 -2.34239 -0.793554 0.650348 
3924 1 7.6529 11.6078 18.3232 -6.56974 1.63031 2.08396 4.05504 
1525 3 8.38669 12.6338 20.2823 -27.2439 1.58211 -0.511595 -3.03505 
2485 1 7.78445 14.534 19.3376 -8.55552 0.78024 -0.4441 0.165195 
4007 1 5.24767 10.5535 21.7795 -7.48904 -1.53123 -0.855226 0.0392319 
3764 1 8.2175 14.2529 16.3609 -7.52687 6.55871 2.73084 0.239717 
3125 1 0.731853 15.6253 17.3875 -7.17532 0.339364 -2.72575 -1.26736 
2286 1 2.82408 17.6019 21.2225 -7.32835 0.39057 -1.20348 -0.62942 
2046 1 7.6569 10.304 21.3433 -7.60647 1.40652 0.622194 -0.459865 
1564 3 8.57756 16.9274 15.0388 -27.2954 -0.0507196 -0.351046 -3.28583 
3566 1 7.9444 11.1928 15.9868 -6.33091 1.27737 -0.518745 -1.20716 
4725 1 0.8597 11.5295 21.7993 -6.87254 2.35243 0.75871 -1.85857 
326 3 3.28186 10.955 22.8445 -29.0425 -0.0941956 0.764369 -2.04591 
566 3 6.33007 14.9836 22.7736 -26.5309 -1.62383 3.54456 -2.70817 
2245 1 6.58301 17.3614 20.6261 -6.95453 1.41159 -1.06932 0.952386 
526 3 6.81897 11.4486 22.7554 -27.5472 -2.148 -0.925025 0.00936153 
1524 3 8.30427 12.7072 14.7965 -28.7592 -0.11177 0.827947 0.0638187 
2606 1 8.46543 15.5858 21.8826 -9.21173 -0.492218 -0.353416 2.17655 
366 2 2.70986 15.4521 22.0182 -25.3581 3.67273 0.702335 -0.845332 
4206 1 0.631224 14.5607 21.1465 -8.10218 0.742006 0.650874 -1.18203 
1565 2 8.94297 16.3256 19.9155 -24.4485 -0.201519 3.21836 -1.25244 
486 3 7.03027 6.95001 23.0957 -29.5412 -1.88889 0.906479 0.180889 
2367 1 8.69887 6.32641 23.2502 -6.71628 3.35194 -2.27878 1.59204 
3444 1 8.20586 3.51004 23.6423 -8.34636 4.48679 0.649207 2.6792 
1447 3 8.77937 5.22528 30.6243 -29.0158 2.03389 -1.07299 0.283691 
4487 1 -0.404349 8.84498 23.5009 -7.78577 0.390205 1.38453 0.0655594 
4244 1 7.67293 2.25086 26.284 -7.73492 -0.442684 -1.3053 0.980666 
3246 1 8.29436 4.4304 27.3768 -8.55274 3.29705 2.84339 -1.78493 
206 3 3.22985 -0.0858447 23.0712 -29.933 0.0862412 0.553952 -1.56279 
5406 1 4.97582 -0.0873399 29.6536 -7.65587 3.15032 0.0378532 -1.4054 
246 3 2.00914 3.56153 22.9295 -27.7343 5.3058 0.0726591 -2.86916 
2767 1 5.24593 6.97364 26.8285 -7.67619 -1.46503 1.52212 1.11639 
5045 1 5.26146 2.10106 27.4985 -7.92255 -0.340558 -2.79682 0.0202422 
2445 1 5.59032 4.63171 27.1812 -6.91619 1.97525 0.769009 1.24931 
2326 1 2.87354 5.18673 23.5796 -8.60286 -0.0313111 1.73064 2.54678 
2686 1 1.0953 7.24932 24.551 -7.29226 -0.0755587 0.643048 -2.85764 
4607 1 6.84917 1.86346 29.661 -8.53444 -0.264027 -1.30876 -1.24624 
5643 1 0.371026 4.02636 23.9771 -8.33698 0.369015 -0.163716 1.64657 
2608 1 3.29666 3.98639 26.5761 -7.69375 0.0467599 0.501558 -2.19328 
5007 1 3.32865 5.89727 29.497 -8.31471 0.385074 -1.0967 0.135261 
3728 1 5.39529 7.47947 29.4906 -7.63646 2.00601 -1.17565 0.332448 
2806 1 1.61134 6.59151 27.6953 -6.89902 0.560546 -0.0895782 -0.402914 
5046 1 7.30344 6.73541 25.3855 -6.54891 -0.533725 -4.83055 1.76475 
4245 1 1.27727 3.57399 30.0927 -7.32663 1.50121 -2.03287 -1.64238 
1007 3 1.27552 1.34017 30.9925 -28.7691 1.87759 -0.0529448 -0.0918799 
5646 1 0.891556 4.2395 26.7999 -6.35591 -0.347698 -3.04731 1.17456 
1207 3 5.30997 1.83679 31.0342 -28.1509 -1.92047 -2.20287 0.402194 
3045 1 2.32796 1.6129 27.318 -7.23461 0.744673 -0.182354 0.264184 
247 2 2.91585 3.41666 28.6575 -24.8521 -0.146582 -1.13413 -2.67661 
287 3 3.28616 7.49859 28.0729 -28.2762 1.62238 0.629335 0.00561997 
447 3 6.91387 3.28847 28.1741 -28.2555 -1.28827 -1.0268 -1.9625 
487 3 6.99602 6.57773 27.3899 -27.6134 1.75388 0.0219744 2.13787 
1006 3 1.29802 1.70217 25.3797 -28.2893 -0.484488 -1.32273 2.81873 
1046 3 1.39225 5.5957 25.5046 -28.9937 -1.29981 0.305045 1.53566 
1047 3 1.64436 5.58034 30.6397 -28.6615 -1.97121 -2.79906 2.08974 
1206 3 4.83449 2.02725 25.4503 -27.9486 -0.866108 -0.199041 1.94695 
1246 3 4.43713 5.28709 25.6395 -27.6935 2.15159 1.01531 -1.61565 
1247 2 5.28255 5.4585 30.85 -23.4621 -0.832765 2.61997 -0.519394 
3206 1 7.04005 4.60817 29.5331 -8.17763 -0.857403 2.67672 2.30756 
2766 1 3.21787 6.93351 25.7239 -7.41841 -0.517161 -0.912015 0.451839 
2169 1 7.29161 8.59032 24.101 -6.45944 -2.40977 5.27322 -0.758318 
2047 1 3.72985 0.115309 25.1706 -6.46549 -3.24505 0.0624888 0.996869 
3606 1 4.50389 3.62747 30.0917 -8.07651 3.34429 1.14799 1.54423 
4247 1 5.76278 3.90544 24.6377 -8.39569 -2.40628 -0.444457 0.451597 
5685 1 3.22424 1.73686 30.0701 -6.41902 -2.11296 -1.20277 -0.525896 
2206 1 0.943475 8.9535 27.3661 -7.02818 -0.976631 -1.86804 2.15081 
2846 1 1.16571 0.600847 23.6544 -7.45552 0.694555 -0.791518 -0.168689 
407 3 6.63248 -0.0210328 28.4545 -27.0364 1.2942 -1.42654 -1.16359 
3726 1 5.08295 7.17177 23.8329 -7.61068 -1.60859 -2.00688 -1.25147 
4967 1 2.84649 2.41075 24.2778 -8.63303 1.29431 0.809594 1.26946 
1406 3 8.71679 1.69598 24.7817 -27.3744 -0.299585 0.851757 -0.138536 
3646 1 5.53825 0.950271 24.0667 -7.38889 2.70562 2.02797 -1.87321 
3605 1 8.4361 0.0156112 24.1464 -7.58199 1.43143 -2.21605 -1.95608 
1286 2 4.88489 8.6212 25.3037 -24.6361 0.0978791 1.90027 0.611924 
406 3 6.51008 -0.499042 22.9068 -28.766 2.22101 2.49497 -1.32302 
4326 1 8.58214 -0.178359 29.8547 -8.29478 -1.67102 -1.86067 -1.78198 
207 3 3.69593 -0.490803 27.896 -28.5549 -3.16027 0.145031 1.30612 
2166 1 0.955581 -0.350243 25.9393 -6.9504 -0.430008 -1.84578 0.203715 
3767 1 0.972863 7.23426 30.4181 -6.65321 0.820919 2.28458 -4.49293 
4527 1 8.29511 7.20242 29.4162 -8.00482 0.338123 -0.448821 -0.575704 
4087 1 -0.16434 5.31195 29.1585 -6.75276 -2.27416 -1.30129 0.59698 
87 2 -0.410208 7.29309 28.3278 -25.7152 -0.196675 -2.48919 -4.55309 
5085 1 4.98082 17.437 22.9122 -6.95917 0.477464 -1.36057 -0.589973 
167 3 -0.106866 14.6227 28.2164 -28.3452 1.27196 0.0825114 0.736054 
6 3 -0.340128 18.1687 22.9956 -28.7032 -2.24714 5.31866 -2.37293 
2568 1 2.95241 18.3592 31.2481 -6.18937 -0.67724 -0.838046 1.17461 
3326 1 -0.437332 16.3902 27.0494 -7.76731 0.889703 -1.15559 -0.139748 
4446 1 4.55004 14.8679 24.0389 -7.23819 1.0256 -0.234365 0.531159 
4848 1 3.75336 12.7904 29.9435 -6.42912 -0.702316 1.12175 1.89643 
127 3 -0.421764 11.0538 28.1809 -29.6266 1.63233 -1.01692 -2.53944 
2007 1 6.29121 9.44515 27.0386 -7.91027 2.45215 -0.138095 -1.36001 