LAMMPS (11 May 2018)
# Sample LAMMPS input script for thermal conductivity of UO2
units       metal
atom_style full
boundary p p p

# Reading the input structure file
atom_modify map array
read_data U25.5x5x40.lmpstr
  orthogonal box = (0 0 0) to (17.974 17.974 207.296)
  2 by 1 by 12 MPI processor grid
  reading atoms ...
  6000 atoms
  0 = max # of 1-2 neighbors
  0 = max # of 1-3 neighbors
  0 = max # of 1-4 neighbors
  1 = max # of special neighbors

# Setting the variables to elements as they are assigned in the input structure file

variable O equal 1
variable U equal 2
variable Zr equal 3

# setting charges as these were previously unset

set type $O charge -1.1104
set type 1 charge -1.1104
  4000 settings made for charge
set type ${U} charge 2.2208
set type 2 charge 2.2208
  500 settings made for charge
set type ${Zr} charge 2.2208
set type 3 charge 2.2208
  1500 settings made for charge

pair_style      hybrid/overlay  coul/wolf 0.275 10.96 eam/alloy
pair_coeff      * * coul/wolf
pair_coeff   *    *  eam/alloy  UZrO.eam.alloy O U Zr

compute   peratom all pe/atom pair bond
compute   pe all reduce sum c_peratom
compute   ke all ke/atom


variable    T equal 3000
variable THERMO_DAMP equal 0.100
variable BARO_DAMP equal 0.500
variable  etol equal 1.0e-8
variable  ftol equal 1.0e-10
variable  equilsteps equal 10000
variable  half_equilsteps equal v_equilsteps*0.5
variable  TCsteps equal 2500000
variable  zunits equal 20
variable  nslabs equal 20
variable  thickness equal 1.0/v_nslabs
variable  swapsteps equal 50
variable  dimension string z
variable  temp atom c_ke/0.0001292355
variable  dt equal 0.002
variable  currenttime equal ${dt}*step
variable  currenttime equal 0.002*step
variable  initialsteps equal 5000
variable  rampsteps equal 10000


timestep     ${dt}
timestep     0.002
thermo ${swapsteps}
thermo 50

velocity all create 300 164336

fix thermostat_fix1 all npt temp 300 300 ${THERMO_DAMP} aniso 0.0 0.0 ${BARO_DAMP}
fix thermostat_fix1 all npt temp 300 300 0.1 aniso 0.0 0.0 ${BARO_DAMP}
fix thermostat_fix1 all npt temp 300 300 0.1 aniso 0.0 0.0 0.5

run ${initialsteps}
run 5000
Neighbor list info ...
  update every 1 steps, delay 10 steps, check yes
  max neighbors/atom: 2000, page size: 100000
  master list distance cutoff = 12.96
  ghost atom cutoff = 12.96
  binsize = 6.48, bins = 3 3 32
  2 neighbor lists, perpetual/occasional/extra = 2 0 0
  (1) pair coul/wolf, perpetual
      attributes: half, newton on
      pair build: half/bin/newton
      stencil: half/bin/3d/newton
      bin: standard
  (2) pair eam/alloy, perpetual, copy from (1)
      attributes: half, newton on
      pair build: copy
      stencil: none
      bin: none
Per MPI rank memory allocation (min/avg/max) = 7.074 | 7.587 | 7.851 Mbytes
Step Temp E_pair E_mol TotEng Press Volume 
       0          300   -87463.866            0   -87231.236    201451.86    66970.015 
      50      299.466   -87733.238            0   -87501.022    4762.5529    71235.383 
     100    293.68624   -87722.719            0   -87494.986   -1679.3619    71380.629 
     150    296.02376   -87718.761            0   -87489.215     508.7303    71397.331 
     200    303.85673   -87720.753            0   -87485.133    641.13204     71356.53 
     250    302.62306   -87719.436            0   -87484.773   -1056.6176    71399.334 
     300    302.76622    -87723.18            0   -87488.406   -260.47157    71383.541 
     350    299.06308   -87724.191            0   -87492.288    339.09503     71417.48 
     400    301.37496   -87725.033            0   -87491.337   -238.22852    71386.798 
     450    298.32963   -87720.312            0   -87488.978    287.43537      71412.5 
     500    304.04085   -87718.641            0   -87482.879   -608.43666    71481.772 
     550    309.66445   -87718.996            0   -87478.872    9.2513389     71443.04 
     600    305.01618   -87719.733            0   -87483.213   -103.83784    71424.613 
     650    303.65138   -87723.662            0   -87488.201   -1171.5352    71421.453 
     700    301.16576   -87724.678            0   -87491.144    214.34164    71417.689 
     750    297.01074   -87722.504            0   -87492.192   -100.60728    71455.864 
     800    303.27707   -87722.499            0   -87487.328   -1221.4945    71459.462 
     850    301.70746   -87717.692            0   -87483.738    371.13688    71424.656 
     900    303.64691   -87720.461            0   -87485.004   -1059.0038    71458.081 
     950    301.08519   -87721.536            0   -87488.065    509.66108    71399.438 
    1000    298.75554   -87721.098            0   -87489.434   -869.52397    71455.577 
    1050    297.53793   -87720.552            0   -87489.832    429.20767    71443.256 
    1100    300.64973   -87722.553            0    -87489.42    72.120372    71427.854 
    1150    303.56382   -87720.406            0   -87485.013   -361.81307    71445.046 
    1200    303.05366   -87717.386            0   -87482.389    103.97558     71449.26 
    1250    304.63079   -87721.855            0   -87485.635   -266.33653    71433.333 
    1300    294.71441   -87719.684            0   -87491.153   -12.123448    71441.927 
    1350    299.77484   -87723.738            0   -87491.283   -250.85296    71477.234 
    1400    296.48989   -87719.554            0   -87489.646    374.45901     71456.85 
    1450     300.6083   -87719.297            0   -87486.196   -346.00583     71466.37 
    1500     306.5116   -87719.606            0   -87481.927     459.3978    71456.917 
    1550    301.88222   -87713.347            0   -87479.258   -596.08179    71513.123 
    1600    302.55587   -87719.398            0   -87484.786    81.085799    71462.414 
    1650    297.67129   -87720.801            0   -87489.978    1076.4779    71404.424 
    1700    297.59585   -87722.242            0   -87491.476   -1293.0258    71483.911 
    1750    297.61595   -87721.181            0     -87490.4    135.25073    71445.938 
    1800    298.11567   -87717.609            0    -87486.44   -444.63982    71459.191 
    1850    306.48028   -87721.079            0   -87483.425   -464.38861      71452.8 
    1900    301.18979   -87719.911            0   -87486.359    415.20464     71407.84 
    1950    292.56713   -87719.574            0   -87492.708   -531.01188    71462.908 
    2000    302.01896   -87726.202            0   -87492.007   -461.20002    71455.401 
    2050    300.35351   -87721.428            0   -87488.524    345.06581    71429.577 
    2100    301.41075   -87718.934            0   -87485.211   -601.16117    71464.178 
    2150    302.87237   -87720.129            0   -87485.272   -569.08509    71484.652 
    2200     297.9749   -87724.527            0   -87493.468    168.24867    71425.147 
    2250    296.04143   -87724.252            0   -87494.692   -174.68332    71428.801 
    2300    298.01905   -87722.016            0   -87490.923    225.70754    71438.335 
    2350    301.81743   -87720.826            0   -87486.788   -165.95327    71469.663 
    2400    302.87036   -87720.911            0   -87486.056    552.64286    71431.535 
    2450    300.28423   -87720.749            0   -87487.899    218.28502     71449.11 
    2500     292.4974   -87721.715            0   -87494.904    -848.7591     71478.92 
    2550    299.16524   -87726.279            0   -87494.297    1468.2887    71384.442 
    2600    295.02511   -87720.351            0   -87491.579    43.970745    71443.146 
    2650    297.42663   -87718.754            0    -87488.12   -503.71076    71487.308 
    2700    302.02527    -87721.07            0    -87486.87    247.65476     71445.52 
    2750    301.52073   -87721.592            0   -87487.783   -780.22279    71473.874 
    2800    298.80458   -87721.939            0   -87490.237    746.13038    71420.116 
    2850    296.11531   -87727.807            0    -87498.19   -500.76512    71452.914 
    2900    291.96287    -87723.58            0   -87497.183    737.67064    71412.997 
    2950    296.13891   -87721.043            0   -87491.408   -130.72078    71437.815 
    3000    299.83102   -87720.881            0   -87488.383    75.325018    71467.304 
    3050    297.45482   -87717.298            0   -87486.643    1254.7481     71420.73 
    3100    296.65464   -87717.749            0   -87487.714   -960.59914     71477.71 
    3150    301.03837   -87726.667            0   -87493.232    510.15195    71419.902 
    3200    297.35186   -87725.899            0   -87495.323    339.29504    71445.329 
    3250    295.29009   -87721.172            0   -87492.195   -517.69238    71454.851 
    3300    294.19141   -87717.884            0   -87489.759    628.17254    71440.589 
    3350    301.31369   -87721.822            0   -87488.174   -146.87391    71453.139 
    3400    300.04766   -87720.493            0   -87487.827   -595.98821    71469.732 
    3450    296.17532    -87719.36            0   -87489.697    330.94796    71450.971 
    3500    294.91746   -87723.725            0   -87495.036    32.599939    71423.915 
    3550    292.76424    -87721.34            0   -87494.321    189.60424    71433.085 
    3600    299.04112   -87721.209            0   -87489.323   -256.40599    71453.723 
    3650     299.8001   -87719.811            0   -87487.337    133.68444    71466.937 
    3700    302.41759   -87721.573            0   -87487.068    289.52081    71453.347 
    3750    299.82297   -87721.554            0   -87489.062    235.13705    71429.636 
    3800    296.43395   -87723.971            0   -87494.107   -440.63313    71451.522 
    3850    297.37601   -87728.814            0   -87498.219    862.90354    71422.297 
    3900    297.55221   -87723.476            0   -87492.745   -1748.5616     71531.71 
    3950    301.99283   -87722.756            0   -87488.581    74.388744    71441.868 
    4000    298.41729   -87719.184            0   -87487.782    818.43728    71427.305 
    4050    298.38819   -87719.043            0   -87487.664   -1305.1475    71496.563 
    4100    301.65117   -87722.674            0   -87488.764    935.95428    71432.102 
    4150    299.64157   -87724.188            0   -87491.836   -29.450419     71457.52 
    4200     300.2634   -87726.885            0   -87494.051   -1179.8565    71468.531 
    4250    299.92146   -87724.956            0   -87492.387    411.97052    71434.727 
    4300    300.81403    -87719.61            0   -87486.349   -115.37742    71454.673 
    4350    303.49708   -87721.025            0   -87485.684    139.99904    71432.906 
    4400    300.71825   -87721.371            0   -87488.185   -732.07287    71467.724 
    4450     297.6768   -87723.327            0   -87492.499    422.18206    71448.437 
    4500    295.19954   -87721.963            0   -87493.056   -186.39025    71450.503 
    4550    302.96783     -87719.7            0   -87484.769    223.21111    71436.134 
    4600    301.42579   -87716.684            0   -87482.949   -468.04789    71480.723 
    4650    301.76394   -87720.935            0   -87486.938    116.24974    71459.467 
    4700    295.43672   -87720.096            0   -87491.005   -592.54527    71460.097 
    4750    299.74852   -87724.675            0    -87492.24   -138.37173    71462.936 
    4800    298.52056   -87720.989            0   -87489.506   -727.33764     71495.04 
    4850    305.22722   -87720.234            0   -87483.551    268.47572    71448.888 
    4900    298.71123   -87715.883            0   -87484.253     489.3159    71439.935 
    4950    299.44394   -87718.988            0   -87486.789   -845.10855    71477.285 
    5000     297.4499   -87720.217            0   -87489.565    306.27793    71441.525 
Loop time of 45.7903 on 24 procs for 5000 steps with 6000 atoms

Performance: 18.869 ns/day, 1.272 hours/ns, 109.193 timesteps/s
99.6% CPU use with 24 MPI tasks x no OpenMP threads

MPI task timing breakdown:
Section |  min time  |  avg time  |  max time  |%varavg| %total
---------------------------------------------------------------
Pair    | 42.392     | 43.199     | 44.667     |   8.3 | 94.34
Bond    | 0.00065281 | 0.00096336 | 0.0018873  |   0.0 |  0.00
Neigh   | 0.011068   | 0.012047   | 0.013132   |   0.5 |  0.03
Comm    | 0.70319    | 1.7357     | 2.4612     |  34.7 |  3.79
Output  | 0.0046003  | 0.0047628  | 0.006601   |   0.6 |  0.01
Modify  | 0.2672     | 0.73404    | 1.1986     |  44.0 |  1.60
Other   |            | 0.1032     |            |       |  0.23

Nlocal:    250 ave 266 max 229 min
Histogram: 1 4 1 2 2 1 3 2 5 3
Nghost:    5560.62 ave 5652 max 5455 min
Histogram: 1 3 3 2 2 2 1 3 3 4
Neighs:    93234.5 ave 100569 max 85438 min
Histogram: 1 3 2 3 5 1 1 0 5 3

Total # of neighbors = 2237629
Ave neighs/atom = 372.938
Ave special neighs/atom = 0
Neighbor list builds = 5
Dangerous builds = 4

unfix thermostat_fix1

fix thermostat_ramp all npt temp 300 $T ${THERMO_DAMP} aniso 0.0 0.0 ${BARO_DAMP}
fix thermostat_ramp all npt temp 300 3000 ${THERMO_DAMP} aniso 0.0 0.0 ${BARO_DAMP}
fix thermostat_ramp all npt temp 300 3000 0.1 aniso 0.0 0.0 ${BARO_DAMP}
fix thermostat_ramp all npt temp 300 3000 0.1 aniso 0.0 0.0 0.5

run ${rampsteps}
run 10000
Per MPI rank memory allocation (min/avg/max) = 7.075 | 7.597 | 8.086 Mbytes
Step Temp E_pair E_mol TotEng Press Volume 
    5000     297.4499   -87720.217            0   -87489.565    306.27793    71441.525 
    5050    297.38342   -87716.777            0   -87486.176   -384.46436     71474.75 
    5100     307.6076   -87715.385            0   -87476.857   -83.990623    71472.331 
    5150    316.01546   -87708.404            0   -87463.355    470.04614    71475.959 
    5200    329.01528   -87701.391            0   -87446.262   -1165.4315    71547.675 
    5250    336.12987   -87687.705            0   -87427.059    1955.1884    71455.736 
    5300    352.14003   -87678.288            0   -87405.228   -856.63603    71588.531 
    5350    368.43605   -87667.922            0   -87382.225    969.08947    71553.491 
    5400    386.13965   -87657.248            0   -87357.823    218.40399    71597.644 
    5450    394.28651   -87638.649            0   -87332.907   -2104.5201    71701.131 
    5500    405.82955   -87622.336            0   -87307.643    1012.5856    71646.031 
    5550    432.77015   -87617.617            0   -87282.033    198.40824    71718.142 
    5600    443.02829   -87600.565            0   -87257.027    -109.0401    71742.577 
    5650    470.22274   -87596.784            0   -87232.158    834.30576    71737.486 
    5700    474.63925   -87576.172            0   -87208.121   -1034.4363    71891.849 
    5750     490.5843   -87564.001            0   -87183.586    1381.6008    71831.062 
    5800    504.03212   -87551.933            0   -87161.091   -853.33077    71889.762 
    5850    515.46612   -87536.741            0   -87137.032    -946.0502    71960.902 
    5900    533.19238   -87528.003            0   -87114.549    154.92542    71980.397 
    5950    557.01285   -87523.902            0   -87091.976    205.82225    71966.806 
    6000    555.96003   -87501.845            0   -87070.736     850.2463    71970.497 
    6050     575.3679   -87494.514            0   -87048.355   -111.78008    72045.292 
    6100    583.52962   -87478.834            0   -87026.347    714.15975    72081.211 
    6150     596.5848   -87467.489            0   -87004.879   -1862.2996    72173.636 
    6200     613.0238   -87457.661            0   -86982.303    749.44979    72131.912 
    6250    637.88366   -87454.107            0   -86959.472    1115.0511    72135.153 
    6300    649.22985   -87441.698            0   -86938.264    771.27587    72144.162 
    6350    656.58088   -87426.672            0   -86917.539    205.26476    72246.136 
    6400     672.8472   -87416.861            0   -86895.114    916.45747    72216.992 
    6450    683.37162   -87403.742            0   -86873.834   -60.018668    72239.913 
    6500    701.49848    -87396.72            0   -86852.756    -345.5597    72302.395 
    6550    710.84956   -87381.635            0    -86830.42   -440.06971    72344.093 
    6600    723.45729   -87369.551            0    -86808.56    178.94344     72405.01 
    6650    739.17621   -87359.632            0   -86786.451     936.5858    72359.023 
    6700      754.786   -87349.953            0   -86764.668   -1476.0269    72416.216 
    6750    764.10018   -87336.137            0   -86743.629    2066.1401    72398.332 
    6800    778.21387   -87325.155            0   -86721.703   -1168.4286     72528.99 
    6850    792.26964    -87314.97            0   -86700.619   -753.89354    72581.482 
    6900    807.50043   -87305.284            0   -86679.122    708.39971      72497.2 
    6950     801.9829   -87279.944            0   -86658.061    988.54414     72577.44 
    7000    835.50385   -87284.468            0   -86636.592   -1172.0171    72669.261 
    7050    848.37246   -87273.375            0   -86615.521    866.17163    72633.077 
    7100    857.61009   -87259.466            0   -86594.448    -116.5678    72682.197 
    7150     874.7658   -87251.536            0   -86573.215   -382.43222    72664.725 
    7200    879.88306   -87234.732            0   -86552.443    875.51917    72682.431 
    7250    900.83891   -87227.998            0   -86529.459     1312.589    72709.551 
    7300    909.97133   -87213.913            0   -86508.292   -1952.1181    72818.327 
    7350    930.24427   -87207.938            0   -86486.597    251.03665    72753.102 
    7400    940.10973    -87192.82            0   -86463.829   -587.24945    72816.523 
    7450    961.36584   -87187.614            0   -86442.141    1001.8037    72790.128 
    7500    968.84888   -87170.741            0   -86419.465   -808.75817    72916.499 
    7550    979.10535   -87156.914            0   -86397.684    840.16837     72915.11 
    7600    971.42722   -87129.479            0   -86376.204   -2645.8606    73063.801 
    7650    1002.0901   -87129.709            0   -86352.657   -170.45637    72962.202 
    7700    1016.5075   -87117.634            0   -86329.402     4020.187    72852.874 
    7750    1038.2055   -87112.718            0   -86307.661   -1345.8022    73074.122 
    7800    1041.9077   -87092.385            0   -86284.457    1198.0587     73053.57 
    7850    1066.9263   -87089.989            0   -86262.661     487.7683    73051.492 
    7900    1073.7627   -87072.592            0   -86239.963   -3169.9458    73195.922 
    7950    1091.0474   -87064.909            0   -86218.877    1404.1627    73101.909 
    8000    1108.9795    -87055.13            0   -86195.192    1152.4434    73122.693 
    8050    1105.4406   -87030.043            0   -86172.849   -1708.5675    73294.598 
    8100    1120.6478   -87020.859            0   -86151.874    347.07599    73279.202 
    8150    1140.3834   -87013.591            0   -86129.302    2490.5662    73168.762 
    8200    1146.5592    -86997.86            0   -86108.782    784.94192    73317.107 
    8250    1167.0497   -86989.213            0   -86084.246   -1513.9764    73378.029 
    8300    1190.0958   -86985.448            0    -86062.61    1015.0954    73290.346 
    8350    1198.4871   -86968.537            0   -86039.193    233.97077    73402.745 
    8400    1207.3031    -86953.31            0   -86017.129    2108.1287    73367.707 
    8450     1210.044   -86932.182            0   -85993.876   -1608.7827    73519.117 
    8500    1223.0609   -86918.431            0   -85970.031    3059.2621    73441.042 
    8550    1248.2975   -86914.274            0   -85946.304    606.61746    73501.953 
    8600    1276.2544   -86913.749            0   -85924.101    598.06656    73470.539 
    8650    1267.3635   -86884.465            0   -85901.711   -1322.8352    73606.976 
    8700    1276.3848   -86870.186            0   -85880.437    -92.49573    73628.767 
    8750    1297.2036   -86862.192            0   -85856.299   -1673.7762    73670.311 
    8800    1295.8031   -86838.769            0   -85833.963    1884.7735    73604.894 
    8850    1325.5975   -86837.297            0   -85809.386   -2407.2276    73786.091 
    8900    1336.3914   -86822.996            0   -85786.716   -478.38283    73785.383 
    8950    1351.8462   -86812.057            0   -85763.793    2345.9459    73690.164 
    9000    1358.3674   -86792.749            0   -85739.428    231.54458    73818.413 
    9050    1385.0512   -86790.965            0   -85716.953   -742.90394    73908.956 
    9100    1396.8247    -86777.73            0   -85694.588    1583.2105    73831.612 
    9150    1399.6891   -86757.154            0   -85671.791    221.70148    73906.813 
    9200    1431.4565   -86757.885            0   -85647.889   -1416.6856    73909.501 
    9250    1423.9672   -86729.231            0   -85625.041   -568.80683    73994.134 
    9300    1460.8903    -86733.63            0   -85600.809    2962.2571    73837.959 
    9350    1460.1781   -86711.301            0   -85579.033    578.08777     74038.41 
    9400     1473.558   -86700.316            0   -85557.673   -1785.3748    74080.329 
    9450    1482.7574   -86683.845            0   -85534.068   -382.17192    74083.025 
    9500     1517.019   -86689.525            0    -85513.18    2671.5978     73980.74 
    9550    1525.2622   -86671.081            0   -85488.345    117.69743     74230.05 
    9600    1494.8033   -86624.827            0   -85465.709   -1493.7546    74318.896 
    9650    1515.9549   -86613.581            0   -85438.061   -1528.6922    74364.666 
    9700    1557.0318   -86619.106            0   -85411.734    31.212782    74274.559 
    9750    1582.2354   -86615.106            0   -85388.191   -49.968822    74296.965 
    9800    1592.5126   -86598.878            0   -85363.994    600.28416     74386.75 
    9850    1606.6445   -86586.257            0   -85340.414   -1023.2985    74442.781 
    9900    1588.0812   -86549.049            0     -85317.6    1805.1827    74462.168 
    9950    1616.1289   -86545.551            0   -85292.353   -341.97647    74526.318 
   10000    1614.2301   -86521.746            0   -85270.021    2431.3814    74438.789 
   10050    1672.9061   -86542.597            0   -85245.373    917.52314    74510.885 
   10100    1652.4955   -86505.447            0    -85224.05    1160.7953    74538.896 
   10150    1661.2026   -86490.654            0   -85202.505   -3208.5343    74732.497 
   10200    1697.8918   -86495.676            0   -85179.077    157.84531    74634.921 
   10250     1694.416   -86475.409            0   -85161.506     333.6512    74687.825 
   10300    1716.0097   -86461.665            0   -85131.017   -148.02395    74712.252 
   10350    1719.9643   -86441.066            0   -85107.352   -626.84632    74771.099 
   10400    1742.1753   -86432.109            0   -85081.171    756.76727    74750.326 
   10450    1770.3629   -86427.061            0   -85054.266    477.91796    74742.822 
   10500    1750.7635   -86390.063            0   -85032.465    1404.1371    74831.793 
   10550    1772.9391   -86386.374            0   -85011.581   -2730.8064    74978.468 
   10600     1814.727   -86391.683            0   -84984.486     1199.858    74900.076 
   10650     1825.104   -86379.686            0   -84964.443     250.1639     74894.97 
   10700    1828.7622   -86359.171            0   -84941.091   -110.48883    74882.739 
   10750    1819.0567   -86329.545            0   -84918.991    220.89677    75006.696 
   10800    1857.4623   -86333.741            0   -84893.406    681.65566    75055.249 
   10850    1852.4542   -86305.688            0   -84869.236   -640.69786     75190.02 
   10900    1853.5674   -86280.792            0   -84843.478   -827.63789     75192.34 
   10950    1894.2315   -86284.046            0   -84815.199    2464.9823    75148.996 
   11000    1910.9087    -86273.43            0   -84791.651    -2843.536    75333.379 
   11050    1916.2551   -86248.671            0   -84762.746    3320.8216    75194.285 
   11100    1930.6232   -86239.866            0     -84742.8    1993.7959    75179.677 
   11150    1955.6219   -86231.409            0   -84714.958   -1889.8408    75423.747 
   11200    1929.8913   -86190.801            0   -84694.302   -787.22658    75462.725 
   11250     1969.569   -86194.087            0   -84666.821   -84.880903     75381.79 
   11300    1970.5813   -86169.517            0   -84641.466    -750.6087    75492.128 
   11350     2001.412   -86165.246            0   -84613.287   -1524.7648    75526.741 
   11400    2032.7816   -86166.881            0   -84590.598     1113.655     75483.52 
   11450    2009.2154   -86119.096            0   -84561.087    595.85446    75576.544 
   11500    2030.3086    -86110.24            0   -84535.874    1093.9922    75581.764 
   11550     2049.375   -86101.755            0   -84512.605    508.20748    75615.883 
   11600    2072.0839   -86088.201            0   -84481.442   -315.69248    75686.018 
   11650    2052.3321   -86046.088            0   -84454.645   -4834.0004    75971.994 
   11700    2139.2351   -86077.831            0       -84419    1440.1727    75612.499 
   11750    2115.4634   -86035.611            0   -84395.214    2427.4264    75703.493 
   11800    2140.1269   -86024.485            0   -84364.963   -2592.1302    75923.827 
   11850     2137.976   -85998.606            0   -84340.752    2563.1126    75720.367 
   11900    2116.4433   -85957.822            0   -84316.665    1092.5487    75872.674 
   11950    2165.3633   -85968.482            0   -84289.391   -2018.2762    76106.782 
   12000    2178.4484   -85958.196            0   -84268.958   -1946.2452    75962.375 
   12050    2187.6342   -85934.144            0   -84237.783    1683.0469    75929.231 
   12100    2187.4573   -85910.256            0   -84214.033    698.69932    76077.207 
   12150    2199.5242   -85890.366            0   -84184.786   -751.12319    76020.623 
   12200    2231.1028   -85880.197            0   -84150.129    567.92625     76108.35 
   12250    2253.8699   -85867.259            0   -84119.537   -71.357824    76133.651 
   12300    2251.0883   -85833.464            0   -84087.899    1466.0874    76093.902 
   12350    2264.2033   -85809.256            0   -84053.521    2096.0121    76074.739 
   12400    2303.5062   -85809.571            0   -84023.359   -3517.2815    76373.978 
   12450    2292.7427    -85779.77            0   -84001.905    1348.3949     76304.63 
   12500    2300.9619   -85749.573            0   -83965.334   -108.51634    76412.969 
   12550    2337.6299   -85752.109            0   -83939.437   -1088.4022    76333.163 
   12600    2336.9465   -85731.969            0   -83919.827    682.96638    76351.193 
   12650    2338.4252   -85700.971            0   -83887.682    1717.6541     76308.41 
   12700    2376.9503    -85694.77            0   -83851.607   -1743.6564    76428.256 
   12750    2357.7592   -85656.607            0   -83828.326    756.34105    76358.256 
   12800    2420.8181   -85668.236            0   -83791.057   -158.84559    76461.952 
   12850    2420.3786   -85638.609            0   -83761.771    -459.9915    76611.116 
   12900    2431.4834   -85622.502            0   -83737.053   -1016.7856    76537.739 
   12950    2426.8167   -85600.638            0   -83718.808    2351.5825    76563.979 
   13000    2411.0396   -85560.011            0   -83690.415   -4157.1829    76690.165 
   13050    2455.1069   -85566.185            0   -83662.418     671.5429    76507.691 
   13100    2468.6408   -85537.136            0   -83622.874    989.89227    76591.734 
   13150    2453.1589   -85488.784            0   -83586.527   -3318.1713    76792.757 
   13200    2513.9406   -85504.038            0   -83554.649    2775.8645    76555.213 
   13250    2476.6007   -85440.482            0   -83520.047   -167.15377    76699.495 
   13300    2525.0999   -85449.102            0    -83491.06   -486.40968    76725.705 
   13350    2555.6566   -85447.431            0   -83465.694   -455.50202    76741.651 
   13400    2541.7682   -85404.553            0   -83433.586   -3234.0698    76912.876 
   13450    2556.4736    -85384.28            0   -83401.909   -1991.8565    76805.928 
   13500    2567.7093   -85364.118            0   -83373.036   -667.63128    76775.308 
   13550    2558.8742    -85322.66            0   -83338.428    2583.7467    76743.511 
   13600    2620.2996   -85334.011            0   -83302.148    565.47866    76731.057 
   13650    2633.0325   -85320.737            0       -83279   -241.21728    76744.007 
   13700      2634.64   -85283.208            0   -83240.225    4375.4403    76708.393 
   13750    2644.6667   -85267.102            0   -83216.344    218.87404    76753.773 
   13800    2638.1487   -85237.516            0   -83191.812    1348.4898    76870.815 
   13850    2688.3951   -85238.469            0   -83153.802    835.70006    76900.589 
   13900    2673.5982   -85219.716            0   -83146.523    1008.2993     76824.68 
   13950     2695.087   -85210.749            0   -83120.893   -3860.1038    77242.696 
   14000    2725.4784   -85189.536            0   -83076.114   -3289.1209    77101.488 
   14050    2715.0856   -85169.426            0   -83064.062   -322.08955    77068.768 
   14100    2755.3344   -85163.982            0   -83027.409    3637.8812    76995.761 
   14150    2802.8425   -85161.055            0   -82987.642    2343.2205    76989.598 
   14200     2766.763   -85115.384            0   -82969.948     2822.527    77044.061 
   14250    2778.4921   -85091.442            0   -82936.911   -930.50794    77398.836 
   14300    2804.1606   -85080.762            0   -82906.327   -1612.1653     77450.99 
   14350    2794.5082   -85045.226            0   -82878.276    2542.7637    77219.388 
   14400    2863.4487   -85065.067            0   -82844.659   -1255.2012    77413.749 
   14450    2818.5831   -85010.273            0   -82824.654   -2862.2472     77572.11 
   14500    2888.3958   -85036.757            0   -82797.003    5102.1704    77196.534 
   14550    2873.7089    -85006.52            0   -82778.156   -2388.2941    77487.015 
   14600    2835.1142   -84939.733            0   -82741.296     2886.034    77474.897 
   14650    2871.2562   -84897.031            0   -82670.568   -1407.5528    77621.876 
   14700    2933.2171   -84935.681            0   -82661.171    -802.9933    77641.538 
   14750    2957.5925    -84961.21            0     -82667.8    126.04089    77599.751 
   14800    2919.6783   -84922.295            0   -82658.285    4217.0237    77440.487 
   14850    2938.4818   -84879.909            0   -82601.317   -616.66049    77876.965 
   14900    2957.2053     -84860.5            0    -82567.39    16.930968    77721.615 
   14950     3000.716   -84862.769            0   -82535.919    429.29044    77649.656 
   15000    2982.1659   -84821.606            0    -82509.14   -730.65712    77577.059 
Loop time of 90.2035 on 24 procs for 10000 steps with 6000 atoms

Performance: 19.157 ns/day, 1.253 hours/ns, 110.860 timesteps/s
99.6% CPU use with 24 MPI tasks x no OpenMP threads

MPI task timing breakdown:
Section |  min time  |  avg time  |  max time  |%varavg| %total
---------------------------------------------------------------
Pair    | 82.925     | 83.868     | 85.836     |   7.9 | 92.98
Bond    | 0.001297   | 0.0018999  | 0.0035333  |   1.6 |  0.00
Neigh   | 1.3708     | 1.4321     | 1.4867     |   2.9 |  1.59
Comm    | 1.7362     | 3.3047     | 4.3052     |  36.2 |  3.66
Output  | 0.0093054  | 0.0095672  | 0.011916   |   0.5 |  0.01
Modify  | 0.91684    | 1.4284     | 2.0292     |  36.6 |  1.58
Other   |            | 0.1589     |            |       |  0.18

Nlocal:    250 ave 261 max 240 min
Histogram: 3 1 3 1 4 4 3 4 0 1
Nghost:    4999.12 ave 5066 max 4946 min
Histogram: 3 2 2 3 5 3 1 3 0 2
Neighs:    87605 ave 90736 max 82314 min
Histogram: 1 0 1 2 2 3 6 2 5 2

Total # of neighbors = 2102519
Ave neighs/atom = 350.42
Ave special neighs/atom = 0
Neighbor list builds = 618
Dangerous builds = 192

unfix thermostat_ramp

fix thermostat_eq all npt temp $T $T ${THERMO_DAMP} aniso 0.0 0.0 ${BARO_DAMP}
fix thermostat_eq all npt temp 3000 $T ${THERMO_DAMP} aniso 0.0 0.0 ${BARO_DAMP}
fix thermostat_eq all npt temp 3000 3000 ${THERMO_DAMP} aniso 0.0 0.0 ${BARO_DAMP}
fix thermostat_eq all npt temp 3000 3000 0.1 aniso 0.0 0.0 ${BARO_DAMP}
fix thermostat_eq all npt temp 3000 3000 0.1 aniso 0.0 0.0 0.5

variable AVE_START equal 20000
variable V equal vol
variable LX equal lx
variable LY equal ly
variable LZ equal lz
fix avg_V_fix all ave/time 1 1000 1000 v_V start ${AVE_START}
fix avg_V_fix all ave/time 1 1000 1000 v_V start 20000
fix avg_LX_fix all ave/time 1 1000 1000 v_LX start ${AVE_START}
fix avg_LX_fix all ave/time 1 1000 1000 v_LX start 20000
fix avg_LY_fix all ave/time 1 1000 1000 v_LY start ${AVE_START}
fix avg_LY_fix all ave/time 1 1000 1000 v_LY start 20000
fix avg_LZ_fix all ave/time 1 1000 1000 v_LZ start ${AVE_START}
fix avg_LZ_fix all ave/time 1 1000 1000 v_LZ start 20000

variable AVG_V equal f_avg_V_fix
variable AVG_LX equal f_avg_LX_fix
variable AVG_LY equal f_avg_LY_fix
variable AVG_LZ equal f_avg_LZ_fix

variable VOL equal ${AVG_V}
variable VOL equal 0
variable LP equal (${VOL}/(4*4*${zunits}))^(1/3)
variable LP equal (0/(4*4*${zunits}))^(1/3)
variable LP equal (0/(4*4*20))^(1/3)

print "OUTPUT:${AVG_V}:${AVG_LX}:${AVG_LY}:${AVG_LZ}:${LP}"
OUTPUT:0:0:0:0:0

unfix avg_V_fix
unfix avg_LX_fix
unfix avg_LY_fix
unfix avg_LZ_fix

run ${equilsteps}
run 10000
Per MPI rank memory allocation (min/avg/max) = 7.075 | 7.639 | 8.086 Mbytes
Step Temp E_pair E_mol TotEng Press Volume 
   15000    2982.1659   -84821.606            0    -82509.14   -730.65712    77577.059 
   15050    3026.2683   -84843.194            0    -82496.53   -1210.8193    77716.368 
   15100    3009.9049    -84799.64            0   -82465.664   -102.48549    77627.947 
   15150     3009.954   -84753.104            0   -82419.091    1861.6191    77639.965 
   15200    3029.0915   -84753.629            0   -82404.775   -7096.7941    78018.461 
   15250    3043.8209   -84776.333            0   -82416.058    3697.2498    77595.525 
   15300    2968.3278   -84790.604            0   -82488.869   -2403.4533    77711.874 
   15350    2957.2877   -84792.145            0    -82498.97   -3258.4089    77714.763 
   15400    3052.1922   -84838.692            0   -82471.925    3422.3047    77591.949 
   15450    3009.5296   -84781.112            0   -82447.428   -763.95837    77842.122 
   15500    3007.5235   -84729.964            0   -82397.835    2342.7029    77751.997 
   15550    3007.2437   -84707.187            0   -82375.275    986.38191    77898.134 
   15600    3007.2878   -84749.376            0    -82417.43    2689.6784    77742.925 
   15650    3022.7089   -84792.487            0   -82448.583   -1966.0116    77844.296 
   15700    3015.8873   -84815.141            0   -82476.526   -836.84649    77746.188 
   15750    2978.4465   -84800.164            0   -82490.582    530.89539    77755.312 
   15800    2948.9006   -84784.367            0   -82497.697   -522.65483    77868.757 
   15850    3008.6057   -84794.336            0   -82461.368    483.50143    77787.679 
   15900    3032.2326   -84777.006            0   -82425.717   -923.10291    77875.082 
   15950    3090.3197   -84807.584            0   -82411.253   -228.79115    78022.854 
   16000    2983.1673   -84794.668            0   -82481.426   -997.85116    77737.894 
   16050    3002.0764   -84847.155            0    -82519.25     1356.705    77566.365 
   16100    2980.9813   -84835.167            0    -82523.62   -1483.0062     77714.19 
   16150    3033.1433   -84847.742            0   -82495.747    614.12075    77739.172 
   16200    3006.6538   -84796.913            0   -82465.458   -3439.9182    77855.988 
   16250    3017.7644   -84756.808            0   -82416.738    767.99849    77775.022 
   16300    3018.4027   -84765.123            0   -82424.558    3210.4168    77662.754 
   16350    2971.5774   -84794.754            0   -82490.499   -4143.9056    77894.618 
   16400    2969.8692   -84806.958            0   -82504.028    1054.6718    77567.671 
   16450    2995.0248   -84824.269            0   -82501.832    192.62099    77640.872 
   16500    2936.4289   -84772.893            0   -82495.894    570.01373    77699.022 
   16550    2961.6651   -84742.635            0   -82446.066    1109.6122    77787.288 
   16600    3016.1171   -84761.433            0    -82422.64    2356.2361    77745.234 
   16650    2990.6502   -84754.316            0   -82435.272   -1878.8948    77848.683 
   16700    2998.9036   -84783.047            0   -82457.602   -48.716843    77730.476 
   16750    3003.8926    -84812.01            0   -82482.697   -2954.7571    77731.406 
   16800    3009.7155    -84824.54            0   -82490.712   -378.57306    77663.904 
   16850    2989.3197   -84807.352            0   -82489.339   -1215.3714    77785.553 
   16900    2973.3725   -84802.097            0    -82496.45    590.96865    77707.529 
   16950    3008.9743    -84830.69            0   -82497.436    648.89238    77534.516 
   17000    2991.9231   -84818.983            0   -82498.952   -1827.3296    77810.761 
   17050    3009.6131   -84813.204            0   -82479.454    1161.9242    77799.657 
   17100    3013.1652   -84795.096            0   -82458.592     1566.282    77767.598 
   17150    3002.2268   -84802.815            0   -82474.793    781.36928    77829.477 
   17200    2965.7196    -84814.56            0   -82514.847    2284.0329    77634.594 
   17250    2963.5269   -84825.412            0   -82527.399   -1348.7673    77656.227 
   17300    3003.2585   -84804.914            0   -82476.092    670.45786    77767.687 
   17350    2992.7592    -84758.73            0    -82438.05   -514.29025    77877.656 
   17400    3034.9965   -84792.996            0   -82439.564   -2156.2171    77882.876 
   17450    3009.5786    -84804.32            0   -82470.598    415.94038    77737.297 
   17500    2964.6307   -84817.553            0   -82518.685   -3007.1732    77814.343 
   17550     2956.641   -84837.709            0   -82545.036   -1575.3496    77646.075 
   17600    2951.5814   -84834.443            0   -82545.693    3515.9489    77620.034 
   17650    2973.2516   -84795.538            0   -82489.985    1339.2523    77704.503 
   17700    3013.2665   -84786.544            0   -82449.962   -4294.8346    77868.237 
   17750    3017.8501   -84777.708            0   -82437.572    1576.0258    77803.084 
   17800    2999.4648   -84802.644            0   -82476.764   -2657.1173    77821.467 
   17850    2997.9186   -84840.543            0   -82515.863    1901.8617    77566.026 
   17900    2974.0166   -84819.591            0   -82513.445   -277.22072    77763.544 
   17950    2998.6469   -84814.889            0   -82489.644    1493.7609    77790.159 
   18000    3033.5536    -84826.71            0   -82474.397    2156.8771    77591.076 
   18050    3030.8846   -84820.624            0    -82470.38   -2455.3305    77701.466 
   18100    3041.5518    -84844.32            0   -82485.805    519.14331    77755.433 
   18150    3006.5062   -84831.087            0   -82499.747   -666.57547    77701.393 
   18200    3018.8216   -84818.452            0   -82477.562   -1255.6181    77712.674 
   18250    3011.1289   -84743.888            0   -82408.964    1901.1914    77746.866 
   18300    3053.4194    -84751.53            0   -82383.812    -4087.278    77990.935 
   18350    3075.0358   -84794.594            0   -82410.114    1495.6971    77734.337 
   18400    3020.9682    -84796.97            0   -82454.416   -888.09279    77811.234 
   18450    3010.4952   -84806.628            0   -82472.195   -817.23813    77857.884 
   18500    3001.8553   -84812.735            0   -82485.002   -1401.4283    77738.683 
   18550     2950.345   -84791.559            0   -82503.768   -246.66781    77679.422 
   18600     2977.977   -84848.923            0   -82539.706   -881.27929    77733.534 
   18650     2990.139   -84893.542            0   -82574.893    3200.0617    77393.977 
   18700     2976.773   -84876.444            0    -82568.16   -1141.2422    77514.018 
   18750     3032.771   -84850.642            0   -82498.936    178.46615    77732.778 
   18800    3033.0857   -84828.049            0   -82476.098    2205.5173    77763.755 
   18850    2973.2648   -84791.419            0   -82485.855   -225.45538    77735.513 
   18900    3013.8028   -84842.111            0   -82505.113    2716.9576    77625.628 
   18950     2981.352   -84846.447            0   -82534.612   -485.63372    77685.198 
   19000    2961.7338   -84855.918            0   -82559.296    3841.4757    77467.517 
   19050    2954.2376   -84847.135            0   -82556.326    49.056852    77553.164 
   19100    3044.7428   -84855.301            0   -82494.312   -2154.2413     77804.65 
   19150    3003.7332   -84798.143            0   -82468.953   -680.26496    77883.877 
   19200    3018.7217   -84783.513            0     -82442.7     1061.596    77740.569 
   19250    3056.9028   -84793.302            0   -82422.883   -1059.0909    77740.576 
   19300    3035.2422   -84807.981            0   -82454.358   -4.8460261    77820.072 
   19350    2972.3185    -84820.75            0    -82515.92    1077.7044    77692.824 
   19400    2979.2508   -84839.378            0   -82529.173    3380.0942    77556.398 
   19450    2967.5863    -84846.42            0    -82545.26   -5035.1728    77787.464 
   19500    3006.3682   -84851.125            0   -82519.892    852.57151    77828.416 
   19550    2998.5407   -84788.448            0   -82463.285    694.08453     77959.08 
   19600    3058.3932    -84821.52            0   -82449.945   -1460.8265    77916.121 
   19650    3020.0431   -84817.401            0   -82475.564    154.19986    77688.776 
   19700    2988.5592   -84826.766            0   -82509.343    2666.0654    77620.898 
   19750    3002.1262   -84850.817            0   -82522.874   -1854.8844    77773.433 
   19800    3000.4926   -84852.368            0   -82525.691    2103.2179    77708.134 
   19850    3001.3949   -84853.618            0   -82526.242    -1436.595    77895.552 
   19900    2977.3588   -84802.858            0    -82494.12     1834.341    77808.622 
   19950    3005.7586   -84782.089            0   -82451.329    4937.9814    77872.519 
   20000    3051.9953   -84827.484            0    -82460.87   -4306.9517    78070.617 
   20050    3001.7046   -84871.328            0   -82543.711    1142.8836    77695.323 
   20100    2968.3905   -84851.702            0   -82549.918   -3065.5716    77780.669 
   20150    2973.2037   -84810.038            0   -82504.522   -813.44268    77738.972 
   20200    3021.1831   -84810.901            0    -82468.18    674.53223    77760.898 
   20250    2968.1809   -84774.515            0   -82472.894   -1928.1975    77849.081 
   20300    2997.2061    -84828.03            0   -82503.902   -572.29342    77795.132 
   20350    2970.3744   -84856.759            0   -82553.437   -2457.0645    77742.516 
   20400    2993.1914   -84892.188            0   -82571.172   -627.77859    77519.678 
   20450    3003.2213   -84836.609            0   -82507.817    364.19246    77504.915 
   20500    2973.4623   -84785.825            0   -82480.109   -218.23963    77747.509 
   20550    2959.0109   -84758.466            0   -82463.956    985.30357    77659.007 
   20600    3007.6653   -84774.551            0   -82442.312    3499.9631    77677.076 
   20650    2961.2366   -84732.138            0   -82435.901   -3663.9783    78036.047 
   20700    3028.9679    -84765.51            0   -82416.753    1424.0204    77798.238 
   20750    3011.1935    -84763.13            0   -82428.155   -2539.8033    77811.771 
   20800    2972.7104   -84788.045            0   -82482.911     469.6654    77764.501 
   20850    2988.6955   -84825.919            0    -82508.39   -792.31442    77783.969 
   20900    2912.0059   -84776.596            0   -82518.535    3350.9161    77657.964 
   20950    2990.0238   -84783.558            0   -82464.999    3444.4153    77720.863 
   21000    3026.0938   -84768.684            0   -82422.155   -5069.7469    78015.417 
   21050    3056.9767   -84810.652            0   -82440.175    1619.5051    77645.537 
   21100     2983.827   -84807.296            0   -82493.542    738.08231    77762.215 
   21150    2973.1123    -84819.36            0   -82513.915   -439.12389    77732.094 
   21200    2974.3941   -84830.273            0   -82523.834    3884.0103    77531.637 
   21250    2979.6883   -84806.952            0   -82496.408   -2628.1549    77838.945 
   21300    3036.7368   -84788.769            0   -82433.987    2976.6276    77708.334 
   21350    3013.4886   -84764.339            0   -82427.585   -2811.1052    77835.312 
   21400    3019.6344   -84797.338            0   -82455.818   -774.58781    77880.113 
   21450    2970.5378   -84798.872            0   -82495.423    634.19186    77755.427 
   21500    2958.5787   -84791.305            0    -82497.13    1380.6553     77653.32 
   21550    2978.3119   -84795.345            0   -82485.868   -905.48809    77705.362 
   21600     3001.217   -84788.892            0   -82461.653   -1425.9506    77758.538 
   21650    3053.6549   -84806.509            0   -82438.608   -3460.9171    77913.727 
   21700    3063.9953    -84791.69            0   -82415.771    2371.7642    77686.753 
   21750    3064.3645   -84821.572            0   -82445.367   -1886.1554     77883.53 
   21800    2955.7979   -84783.726            0   -82491.707   -486.48695    77861.282 
   21850     2998.683   -84825.222            0   -82499.949    2466.2258     77557.98 
   21900     2954.309   -84809.195            0    -82518.33   -1825.1516    77848.449 
   21950    2998.1397   -84804.735            0   -82479.883     4008.838     77655.34 
   22000    3037.4051   -84807.367            0   -82452.067   -482.63825     77846.48 
   22050     2980.987   -84784.657            0   -82473.106   -1190.2804    78054.447 
   22100    2977.9135   -84821.844            0   -82512.676    5772.2673    77508.099 
   22150    2967.9796   -84870.216            0   -82568.751   -2127.8698    77762.915 
   22200    2974.9311   -84863.845            0   -82556.989    848.11484    77538.568 
   22250      3003.22   -84855.466            0   -82526.674   -618.13451    77499.191 
   22300    2918.5813   -84785.356            0   -82522.195    1671.0894    77674.171 
   22350    2986.2023   -84822.146            0    -82506.55    1120.8345    77688.198 
   22400    3018.4398   -84843.942            0   -82503.349    -2523.659     77728.35 
   22450    2977.7224   -84792.004            0   -82482.984   -615.29632    77714.952 
   22500    3045.5135   -84789.403            0   -82427.816    2757.4287    77879.712 
   22550    3048.9951   -84756.604            0   -82392.317   -3082.8819    78014.384 
   22600    3021.3073   -84749.866            0   -82407.049    5343.1424    77628.304 
   22650    3000.5619    -84764.89            0    -82438.16   -2766.9354    78043.621 
   22700    2987.9478   -84789.417            0   -82472.468    426.81459    77842.234 
   22750    3004.4653   -84838.275            0   -82508.518    5585.9079    77447.196 
   22800    2960.1002   -84823.924            0   -82528.569   -4075.8616    77794.976 
   22850    2999.9045    -84822.14            0    -82495.92    2944.4804    77552.265 
   22900    3008.5439   -84819.353            0   -82486.433   -259.45059    77672.172 
   22950    2988.4532   -84790.882            0   -82473.541   -2017.6084    77817.793 
   23000    3034.3479   -84802.655            0   -82449.725    993.57586    77681.761 
   23050    2990.1224   -84770.338            0   -82451.702    114.12798     77683.85 
   23100    3013.3451   -84827.095            0   -82490.452   -220.46352    77614.722 
   23150    3003.4167   -84874.202            0   -82545.258    -2481.161    77736.249 
   23200    3006.2727   -84869.855            0   -82538.696   -680.64651    77641.148 
   23250    2993.3553   -84827.432            0    -82506.29    1601.3653    77620.463 
   23300    3016.1272   -84812.458            0   -82473.658   -652.43763    77792.137 
   23350     3063.729   -84818.763            0   -82443.051   -3154.0306    77771.561 
   23400    3056.6058   -84769.634            0   -82399.445    2108.9993    77716.443 
   23450    2996.4452    -84755.96            0   -82432.421    285.73171    77928.067 
   23500    2991.8843   -84803.174            0   -82483.172    1747.5625    77763.913 
   23550    3004.1762    -84822.07            0   -82492.537   -1683.8065     77882.26 
   23600    2980.9012   -84810.449            0   -82498.964    1041.0108    77729.932 
   23650    2945.8015   -84809.169            0   -82524.901   -831.98624    77815.843 
   23700    2938.9687   -84847.919            0    -82568.95    2306.0988     77718.18 
   23750    2955.1333   -84868.769            0   -82577.266    4340.8951    77425.175 
   23800    2972.4863    -84820.72            0    -82515.76    75.533709    77700.251 
   23850    3047.7919   -84850.608            0   -82487.254   -704.96256     77872.07 
   23900     3000.899   -84813.305            0   -82486.313     1427.202    77806.147 
   23950    3010.5941    -84834.38            0   -82499.871    40.712355    77736.441 
   24000    2977.7782   -84856.013            0   -82546.949   -792.54673    77739.492 
   24050    2927.6728   -84850.272            0   -82580.062    2190.5518    77706.834 
   24100    2948.2488   -84830.263            0   -82544.098    5396.1585    77474.176 
   24150     2967.684   -84779.401            0   -82478.165   -3230.4564    77931.466 
   24200    3017.2783   -84812.005            0   -82472.312   -3125.3351    77946.781 
   24250    2977.4849   -84791.852            0   -82483.016    7419.8166     77474.69 
   24300    2993.5429   -84838.265            0   -82516.977   -3503.3758    77949.758 
   24350    2940.1151   -84829.787            0   -82549.929    1799.7132    77681.137 
   24400    2981.0892   -84841.173            0   -82529.543    1210.4761    77495.914 
   24450    3000.2616    -84787.23            0   -82460.732   -659.77753    77825.613 
   24500    2990.3592   -84777.863            0   -82459.044   -4458.0609    77982.153 
   24550    3018.8575   -84810.814            0   -82469.897    2026.7922    77695.642 
   24600    2947.6006    -84785.32            0   -82499.657    141.28503    77897.308 
   24650    3027.4656   -84844.611            0   -82497.018    372.07081    77748.268 
   24700     3065.456   -84823.614            0   -82446.563    2579.0147    77659.735 
   24750    3005.5992   -84752.009            0   -82421.373   -4985.3866    78175.836 
   24800     2990.635   -84744.067            0   -82425.034    2751.6464    77744.028 
   24850     3057.322   -84866.163            0   -82495.419   -1474.8202    77771.573 
   24900    2943.6248   -84810.505            0   -82527.926   -3071.7318    77781.309 
   24950    3016.9596   -84860.506            0    -82521.06    1303.7867    77478.766 
   25000    2957.9023   -84821.758            0   -82528.107   -56.123983    77675.942 
Loop time of 87.1447 on 24 procs for 10000 steps with 6000 atoms

Performance: 19.829 ns/day, 1.210 hours/ns, 114.752 timesteps/s
99.6% CPU use with 24 MPI tasks x no OpenMP threads

MPI task timing breakdown:
Section |  min time  |  avg time  |  max time  |%varavg| %total
---------------------------------------------------------------
Pair    | 79.412     | 80.307     | 81.783     |   7.6 | 92.15
Bond    | 0.0013343  | 0.0019245  | 0.0035934  |   1.6 |  0.00
Neigh   | 2.1757     | 2.2454     | 2.3045     |   2.1 |  2.58
Comm    | 1.9496     | 3.2058     | 4.0673     |  31.6 |  3.68
Output  | 0.0093365  | 0.0096087  | 0.012075   |   0.5 |  0.01
Modify  | 0.75496    | 1.2415     | 1.9028     |  29.4 |  1.42
Other   |            | 0.1333     |            |       |  0.15

Nlocal:    250 ave 266 max 237 min
Histogram: 1 3 4 1 4 4 5 1 0 1
Nghost:    5039.17 ave 5098 max 4976 min
Histogram: 2 1 3 0 7 2 2 4 2 1
Neighs:    87684.3 ave 92894 max 82762 min
Histogram: 1 2 4 1 4 4 4 2 1 1

Total # of neighbors = 2104424
Ave neighs/atom = 350.737
Ave special neighs/atom = 0
Neighbor list builds = 968
Dangerous builds = 675

unfix thermostat_eq

fix thermostat_nvt all nvt temp ${T} ${T} ${THERMO_DAMP}
fix thermostat_nvt all nvt temp 3000 ${T} ${THERMO_DAMP}
fix thermostat_nvt all nvt temp 3000 3000 ${THERMO_DAMP}
fix thermostat_nvt all nvt temp 3000 3000 0.1

run ${equilsteps}
run 10000
Per MPI rank memory allocation (min/avg/max) = 7.075 | 7.639 | 8.086 Mbytes
Step Temp E_pair E_mol TotEng Press 
   25000    2957.9023   -84821.758            0   -82528.107   -56.123983 
   25050    2990.7175    -84822.17            0   -82503.073    1919.8939 
   25100    3014.4128   -84800.746            0   -82463.275    2048.7114 
   25150    3048.7475   -84775.278            0   -82411.183     913.0094 
   25200    3022.2107   -84740.448            0    -82396.93    3323.4073 
   25250    2954.9285   -84760.424            0   -82469.079     973.7548 
   25300    3029.7173   -84839.379            0    -82490.04   -1518.4166 
   25350    3003.0029   -84825.307            0   -82496.684   -1571.5101 
   25400    2970.4253   -84799.684            0   -82496.322    2986.3515 
   25450    3007.6155   -84829.344            0   -82497.144   -1133.2467 
   25500    2950.7821   -84805.255            0   -82517.126    24.980693 
   25550    2953.7631    -84829.83            0   -82539.389   -61.319384 
   25600    2982.0538   -84866.818            0    -82554.44   -2187.8436 
   25650    3023.2514   -84851.527            0   -82507.203     275.5544 
   25700    3032.0696   -84819.988            0   -82468.825    2469.0075 
   25750    3005.9796   -84806.232            0   -82475.301    3264.3601 
   25800    3027.1043   -84847.843            0    -82500.53   -1043.9335 
   25850    2940.6146    -84828.29            0   -82548.045    603.78729 
   25900     2978.345   -84848.592            0   -82539.089   -2716.1463 
   25950    3011.6531   -84806.027            0   -82470.696   -2349.2122 
   26000    3014.0821   -84777.278            0   -82440.063    3107.6665 
   26050       3018.6   -84791.396            0   -82450.679    4628.5869 
   26100     2991.875   -84822.543            0   -82502.548    3100.3034 
   26150    2982.6642    -84827.55            0   -82514.698    3669.0213 
   26200    2995.4082   -84828.777            0   -82506.043    1243.4373 
   26250    3041.3257   -84829.972            0   -82471.632   -1590.0658 
   26300    3019.4419   -84758.237            0   -82416.866    2166.4744 
   26350    3043.5753   -84712.744            0    -82352.66    5835.7618 
   26400    3104.6117   -84730.779            0   -82323.365    7007.2471 
   26450    3012.8658   -84747.905            0   -82411.633    4265.4197 
   26500    2951.6279   -84758.918            0   -82470.133   -891.82483 
   26550    2973.7442   -84802.248            0   -82496.312    892.42555 
   26600    2980.7571   -84809.118            0   -82497.745    990.73653 
   26650    3014.0886   -84792.861            0   -82455.641    522.72094 
   26700    3031.8094   -84783.023            0   -82432.062    63.949919 
   26750    2982.4471   -84778.345            0   -82465.661   -419.43435 
   26800    2969.4043   -84811.113            0   -82508.543   -471.09118 
   26850    3018.1064   -84853.238            0   -82512.903   -18.585057 
   26900    3009.9452   -84841.365            0   -82507.359   -14.414689 
   26950    2984.5998    -84816.02            0   -82501.667    1223.3526 
   27000    3009.6482   -84822.112            0   -82488.335    2989.5409 
   27050    3047.6084    -84842.62            0   -82479.408     2742.743 
   27100    3005.0432   -84851.343            0   -82521.138    2077.3591 
   27150    2985.4392   -84863.634            0    -82548.63    1948.6709 
   27200    2974.3525    -84857.37            0   -82550.963   -669.85601 
   27250     3029.924   -84838.218            0   -82488.719    -818.8633 
   27300    3043.0707    -84824.26            0   -82464.567    62.943528 
   27350    2963.1802   -84788.749            0   -82491.005     2547.069 
   27400    3033.4222   -84854.908            0   -82502.697    -2150.296 
   27450    2994.0871    -84850.03            0    -82528.32   -4043.9399 
   27500    2919.3097   -84836.896            0   -82573.171   -2639.5638 
   27550    2954.7637   -84836.506            0   -82545.289   -1757.2232 
   27600    3019.3668   -84828.389            0   -82487.076    1901.7257 
   27650    2966.7686   -84771.268            0   -82470.742    111.60176 
   27700    2975.9514   -84799.913            0   -82492.266    708.20646 
   27750    2993.3424   -84837.802            0    -82516.67    522.63561 
   27800    3038.6109   -84907.067            0   -82550.832   -1710.5971 
   27850     2958.491    -84877.38            0   -82583.272    2398.0016 
   27900    2975.1014   -84870.512            0   -82563.525    3348.3349 
   27950     3012.061   -84833.605            0   -82497.958    2724.2599 
   28000    3024.7157   -84828.983            0   -82483.523   -474.25907 
   28050    3001.3956   -84833.672            0   -82506.294    248.44019 
   28100    2956.9155   -84836.291            0   -82543.405    1926.0369 
   28150    2956.7152   -84860.381            0   -82567.651   -469.02675 
   28200    2961.0504   -84837.159            0   -82541.067    -487.5317 
   28250    3045.9629   -84845.233            0   -82483.297    -39.39015 
   28300    2955.8922   -84764.071            0   -82471.978    3560.4424 
   28350    3007.3163   -84790.878            0    -82458.91    2351.8797 
   28400    3032.7095   -84807.006            0   -82455.347    2547.5598 
   28450    2962.7992   -84805.578            0    -82508.13    1901.3395 
   28500    2974.8516   -84844.157            0   -82537.363    901.52143 
   28550    3008.1201   -84848.766            0   -82516.175    1496.4641 
   28600     3036.615   -84824.176            0   -82469.488    1064.4839 
   28650    2991.5133   -84780.558            0   -82460.844    3992.2507 
   28700    3025.1154   -84812.402            0   -82466.632    2561.2546 
   28750    3010.1321   -84830.757            0   -82496.606    587.95962 
   28800    2964.6213   -84823.304            0   -82524.443   -770.82398 
   28850    2986.9292   -84848.409            0    -82532.25   -1470.1963 
   28900    2995.2636   -84822.302            0    -82499.68    2768.3281 
   28950    2993.8102   -84782.709            0   -82461.214    2608.7967 
   29000    3006.7117   -84784.363            0   -82452.864   -841.44799 
   29050    2993.0127   -84792.599            0   -82471.722   -401.78068 
   29100      2982.07   -84830.562            0   -82518.171   -591.99141 
   29150     2974.275   -84852.652            0   -82546.305     1088.837 
   29200    2945.1539   -84810.879            0   -82527.114    207.55295 
   29250    3064.8527   -84831.676            0   -82455.092   -711.58705 
   29300    3038.3396    -84814.63            0   -82458.605    1112.3671 
   29350    2997.2967   -84828.079            0    -82503.88   -1743.0554 
   29400    2986.3461   -84837.779            0   -82522.072    1795.4519 
   29450    3017.9341   -84846.673            0   -82506.472    -1664.338 
   29500    2964.1801   -84762.467            0   -82463.948    6922.7318 
   29550    3038.0704   -84766.922            0   -82411.107    5849.8663 
   29600    2989.9486   -84758.236            0   -82439.735    4789.2833 
   29650     3021.761   -84822.689            0    -82479.52    3616.9946 
   29700    2983.4493   -84806.218            0   -82492.757   -65.902017 
   29750    3016.0902   -84826.457            0   -82487.685   -319.79459 
   29800    3001.0176   -84790.284            0     -82463.2    2777.3354 
   29850    3031.5077   -84779.247            0   -82428.521     3531.242 
   29900     3032.961   -84771.917            0   -82420.063    2030.1514 
   29950    3007.5382   -84799.005            0   -82466.864    1127.1065 
   30000    2964.6499   -84804.675            0   -82505.792    3562.6828 
   30050    2992.5711   -84820.273            0   -82499.739    731.83708 
   30100    3009.8285   -84830.979            0   -82497.063    295.10002 
   30150    2977.0747   -84828.977            0    -82520.46    1017.2866 
   30200      3011.45   -84885.508            0   -82550.334   -1386.7029 
   30250    2997.3587   -84881.165            0   -82556.918   -1232.0312 
   30300    2996.5984   -84835.617            0    -82511.96    1538.3193 
   30350    2996.4361   -84798.694            0   -82475.163    2394.5807 
   30400    3041.1621   -84825.533            0    -82467.32    50.662439 
   30450    2975.3434   -84794.586            0   -82487.411    533.57708 
   30500    2977.3273   -84852.748            0   -82544.034    -1061.452 
   30550    2971.0449   -84874.241            0   -82570.399   -1050.4979 
   30600    3021.8457   -84887.303            0   -82544.068    1205.5743 
   30650    2971.8923   -84809.866            0   -82505.367    825.41732 
   30700    3002.7262   -84810.458            0   -82482.049     165.7565 
   30750    2997.3539    -84809.27            0   -82485.027   -986.96756 
   30800     3062.854   -84871.025            0   -82495.991   -1226.2624 
   30850    2962.9311   -84830.542            0   -82532.992   -1867.8023 
   30900    2948.3116   -84852.254            0    -82566.04     1430.908 
   30950    2998.9602   -84859.032            0   -82533.544   -1439.4906 
   31000    3028.2846   -84828.536            0   -82480.308     2249.514 
   31050    2980.6687    -84792.37            0   -82481.065     2662.024 
   31100     2955.676   -84802.659            0   -82510.734    3071.1976 
   31150    2972.8003   -84839.554            0   -82534.351   -1427.2818 
   31200    2976.4954   -84836.458            0   -82528.389   -2279.9789 
   31250    3012.6415   -84797.161            0   -82461.063    3283.9332 
   31300    3044.9717   -84821.043            0   -82459.876    1772.0144 
   31350    2991.8028   -84818.375            0   -82498.437    1462.4197 
   31400    2999.8247   -84861.726            0   -82535.567   -2151.2851 
   31450    2977.2372   -84840.248            0   -82531.604    4815.8655 
   31500    3034.4112   -84866.675            0   -82513.696    246.76112 
   31550    2984.7343   -84823.162            0   -82508.705    436.03679 
   31600    3000.7627   -84826.066            0    -82499.18    1042.6424 
   31650    3006.8091   -84827.518            0   -82495.943    338.31139 
   31700     3060.836   -84850.649            0    -82477.18    1969.3648 
   31750    2984.3114   -84824.944            0   -82510.814    209.19315 
   31800    2954.2782   -84849.177            0   -82558.336   -2685.5883 
   31850    2970.8032   -84845.092            0   -82541.437   -295.17045 
   31900    2981.2617    -84828.03            0   -82516.266   -1839.3114 
   31950    3002.0445   -84833.858            0   -82505.977    411.18171 
   32000    2963.4346   -84791.172            0   -82493.231    264.58214 
   32050    2993.7424   -84801.148            0   -82479.705   -126.22874 
   32100    3031.4436   -84796.618            0    -82445.94    4601.4162 
   32150    3038.9852   -84776.263            0   -82419.738    5170.5026 
   32200    3052.8053   -84818.869            0   -82451.627    2361.6891 
   32250    2988.5372   -84818.316            0   -82500.909   -546.73128 
   32300    3001.5805   -84829.245            0   -82501.725   -2370.3765 
   32350     3027.526   -84823.848            0   -82476.208    2722.9896 
   32400    3000.6096   -84752.101            0   -82425.333    3714.7117 
   32450    3043.1845   -84779.692            0   -82419.911    2278.5929 
   32500    3034.5092   -84809.392            0   -82456.338    652.66675 
   32550    2965.8122   -84783.878            0   -82484.093    1740.3601 
   32600    3025.3829    -84841.71            0   -82495.732    901.63241 
   32650    2995.4909   -84830.582            0   -82507.784    856.48949 
   32700    2943.2568   -84822.504            0    -82540.21   -1803.1041 
   32750    3004.0231    -84859.91            0   -82530.495    115.89568 
   32800    3043.9315   -84836.537            0   -82476.176    247.52249 
   32850    3035.3149   -84816.071            0   -82462.392    1681.2409 
   32900    2994.1747   -84798.847            0   -82477.069    4724.7028 
   32950    2934.9124   -84805.673            0   -82529.849   -500.81173 
   33000    2945.0228   -84845.496            0   -82561.832   -1139.2351 
   33050    3077.1253   -84870.429            0   -82484.329   -1909.5066 
   33100    3004.7457   -84786.936            0   -82456.961    1103.4375 
   33150    3054.2656    -84825.34            0   -82456.966    1454.2714 
   33200    2976.7402   -84802.467            0   -82494.208     663.1376 
   33250     3021.514   -84873.437            0   -82530.459   -362.45152 
   33300    2996.7125   -84875.918            0   -82552.172   -1439.9491 
   33350    3003.1976   -84842.573            0   -82513.799    -2959.766 
   33400     3011.798   -84792.272            0   -82456.829    2883.4733 
   33450    3039.1729   -84819.621            0    -82462.95   -195.55128 
   33500    2973.8541   -84805.079            0   -82499.059    2106.0461 
   33550    2985.7289    -84843.46            0   -82528.232   -542.01356 
   33600    3019.8236   -84865.361            0   -82523.694   -46.218842 
   33650    3025.1102   -84812.419            0   -82466.653    1156.1435 
   33700    3056.9278   -84809.573            0   -82439.135    1726.1417 
   33750    3022.0196   -84818.606            0   -82475.236    202.91424 
   33800    3017.9495   -84859.076            0   -82518.863    133.69782 
   33850    2973.7901   -84828.851            0    -82522.88   -587.75494 
   33900    2987.1712   -84813.405            0   -82497.058   -269.90827 
   33950    3009.4109   -84788.463            0   -82454.871    698.13174 
   34000    3060.4256   -84810.735            0   -82437.585    461.95914 
   34050    2987.1355   -84799.017            0   -82482.698    445.15141 
   34100    3002.3373   -84858.428            0   -82530.321     -1903.77 
   34150    2960.1966   -84833.918            0   -82538.488    3211.5451 
   34200    2975.2288   -84840.555            0   -82533.469    4052.8079 
   34250    3004.9249   -84833.245            0   -82503.131    51.396874 
   34300     3047.681   -84827.489            0   -82464.221    2427.5806 
   34350    3006.5333   -84799.623            0   -82468.262   -730.77802 
   34400    2973.0984   -84840.093            0   -82534.658    967.59405 
   34450     2983.637   -84862.297            0   -82548.691   -804.17466 
   34500    3004.5559   -84838.372            0   -82508.545    3048.1443 
   34550     2975.599   -84798.299            0   -82490.926   -332.12727 
   34600    3013.9672   -84827.618            0   -82490.493   -1494.1384 
   34650    3020.2604   -84842.659            0   -82500.654   -2080.8295 
   34700    2921.6304   -84802.253            0   -82536.728    -538.8628 
   34750    2939.5777   -84843.502            0   -82564.061    -3296.245 
   34800    2986.2168   -84844.949            0   -82529.342   -3431.1142 
   34850    3060.2528   -84840.718            0   -82467.701    2318.2606 
   34900    3024.5117   -84812.692            0    -82467.39    4089.7529 
   34950    3034.7562   -84853.932            0   -82500.686     892.8183 
   35000    2977.8842   -84847.724            0   -82538.578    1926.1173 
Loop time of 87.3836 on 24 procs for 10000 steps with 6000 atoms

Performance: 19.775 ns/day, 1.214 hours/ns, 114.438 timesteps/s
99.6% CPU use with 24 MPI tasks x no OpenMP threads

MPI task timing breakdown:
Section |  min time  |  avg time  |  max time  |%varavg| %total
---------------------------------------------------------------
Pair    | 79.521     | 80.52      | 82.009     |   7.6 | 92.15
Bond    | 0.0013085  | 0.0019747  | 0.0037707  |   1.6 |  0.00
Neigh   | 2.1237     | 2.1968     | 2.2597     |   2.0 |  2.51
Comm    | 2.1226     | 3.4185     | 4.3438     |  34.8 |  3.91
Output  | 0.0094706  | 0.0097063  | 0.011993   |   0.5 |  0.01
Modify  | 0.73675    | 1.0964     | 1.5418     |  25.8 |  1.25
Other   |            | 0.14       |            |       |  0.16

Nlocal:    250 ave 266 max 239 min
Histogram: 5 3 3 2 2 3 1 1 2 2
Nghost:    5035.12 ave 5110 max 4971 min
Histogram: 3 3 2 3 3 2 3 1 3 1
Neighs:    87620.7 ave 93734 max 82744 min
Histogram: 2 2 3 7 3 1 0 1 4 1

Total # of neighbors = 2102896
Ave neighs/atom = 350.483
Ave special neighs/atom = 0
Neighbor list builds = 946
Dangerous builds = 480

unfix thermostat_nvt

dump atoms all custom 1000000 lattice.out id type x y z c_peratom fx fy fz

reset_timestep 0

fix nve_fix all nve


thermo_modify line one format float %15.15g

variable tempsteps equal step

compute 1 all chunk/atom bin/1d ${dimension} lower ${thickness} units reduced
compute 1 all chunk/atom bin/1d z lower ${thickness} units reduced
compute 1 all chunk/atom bin/1d z lower 0.05 units reduced
fix 3 all ave/chunk 50 10 1050 1 v_temp file tmp_profile.out
fix flux all thermal/conductivity ${swapsteps} ${dimension} 20
fix flux all thermal/conductivity 50 ${dimension} 20
fix flux all thermal/conductivity 50 z 20

thermo_style custom step v_currenttime temp pe c_pe temp f_flux etotal press
WARNING: New thermo_style command, previous thermo_modify settings will be lost (../output.cpp:705)
thermo_style multi
thermo_modify line one format float %15.15g
thermo ${swapsteps}
thermo 50

variable fluxstep equal step-${tempsteps}
variable fluxstep equal step-0
variable fluxtime equal dt*v_fluxstep
variable fflux equal f_flux
variable eetotal equal etotal

fix fluxlog all print ${swapsteps} "${fluxstep} ${fluxtime} ${eetotal} ${fflux} " file flux_log.out
fix fluxlog all print 50 "${fluxstep} ${fluxtime} ${eetotal} ${fflux} " file flux_log.out

run         ${TCsteps}
run         2500000
Per MPI rank memory allocation (min/avg/max) = 8.718 | 9.283 | 9.73 Mbytes
TotEng KinEng Temp PotEng E_bond E_angle E_dihed E_impro E_vdwl E_coul E_long Press 
-82538.5782898718 2309.1455236283 2977.88417996023 -84847.7238135001               0               0               0               0 -7278.03580550383 -77569.6880079963               0 1926.11725542907 
50 0.1 -82538.4121031429 1.85349735129857 
-82538.4121031429 2305.35312139935 2972.9934814373 -84843.7652245423               0               0               0               0 -7361.21971117693 -77482.5455133654               0 -2421.9077378946 
100 0.2 -82538.0395800741 2.24461759448902 
-82538.0395800741 2286.30056495544 2948.42322120833 -84824.3401450295               0               0               0               0 -7243.87672153035 -77580.4634234992               0 1818.14139840945 
150 0.3 -82538.1648135148 3.21173872229425 
-82538.1648135148 2307.59992102714 2975.89096407696 -84845.764734542               0               0               0               0 -7326.69570226708 -77519.0690322749               0 -632.961810638689 
200 0.4 -82538.2183086397 4.29407081232774 
-82538.2183086397 2300.82391011507 2967.15259072983 -84839.0422187548               0               0               0               0 -7275.31500123997 -77563.7272175148               0 1632.73946055029 
250 0.5 -82537.7305941732 4.79033026422952 
-82537.7305941732 2281.73793959193 2942.53923955795 -84819.4685337651               0               0               0               0 -7316.24213916134 -77503.2263946038               0 420.330030320398 
300 0.6 -82537.6287953867 6.45318710580033 
-82537.6287953867 2334.04361425977 3009.99286667746 -84871.6724096465               0               0               0               0 -7303.70323303628 -77567.9691766102               0 1272.37286053953 
350 0.7 -82536.8642114243 7.77360778058559 
-82536.8642114243 2303.97796182012 2971.22006962154 -84840.8421732444               0               0               0               0 -7302.02237124513 -77538.8198019993               0 -22.3555595255982 
400 0.8 -82535.6422897091 9.52828986641337 
-82535.6422897091  2288.664979087 2951.47238002712 -84824.3072687961               0               0               0               0 -7316.80307651606 -77507.50419228               0 -718.002475488769 
450 0.9 -82535.9726889397 11.1315460443774 
-82535.9726889397 2327.9071812414 3002.07929578303 -84863.8798701811               0               0               0               0 -7353.6227635115 -77510.2571066696               0 -3030.15840188852 
500 1 -82535.6765900945 13.1659274812571 
-82535.6765900945 2322.38142809855 2994.95326033049 -84858.0580181931               0               0               0               0 -7272.40200838729 -77585.6560098058               0 2001.42738194348 
550 1.1 -82536.3754993475 13.9568213222177 
-82536.3754993475 2321.43034427072 2993.72673846093 -84857.8058436182               0               0               0               0 -7344.96369730341 -77512.8421463147               0 -1835.58449542354 
600 1.2 -82535.86748071 15.6135283326118 
-82535.86748071 2288.16056561387 2950.82188620314 -84824.0280463238               0               0               0               0 -7333.96824987382 -77490.05979645               0 -639.612348342726 
650 1.3 -82536.0273836882 17.7356258604647 
-82536.0273836882 2312.97307161794 2982.82020261006 -84849.0004553061               0               0               0               0 -7288.46171874701 -77560.5387365591               0 1913.78106194354 
700 1.4 -82535.86944071 18.1380133151201 
-82535.86944071 2301.82012903261 2968.43731900874 -84837.6895697427               0               0               0               0 -7337.14813589945 -77500.5414338432               0 -734.404466814262 
750 1.5 -82535.9471915973 19.9902983130679 
-82535.9471915973 2291.13088729333 2954.65242604923 -84827.0780788906               0               0               0               0 -7323.33741954091 -77503.7406593497               0 -507.386561379482 
800 1.6 -82535.6758180011 21.8898311334824 
-82535.6758180011 2290.87826599216 2954.3266445129 -84826.5540839932               0               0               0               0 -7361.70863882438 -77464.8454451688               0 -3345.96219401012 
850 1.7 -82535.4572554825 23.8751044711485 
-82535.4572554825 2299.2485793117 2965.1210372268 -84834.7058347942               0               0               0               0 -7325.54821624477 -77509.1576185495               0 -324.131924315288 
900 1.8 -82535.5128414702 24.7942471750691 
-82535.5128414702 2302.17775601873 2968.89851633624 -84837.6905974889               0               0               0               0 -7285.69349961469 -77551.9970978742               0 334.120035593404 
950 1.9 -82535.6728426053 26.111969633231 
-82535.6728426053 2301.34726528261 2967.82751184589 -84837.0201078879               0               0               0               0 -7363.52509726572 -77473.4950106222               0 -2228.89279169533 
1000 2 -82535.5888070414 27.9919893201317 
-82535.5888070414 2310.41920895961 2979.52673014147 -84846.008016001               0               0               0               0 -7379.59271792909 -77466.4152980719               0 -2061.2653030803 
1050 2.1 -82535.7454581493 30.4774379410374 
-82535.7454581493 2307.37053197871 2975.59514295551 -84843.115990128               0               0               0               0 -7380.13536795017 -77462.9806221779               0 -2364.96727688161 
1100 2.2 -82535.2289615377 32.2868247976754 
-82535.2289615377 2283.41342352546 2944.69995097626 -84818.6423850632               0               0               0               0 -7328.36511891802 -77490.2772661452               0 -322.28207315069 
1150 2.3 -82534.2483394312 33.8109157844298 
-82534.2483394312 2283.93516509414 2945.37279118815 -84818.1835045254               0               0               0               0 -7338.15183246515 -77480.0316720602               0 -405.861078539966 
1200 2.4 -82534.4280909313 34.6929953986022 
-82534.4280909313 2289.69463459962 2952.80022828548 -84824.1227255309               0               0               0               0 -7327.09402285294 -77497.028702678               0 -688.936575649178 
1250 2.5 -82534.6139854568 36.5188053093584 
-82534.6139854568 2316.45960150931 2987.31644682691 -84851.0735869661               0               0               0               0 -7285.53307194302 -77565.5405150231               0 2316.43542946127 
1300 2.6 -82534.4007657977 38.4032487890839 
-82534.4007657977 2299.20431368484 2965.06395208053 -84833.6050794825               0               0               0               0 -7291.75499830858 -77541.850081174               0 1093.47714089316 
1350 2.7 -82534.072374329 39.6825834829089 
-82534.072374329 2294.45619433217 2958.94075656939 -84828.5285686612               0               0               0               0 -7298.73486899895 -77529.7936996622               0 -4.89167490454559 
1400 2.8 -82533.8343931078 40.7362108954075 
-82533.8343931078 2279.3040244556 2939.40045193903 -84813.1384175634               0               0               0               0 -7284.82645512025 -77528.3119624432               0 576.055359935053 
1450 2.9 -82534.9734057436 42.3261995796662 
-82534.9734057436 2296.81133153286 2961.97795181751 -84831.7847372764               0               0               0               0 -7282.17289093614 -77549.6118463403               0 638.415038268285 
1500 3 -82534.632319006 44.0952085675706 
-82534.632319006 2289.98195564766 2953.17075876732 -84824.6142746536               0               0               0               0 -7254.75908230682 -77569.8551923468               0 542.364922551755 
1550 3.1 -82534.4304872827 44.5111858376763 
-82534.4304872827 2285.59159246849 2947.50892718428 -84820.0220797512               0               0               0               0 -7295.17186741005 -77524.8502123411               0 480.99732186453 
1600 3.2 -82534.820545772 45.8070500295929 
-82534.820545772 2302.57752891606 2969.4140652154 -84837.398074688               0               0               0               0 -7309.13769873883 -77528.2603759492               0 -104.042282880311 
1650 3.3 -82534.7495948979 47.7390377928303 
-82534.7495948979 2302.92176746376 2969.85799675407 -84837.6713623617               0               0               0               0 -7323.66313424824 -77514.0082281135               0 664.221483219546 
1700 3.4 -82534.4742932894 48.6938257040578 
-82534.4742932894 2275.74936043698 2934.8163416533 -84810.2236537264               0               0               0               0 -7271.56347228274 -77538.6601814437               0 1681.79283535704 
1750 3.5 -82534.7259796665 50.3108606556651 
-82534.7259796665 2334.14415354868 3010.12252258475 -84868.8701332152               0               0               0               0 -7329.52798033832 -77539.3421528769               0 -514.450458821376 
1800 3.6 -82534.7449373292 51.8145434709535 
-82534.7449373292 2310.47524321798 2979.59899216647 -84845.2201805472               0               0               0               0 -7286.69402819725 -77558.5261523499               0 -210.900756883236 
1850 3.7 -82534.7595771894 54.028160080254 
-82534.7595771894 2305.61035423405 2973.32521002746 -84840.3699314235               0               0               0               0 -7358.19196996211 -77482.1779614614               0 -1302.01150056279 
[...]
147100 294.2 -78440.670664268 3577.25397713367 
-78440.670664268 3982.07797380526 5135.30519416133 -82422.7486380733               0               0               0               0 -5525.60067199874 -76897.1479660745               0 109500.787229699 
147150 294.3 -78414.9685831473 3578.52428876585 
-78414.9685831473 3965.13730637234 5113.45843524975 -82380.1058895196               0               0               0               0 -5455.47407868734 -76924.6318108323               0 112339.614269425 
147200 294.4 -78374.7202859763 3579.22089115908 
-78374.7202859763 4016.04802735191 5179.1131239838 -82390.7683133282               0               0               0               0 -5414.90143393257 -76975.8668793957               0 114748.784674606 
147250 294.5 -78344.6877674368 3581.33888687579 
-78344.6877674368 4046.20129995651 5217.99891638816 -82390.8890673933               0               0               0               0 -5565.70247163736 -76825.1865957559               0 109317.335759264 
147300 294.6 -78313.1956811178 3583.33766731187 
-78313.1956811178 4056.48845254049 5231.26527341209 -82369.6841336582               0               0               0               0 -5422.13957152388 -76947.5445621344               0 115399.797443677 
147350 294.7 -78291.2480103154 3584.35730456133 
-78291.2480103154 4093.9495948819 5279.57532663318 -82385.1976051973               0               0               0               0 -5645.15139554371 -76740.0462096536               0 107212.349320922 
147400 294.8 -78258.3508438232 3585.14710395741 
-78258.3508438232 4106.51643315432 5295.7815763046 -82364.8672769775               0               0               0               0 -5519.33226804229 -76845.5350089353               0 111976.970455413 
147450 294.9 -78231.3159596844 3586.24218853251 
-78231.3159596844 4112.61111602947 5303.64130603149 -82343.9270757138               0               0               0               0 -5402.11946267843 -76941.8076130354               0 115512.079270455 
147500 295 -78202.5624105232 3588.24620337038 
-78202.5624105232 4145.32278419305 5345.82641655296 -82347.8851947162               0               0               0               0 -5494.86127318153 -76853.0239215347               0  114052.3611575 
147550 295.1 -78158.403240855 3588.51180073136 
-78158.403240855 4217.35121348979 5438.71459441588 -82375.7544543447               0               0               0               0 -5525.76783056403 -76849.9866237807               0 114140.447868559 
147600 295.2 -78122.3821252753 3591.19483044822 
-78122.3821252753 4195.53898009101 5410.58544270015 -82317.9211053663               0               0               0               0 -5547.43864448843 -76770.4824608778               0 113954.967771249 
147650 295.3 -78087.2938072672 3592.92974536241 
-78087.2938072672 4207.81785065948 5426.42032795944 -82295.1116579267               0               0               0               0 -5442.95098979446 -76852.1606681322               0 116763.01060455 
147700 295.4 -78059.1450115293 3594.54913520478 
-78059.1450115293 4176.56345720372 5386.11452528317 -82235.708468733               0               0               0               0 -5367.41459550679 -76868.2938732262               0 121500.537069106 
147750 295.5 -78028.907336608 3596.34138180186 
-78028.907336608 4229.3486009414 5454.18647781493 -82258.2559375494               0               0               0               0 -5357.3795101938 -76900.8764273556               0 122598.193562466 
147800 295.6 -77992.397347153 3597.3797993485 
-77992.397347153 4225.49731346572 5449.21984061993 -82217.8946606187               0               0               0               0 -5322.15870809733 -76895.7359525214               0 122591.650377894 
147850 295.7 -77971.182480999 3598.43679602722 
-77971.182480999 4274.84841025915 5512.8632311733 -82246.0308912582               0               0               0               0 -5480.23914484317 -76765.791746415               0 115791.300488398 
147900 295.8 -77936.6323828315 3599.29062047268 
-77936.6323828315 4294.42221403381 5538.10569424277 -82231.0545968653               0               0               0               0 -5405.19136478676 -76825.8632320786               0 118356.806741281 
147950 295.9 -77908.1185281999 3599.94701306419 
-77908.1185281999 4276.62087513833 5515.14900964383 -82184.7394033382               0               0               0               0 -5372.53761933821   -76812.201784               0 120367.094161385 
148000 296 -77867.3283085498 3601.63739414522 
-77867.3283085498 4272.55172834804 5509.90142012263 -82139.8800368978               0               0               0               0 -5370.80641862189 -76769.0736182759               0 121749.487299344 
148050 296.1 -77820.0223960096 3603.57028175025 
-77820.0223960096 4326.0729223047 5578.92258624026 -82146.0953183144               0               0               0               0 -5299.62370230106 -76846.4716160133               0 125953.499417371 
148100 296.2 -77788.1759515228 3605.35813726799 
-77788.1759515228 4359.20128190607 5621.64506386477 -82147.3772334288               0               0               0               0 -5365.19862582585 -76782.178607603               0 124210.289548713 
148150 296.3 -77748.0298310447 3607.03424883913 
-77748.0298310447 4372.17251646854 5638.37282476285 -82120.2023475132               0               0               0               0 -5247.90170861361 -76872.3006388996               0 130158.08104495 
148200 296.4 -77683.4637823302 3609.71702912417 
-77683.4637823302 4478.06529009455 5774.93260937856 -82161.5290724248               0               0               0               0 -5341.06138149018 -76820.4676909346               0 126064.653422315 
148250 296.5 -77631.1465975005 3610.70442127778 
-77631.1465975005 4428.23023759668 5710.6651074293 -82059.3768350972               0               0               0               0 -5161.94330747358 -76897.4335276236               0 133210.413662375 
148300 296.6 -77577.6601766971 3613.16762273146 
-77577.6601766971 4436.95872642432 5721.92140484704 -82014.6189031214               0               0               0               0 -5243.74101627331 -76770.8778868481               0 129333.631929803 
148350 296.7 -77526.5840752163 3615.4811520663 
-77526.5840752163 4490.61806219434 5791.12071925215 -82017.2021374106               0               0               0               0 -5182.61026474355 -76834.5918726671               0 133598.257512784 
148400 296.8 -77477.9826038339 3617.69764498159 
-77477.9826038339 4522.38412569853 5832.08637386369 -82000.3667295324               0               0               0               0 -5178.8245064707 -76821.5422230617               0 132545.948431083 
148450 296.9 -77410.3114163121 3619.85690226685 
-77410.3114163121 4554.70391203019 5873.76611185851 -81965.0153283423               0               0               0               0 -5181.44296976696 -76783.5723585754               0 133477.952231915 
148500 297 -77360.8278281942 3621.8921541029 
-77360.8278281942 4590.1315794417 5919.45378690459 -81950.9594076359               0               0               0               0 -5268.11508271755 -76682.8443249183               0 131129.01691697 
148550 297.1 -77312.1046667406 3624.00589033034 
-77312.1046667406 4623.99043770711 5963.11831880539 -81936.0951044478               0               0               0               0 -5198.70701564422 -76737.3880888035               0 132997.998271193 
148600 297.2 -77257.5978129797 3625.74643467158 
-77257.5978129797 4664.72953979412 6015.65564326994 -81922.3273527738               0               0               0               0 -5169.06458400539 -76753.2627687684               0 135524.594362435 
148650 297.3 -77194.6281614634 3628.12841097147 
-77194.6281614634 4687.41687838128 6044.91333446903 -81882.0450398447               0               0               0               0 -5041.77638438112 -76840.2686554636               0 142122.900348874 
148700 297.4 -77139.4837180194 3629.40114731902 
-77139.4837180194 4668.28343169498 6020.23875782922 -81807.7671497143               0               0               0               0 -5113.38836892403 -76694.3787807903               0 138135.608604751 
148750 297.5 -77063.8926227411 3631.90820223628 
-77063.8926227411 4721.94024079566 6089.4348138305 -81785.8328635368               0               0               0               0 -5064.4536385496 -76721.3792249872               0 142469.14347347 
148800 297.6 -76996.8256535031 3633.86281946773 
-76996.8256535031 4752.94873650722 6129.42350569896 -81749.7743900104               0               0               0               0 -5079.65263513945 -76670.1217548709               0 142612.107944118 
148850 297.7 -76910.7602171039 3634.50835458871 
-76910.7602171039 4858.39696195081 6265.40999903175 -81769.1571790547               0               0               0               0 -4986.14660493395 -76783.0105741208               0 150416.115230289 
148900 297.8 -76823.6525527142 3636.61521529414 
-76823.6525527142 4893.61585127813 6310.82843294614 -81717.2684039923               0               0               0               0 -5023.47141611286 -76693.7969878795               0 148326.613926413 
148950 297.9 -76746.1599123979 3639.6319843226 
-76746.1599123979 4887.66936658405 6303.15982024257 -81633.8292789819               0               0               0               0 -4992.40818104393 -76641.421097938               0 148437.056355878 
149000 298 -76687.3664117839 3641.66345296382 
-76687.3664117839 4904.33449754264 6324.65124611017 -81591.7009093265               0               0               0               0 -4956.4184547485 -76635.282454578               0 149734.700147895 
149050 298.1 -76604.4803738529 3643.41244613406 
-76604.4803738529 4995.76855835433 6442.56501135993 -81600.2489322072               0               0               0               0 -4981.48694452375 -76618.7619876834               0 152369.062917538 
149100 298.2 -76537.3981219265 3644.70324614292 
-76537.3981219265 4985.51659469484 6429.34403412713 -81522.9147166214               0               0               0               0 -4950.80493874782 -76572.1097778735               0 152700.281652663 
149150 298.3 -76456.4992597872 3645.66587003767 
-76456.4992597872 5040.09741024308 6499.73169288977 -81496.5966700302               0               0               0               0 -4804.34416406968 -76692.2525059606               0 162080.036758372 
149200 298.4 -76340.0203243289 3646.78323432395 
-76340.0203243289 5184.02714603093 6685.34411048875 -81524.0474703599               0               0               0               0 -4824.48689606223 -76699.5605742976               0 162678.872195361 
149250 298.5 -76239.4821247261 3649.04836641383 
-76239.4821247261 5225.47007687403 6738.78909559949 -81464.9522016002               0               0               0               0 -4834.5181795403 -76630.4340220599               0 163675.459780039 
149300 298.6 -76149.7927205728 3649.72710466141 
-76149.7927205728 5230.81766731643 6745.68537165328 -81380.6103878893               0               0               0               0 -4762.7614222328 -76617.8489656565               0 166641.946166347 
149350 298.7 -76026.5701459861 3650.91978948841 
-76026.5701459861 5306.28979723146 6843.01456091492 -81332.8599432176               0               0               0               0 -4700.37622021336 -76632.4837230042               0 173849.417840934 
149400 298.8 -75907.5094284842 3651.32672364702 
-75907.5094284842 5420.02681054421 6989.69031138377 -81327.5362390284               0               0               0               0 -4801.74528141577 -76525.7909576126               0 167958.129307473 
149450 298.9 -75778.7877725227 3653.4858458238 
-75778.7877725227 5454.4883034774 7034.13200359133 -81233.2760760001               0               0               0               0 -4622.0100954776 -76611.2659805225               0 176684.927008494 
149500 299 -75631.0488002097 3654.56484375354 
-75631.0488002097 5534.17479892376 7136.89605709858 -81165.2235991335               0               0               0               0 -4543.78168163963 -76621.4419174939               0 181203.324690765 
149550 299.1 -75466.7677528757 3656.56049679408 
-75466.7677528757 5592.6768463929 7212.3405537191 -81059.4445992686               0               0               0               0 -4494.15451389419 -76565.2900853744               0 186818.413200858 
149600 299.2 -75327.2752024561 3658.43682996884 
-75327.2752024561 5696.98641860378 7346.85863485637 -81024.2616210599               0               0               0               0 -4512.78635349192 -76511.475267568               0 186378.443651247 
149650 299.3 -75176.5373779594 3660.64205198328 
-75176.5373779594 5774.43819510038 7446.74078501927 -80950.9755730598               0               0               0               0 -4450.91572929198 -76500.0598437678               0 191373.587786128 
149700 299.4 -74959.4223708723 3663.08553674828 
-74959.4223708723 5808.18596176519 7490.26205270543 -80767.6083326375               0               0               0               0 -4403.9695572576 -76363.6387753799               0  196641.9295204 
149750 299.5 -74767.6633931713 3664.03044222279 
-74767.6633931713 5930.94190546321 7648.56865529669 -80698.6052986345               0               0               0               0 -4122.87583121371 -76575.7294674208               0 211900.192456381 
149800 299.6 -74551.6420470405 3666.46944166736 
-74551.6420470405 6210.25311971613 8008.76962041488 -80761.8951667566               0               0               0               0 -4365.58785505278 -76396.3073117038               0 204884.390579485 
149850 299.7 -74228.5200038868 3668.27050589855 
-74228.5200038868 6419.82911077882 8279.03973630799 -80648.3491146656               0               0               0               0 -4184.91666088334 -76463.4324537823               0 217609.683015976 
149900 299.8 -73944.2633969464 3670.2589976444 
-73944.2633969464 6486.1768892232 8364.60212195383 -80430.4402861696               0               0               0               0 -4043.92986870154 -76386.5104174681               0 226626.499606341 
149950 299.9 -73530.0886489479 3673.09934648538 
-73530.0886489479 6734.34802374893 8684.64470388072 -80264.4366726968               0               0               0               0 -4058.12592490883 -76206.310747788               0 226972.624862122 
150000 300 -73238.6656456966 3675.61226145521 
-73238.6656456966 7044.59321763927 9084.73826461183 -80283.2588633359               0               0               0               0 -3932.97141618071 -76350.2874471552               0 238382.445813586 
150050 300.1 -72889.8059323219 3676.82197603857 
-72889.8059323219 7084.94977117076 9136.78225278383 -79974.7557034927               0               0               0               0 -3881.10022324192 -76093.6554802508               0 246113.532646026 
150100 300.2 -72422.8385986043 3678.02860476573 
-72422.8385986043 7429.13968861033 9580.65107766179 -79851.9782872146               0               0               0               0 -3538.41107547646 -76313.5672117382               0 267585.104736919 
150150 300.3 -71889.0487332516 3679.26099855572 
-71889.0487332516 7783.88757236024 10038.1355021312 -79672.9363056118               0               0               0               0 -3454.90825562709 -76218.0280499848               0 275336.329357087 
150200 300.4 -71378.3869550739 3680.74491937856 
-71378.3869550739 8170.22677429369 10536.3602288814 -79548.6137293675               0               0               0               0 -3559.18919987825 -75989.4245294893               0 277870.034239032 
150250 300.5 -70752.1987163445 3683.19920828533 
-70752.1987163445 8510.00057680764 10974.5340126113 -79262.1992931521               0               0               0               0 -3149.02886883519 -76113.170424317               0 303955.900916875 
150300 300.6 -70087.5259718176 3685.43259220679 
-70087.5259718176 8903.69110567323 11482.2390427676 -78991.2170774908               0               0               0               0 -3166.8713415638 -75824.345735927               0 311368.600531488 
150350 300.7 -69173.4105764784 3688.1398682176 
-69173.4105764784 9685.97285524415 12491.0730129448 -78859.3834317225               0               0               0               0 -2946.65182608468 -75912.7316056379               0 335088.561827443 
150400 300.8 -68074.8701775666 3690.05296217712 
-68074.8701775666 10379.1351065199  13384.97808783 -78454.0052840865               0               0               0               0 -2809.00161691545 -75645.003667171               0 352113.183455644 
150450 300.9 -66961.0414737867 3691.17290741326 
-66961.0414737867 11266.7241366425 14529.6167881901 -78227.7656104292               0               0               0               0 -2453.54956483967 -75774.2160455895               0 382997.756948038 
150500 301 -65673.442866888 3691.90137249244 
-65673.442866888 12042.4106589527 15529.9455244087 -77715.8535258407               0               0               0               0 -2056.37970082632 -75659.4738250144               0 425779.845830642 
150550 301.1 -64199.3683179777 3695.12938731667 
-64199.3683179777 13099.8614077675 16893.638641088 -77299.2297257452               0               0               0               0 -1853.41987604421 -75445.809849701               0 441236.458088639 
150600 301.2 -62532.5050235558 3695.96187063901 
-62532.5050235558 14458.0732945132 18645.1946383986 -76990.5783180691               0               0               0               0 -1614.43163961186 -75376.1466784572               0 479583.352694812 
150650 301.3 -60697.7746924468 3698.47219643113 
-60697.7746924468 15786.6040477887 20358.4737160001 -76484.3787402355               0               0               0               0 -1364.59396325691 -75119.7847769785               0 513050.927047382 
150700 301.4 -58389.2448678701 3699.28417389836 
-58389.2448678701 17378.0589335741 22410.8209063384 -75767.3038014442               0               0               0               0 -838.582781676097 -74928.7210197681               0 560015.718715923 
150750 301.5 -55845.823058537 3700.08395395282 
-55845.823058537  19301.81496332 24891.7051072103 -75147.638021857               0               0               0               0 -69.4019699237431 -75078.2360519333               0 636803.083061931 
150800 301.6 -52986.1855996487 3703.28569865955 
-52986.1855996487 21236.5543267157 27386.7534632574 -74222.7399263643               0               0               0               0 509.954271725394 -74732.6941980897               0 689757.092089021 
150850 301.7 -50047.9384768675 3704.18408826287 
-50047.9384768675 23215.6067742073 29938.9481666197 -73263.5452510749               0               0               0               0 1334.52216663309 -74598.0674177079               0 757358.489433452 
150900 301.8 -46706.4255787575 3706.49169183795 
-46706.4255787575 25812.0703354393 33287.3589461564 -72518.4959141968               0               0               0               0 2200.23580951192 -74718.7317237087               0 841035.67039878 
150950 301.9 -42567.2769021757 3709.07773742579 
-42567.2769021757 28937.2164018052 37317.5609996299 -71504.4933039809               0               0               0               0 2982.16266491836 -74486.6559688993               0 926668.666585737 
151000 302 -30917.455203029 3712.17323425488 
ERROR: Lost atoms: original 6000 current 5999 (../thermo.cpp:441)
Last command: run         ${TCsteps}
