# LAMMPS data file written by OVITO Basic 3.8.4

8 atoms
8 angles
8 dihedrals
2 atom types
1 angle types
1 dihedral types

0.0 3.80895006 xlo xhi
0.0 3.2986475137 ylo yhi
0.0 12.45259869 zlo zhi
-1.90447503 0.0 0.0 xy xz yz

Masses

1 65.409  # Zn2+
2 32.065  # S2-

Atoms  # full

1 1 1 0.0 1.904475049 1.0995491602 9.3385212989
2 1 1 0.0 -1.9044749777e-08 2.1990983535 3.1122219539
3 1 1 0.0 0.0 0.0 6.2263155334
4 1 1 0.0 0.0 0.0 1.6188378297e-05
5 1 2 0.0 1.904475049 1.0995491602 11.6771942975
6 1 2 0.0 -1.9044749777e-08 2.1990983535 5.4508949525
7 1 2 0.0 0.0 0.0 8.5591776514
8 1 2 0.0 0.0 0.0 2.3328783064

Angles

1 1 4 8 2
2 1 8 2 6
3 1 2 6 3
4 1 6 3 7
5 1 3 7 1
6 1 7 1 5
7 1 1 5 4
8 1 5 4 8

Dihedrals

1 1 4 8 2 6
2 1 8 2 6 3
3 1 2 6 3 7
4 1 6 3 7 1
5 1 3 7 1 5
6 1 7 1 5 4
7 1 1 5 4 8
8 1 5 4 8 2