LAMMPS data file via write_data, version 22 Dec 2022, timestep = 106

6 atoms
2 atom types

-0.23856492214997047 5.008564922150001 xlo xhi
-0.23856492214997047 5.008564922150001 ylo yhi
-0.32758914886421475 6.877589148864251 zlo zhi

Masses

1 180.95
2 28.085

Atoms # atomic

4 2 -0.23856492214997047 -0.23856492214997047 1.8211279098052735 0 0 0
5 2 -0.23856492214997047 -0.23856492214997047 4.728872090194759 0 0 0
1 1 -0.23856492214997035 -0.23856492214997035 6.87758914886425 0 0 -1
3 2 2.3850000000000153 2.3850000000000153 1.1262829413305286 0 0 0
2 1 2.3850000000000153 2.3850000000000153 3.2750000000000172 0 0 0
6 2 2.3850000000000153 2.3850000000000153 5.423717058669508 0 0 0

Velocities

4 0 0 0
5 0 0 0
1 0 0 0
3 0 0 0
2 0 0 0
6 0 0 0
