LAMMPS (22 Dec 2022)
  using 1 OpenMP thread(s) per MPI task
Loaded 1 plugins from C:\Program Files\LAMMPS 64-bit 23Jun2022\plugins
Loaded 0 plugins from C:\Program Files\LAMMPS 64-bit 23Jun2022-MPI\plugins
Loaded 1 plugins from C:\Program Files\LAMMPS 64-bit 22Dec2022-MSMPI\plugins
Loaded 1 plugins from C:\Program Files\LAMMPS 64-bit 28Mar2023-MPI\plugins
# Compute elastic constant tensor for a crystal
#
# Written by Aidan Thompson (Sandia, athomps@sandia.gov)
#
#  This script uses the following three include files.
#
#   init.mod      (must be modified for different crystal structures)
# 	       	  Define units, deformation parameters and initial
#		  configuration of the atoms and simulation cell.
#
#
#   potential.mod    (must be modified for different pair styles)
# 		     Define pair style and other attributes
#		     not stored in restart file
#
#
#   displace.mod    (displace.mod should not need to be modified)
# 		    Perform positive and negative box displacements
# 		    in direction ${dir} and size ${up}.
# 		    It uses the resultant changes
#		    in stress to compute one
# 		    row of the elastic stiffness tensor
#
#		    Inputs variables:
#		    	   dir = the Voigt deformation component
#		    		    (1,2,3,4,5,6)
#		    Global constants:
#       	    	   up = the deformation magnitude (strain units)
#       		   cfac = conversion from LAMMPS pressure units to
#               	   output units for elastic constants
#
#
#  To run this on a different system, it should only be necessary to
#  modify the files init.mod and potential.mod. In order to calculate
#  the elastic constants correctly, care must be taken to specify
#  the correct units in init.mod (units, cfac and cunits). It is also
#  important to verify that the minimization of energy w.r.t atom
#  positions in the deformed cell is fully converged.
#  One indication of this is that the elastic constants are insensitive
#  to the choice of the variable ${up} in init.mod. Another is to check
#  the final max and two-norm forces reported in the log file. If you know
#  that minimization is not required, you can set maxiter = 0.0 in
#  init.mod.
#

include init.mod
# NOTE: This script can be modified for different atomic structures,
# units, etc. See in.elastic for more info.
#

# Define the finite deformation size. Try several values of this
# variable to verify that results do not depend on it.
variable up equal 1.0e-6

# Define the amount of random jiggle for atoms
# This prevents atoms from staying on saddle points
variable atomjiggle equal 1.0e-5

# Uncomment one of these blocks, depending on what units
# you are using in LAMMPS and for output

# metal units, elastic constants in eV/A^3
#units		metal
#variable cfac equal 6.2414e-7
#variable cunits string eV/A^3

# metal units, elastic constants in GPa
units		metal
variable cfac equal 1.0e-4
variable cunits string GPa

# real units, elastic constants in GPa
#units		real
#variable cfac equal 1.01325e-4
#variable cunits string GPa

# Define minimization parameters
variable etol equal 0.0
variable ftol equal 1.0e-10
variable maxiter equal 1000
variable maxeval equal 100000
variable dmax equal 1.0e-2

# generate the box and atom positions using a diamond lattice

dimension    3
boundary     p p p
read_data    data.in
Reading data file ...
  orthogonal box = (-0.23856492 -0.23856492 -0.32758915) to (5.0085649 5.0085649 6.8775891)
  1 by 2 by 2 MPI processor grid
  reading atoms ...
  6 atoms
  reading velocities ...
  6 velocities
  read_data CPU = 0.001 seconds
#replicate    2 3 4
replicate    2 3 4
Replication is creating a 2x3x4 = 24 times larger system...
  orthogonal box = (-0.23856492 -0.23856492 -0.32758915) to (10.255695 15.502825 28.493124)
  1 by 2 by 2 MPI processor grid
  144 atoms
  replicate CPU = 0.000 seconds
change_box   all triclinic
Changing box ...
  triclinic box = (-0.23856492 -0.23856492 -0.32758915) to (10.255695 15.502825 28.493124) with tilt (0 0 0)

# Need to set mass to something, just to satisfy LAMMPS
mass 1 1.0e-20

include potential.mod
# NOTE: This script can be modified for different pair styles
# See in.elastic for more info.

# Choose potential
#-----------------------
#pair_style	sw
#pair_coeff * * Si.sw Si
#-----------------------
#pair_style morse	2.83994742	# D0[eV] a[1/A] r0[A] rc[A], 1NN for BCC
#pair_coeff 1 1	2.1173	1.0202	2.4595	2.6497	#	Fe-Fe
#-----------------------
#pair_style smatb # R0(A)   p       q     A(eV)   xi(eV)  Rcs(A)   Rc(A), 4NN: Rcs=4NN, Rc=(4NN+5NN)/2
#pair_coeff 1 1	2.4802	7.0149	2.3779	0.3144	3.0551	4.033	4.176	#	Co	Co
#-----------------------
#pair_style eam/alloy
#pair_coeff * * AlCrFeCoNi_Zhou04.eam.alloy Fe
#-----------------------
pair_style meam
pair_coeff * * ./../../library.meam Ta Si ./../../TaSi.meam Ta Si
#-----------------------

# Setup neighbor style
neighbor 1.0 nsq
neigh_modify once no every 1 delay 0 check yes

# Setup minimization style
min_style	     cg
min_modify	     dmax ${dmax} line quadratic
min_modify	     dmax 0.01 line quadratic

# Setup output
thermo		1
thermo_style custom step temp pe press pxx pyy pzz pxy pxz pyz lx ly lz vol
thermo_modify norm no

# Compute initial state
fix 3 all box/relax  aniso 0.0
minimize ${etol} ${ftol} ${maxiter} ${maxeval}
minimize 0 ${ftol} ${maxiter} ${maxeval}
minimize 0 1e-10 ${maxiter} ${maxeval}
minimize 0 1e-10 1000 ${maxeval}
minimize 0 1e-10 1000 100000
Neighbor list info ...
  update: every = 1 steps, delay = 0 steps, check = yes
  max neighbors/atom: 2000, page size: 100000
  master list distance cutoff = 5.3
  ghost atom cutoff = 5.3
  2 neighbor lists, perpetual/occasional/extra = 2 0 0
  (1) pair meam, perpetual
      attributes: full, newton on
      pair build: full/nsq
      stencil: none
      bin: none
  (2) pair meam, perpetual, half/full from (1)
      attributes: half, newton on
      pair build: halffull/newton
      stencil: none
      bin: none
Per MPI rank memory allocation (min/avg/max) = 9.759 | 9.759 | 9.759 Mbytes
   Step          Temp          PotEng         Press           Pxx            Pyy            Pzz            Pxy            Pxz            Pyz             Lx             Ly             Lz           Volume    
         0   0             -748.08194     -1.5303154e-10 -82833.961     -82833.961      165667.92      3.2649461e-12 -4.1844561e-12 -1.076003e-11   10.49426       15.74139       28.820713      4761.0155    
         1   0             -748.15569     -221.17764     -82849.149     -82849.149      165034.77      8.6367061e-13 -1.1357809e-11 -5.0811253e-12  10.493735      15.740602      28.823595      4761.0155    
         2   0             -748.22936     -442.33182     -82864.436     -82864.436      164401.88      1.223247e-12   0              1.6588387e-11  10.493208      15.739812      28.826477      4761.0134    
         3   0             -748.30294     -663.4633      -82879.821     -82879.821      163769.25      2.7850862e-12 -2.9889011e-12  7.771143e-12   10.492679      15.739018      28.829359      4761.0092    
         4   0             -748.37644     -884.57283     -82895.307     -82895.307      163136.9      -7.7122979e-13 -1.793343e-12   1.4944525e-12  10.492148      15.738221      28.832241      4761.003     
         5   0             -748.44986     -1105.6578     -82910.893     -82910.893      162504.81      3.3981572e-12  7.1733848e-12 -1.4944552e-11  10.491614      15.737421      28.835124      4760.9946    
         6   0             -748.5232      -1326.7138     -82926.581     -82926.581      161873.02     -2.6090929e-12  1.1955668e-12  6.725063e-12   10.491078      15.736617      28.838006      4760.9841    
         7   0             -748.59646     -1547.7416     -82942.371     -82942.371      161241.52     -8.0698511e-13 -1.1955699e-12  1.0162344e-11  10.49054       15.73581       28.840888      4760.9715    
         8   0             -748.66964     -1768.7419     -82958.265     -82958.265      160610.3      -5.1020443e-12 -6.575655e-12  -3.8856143e-12  10.49          15.735         28.84377       4760.9567    
         9   0             -748.74274     -1989.7155     -82974.263     -82974.263      159979.38      2.1242633e-13  4.7823116e-12 -1.0162412e-11  10.489457      15.734186      28.846652      4760.9398    
        10   0             -748.81577     -2210.6632     -82990.365     -82990.365      159348.74      4.9530057e-13 -2.9889567e-12  4.1845394e-12  10.488912      15.733368      28.849534      4760.9207    
        11   0             -748.88872     -2431.5858     -83006.573     -83006.573      158718.39      1.923379e-12  -1.1955881e-12  2.9889701e-13  10.488365      15.732547      28.852416      4760.8993    
        12   0             -748.96159     -2652.4841     -83022.888     -83022.888      158088.32      3.011787e-12   8.9669547e-12 -1.1657041e-11  10.487815      15.731722      28.855298      4760.8758    
        13   0             -749.03439     -2873.359      -83039.31      -83039.31       157458.54     -2.2983526e-12  0              7.9208529e-12  10.487263      15.730894      28.85818       4760.85      
        14   0             -749.10712     -3094.2112     -83055.841     -83055.841      156829.05     -2.5488993e-12  3.5868225e-12 -6.5758412e-12  10.486708      15.730062      28.861062      4760.822     
        15   0             -749.17978     -3315.0416     -83072.48      -83072.48       156199.84     -4.0512036e-13  4.1846528e-12  1.0461632e-11  10.486151      15.729227      28.863944      4760.7916    
        16   0             -749.25237     -3535.8511     -83089.23      -83089.23       155570.91     -1.0754291e-12 -1.7934349e-12 -5.2308519e-12  10.485592      15.728388      28.866826      4760.759     
        17   0             -749.32489     -3756.6399     -83106.091     -83106.091      154942.26      2.3931322e-12  0              8.2199704e-12  10.48503       15.727545      28.869708      4760.7241    
        18   0             -749.39734     -3977.4084     -83123.064     -83123.064      154313.9      -3.7177552e-13 -7.1738484e-12 -4.4836553e-13  10.484466      15.726699      28.87259       4760.6869    
        19   0             -749.46973     -4198.1575     -83140.15      -83140.15       153685.83      4.9310378e-12  5.9782568e-12  9.8641236e-12  10.483899      15.725848      28.875473      4760.6473    
        20   0             -749.54204     -4418.8879     -83157.35      -83157.35       153058.04      2.890626e-12   4.7826475e-12  1.5095231e-11  10.48333       15.724994      28.878355      4760.6053    
        21   0             -749.6143      -4639.5991     -83174.665     -83174.665      152430.53      2.1500285e-12  8.3697112e-12  2.0924278e-11  10.482758      15.724136      28.881237      4760.561     
        22   0             -749.68649     -4860.2855     -83192.096     -83192.096      151803.33     -1.6135834e-12  0              1.5244981e-11  10.482183      15.723275      28.884119      4760.5143    
        23   0             -749.75862     -5080.9474     -83209.643     -83209.643      151176.44      3.0264655e-13 -1.1956971e-12 -9.4161147e-12  10.481606      15.722409      28.887001      4760.4651    
        24   0             -749.83069     -5301.5855     -83227.308     -83227.308      150549.86     -1.1191044e-12 -1.7935651e-12 -6.4269416e-12  10.481026      15.72154       28.889883      4760.4135    
        25   0             -749.9027      -5522.2008     -83245.092     -83245.092      149923.58      8.9104102e-13  3.587171e-12  -5.6796873e-12  10.480444      15.720666      28.892765      4760.3594    
        26   0             -749.97465     -5742.7943     -83262.996     -83262.996      149297.61      1.5586147e-12 -2.3914757e-12 -1.7338199e-11  10.479859      15.719789      28.895647      4760.3029    
        27   0             -750.04654     -5963.3668     -83281.021     -83281.021      148671.94     -6.4116464e-13 -4.7830108e-12  2.6904435e-12  10.479272      15.718908      28.898529      4760.2438    
        28   0             -750.11838     -6183.9193     -83299.167     -83299.167      148046.58      2.8400587e-12 -5.9788408e-13  7.623022e-12   10.478681      15.718022      28.901411      4760.1823    
        29   0             -750.19016     -6404.4527     -83317.437     -83317.437      147421.52      1.8765361e-12 -8.3704898e-12 -8.2210168e-12  10.478088      15.717133      28.904293      4760.1182    
        30   0             -750.26189     -6624.968      -83335.83      -83335.83       146796.76     -2.916696e-12   1.4947513e-12 -1.0463259e-12  10.477493      15.716239      28.907175      4760.0515    
        31   0             -750.33357     -6845.4662     -83354.349     -83354.349      146172.3      -3.6403583e-12  2.6905914e-12  1.7040412e-11  10.476894      15.715341      28.910057      4759.9822    
        32   0             -750.40519     -7065.9482     -83372.994     -83372.994      145548.14     -4.1648776e-12 -9.2677326e-12 -2.6906321e-12  10.476293      15.714439      28.912939      4759.9103    
        33   0             -750.47677     -7286.415      -83391.766     -83391.766      144924.29     -2.021704e-13   1.7937828e-12  1.6144045e-11  10.475689      15.713533      28.915822      4759.8358    
        34   0             -750.5483      -7506.8676     -83410.667     -83410.667      144300.73      2.7933817e-12  8.9690593e-13  5.3814356e-12  10.475082      15.712623      28.918704      4759.7587    
        35   0             -750.61978     -7727.307      -83429.698     -83429.698      143677.47     -2.1034216e-12 -5.9794732e-12  2.0928156e-12  10.474472      15.711708      28.921586      4759.6788    
        36   0             -750.69122     -7947.7343     -83448.859     -83448.859      143054.51     -1.5220072e-12  8.0724287e-12  1.2706601e-11  10.473859      15.710789      28.924468      4759.5963    
        37   0             -750.76261     -8168.1501     -83468.152     -83468.152      142431.85     -3.9755011e-12 -5.0827313e-12  1.9433973e-12  10.473244      15.709866      28.92735       4759.5111    
        38   0             -750.83397     -8388.5492     -83487.578     -83487.578      141809.51      2.2762376e-12 -1.4949486e-12  7.624238e-12   10.472625      15.708938      28.930232      4759.4231    
        39   0             -750.90528     -8608.9301     -83507.139     -83507.139      141187.49      2.1766001e-12 -1.5547762e-11  5.5314154e-12  10.472004      15.708006      28.933114      4759.3323    
        40   0             -750.97655     -8829.2934     -83526.835     -83526.835      140565.79     -7.836218e-13   1.4950065e-12  2.5564611e-11  10.471379      15.707069      28.935996      4759.2388    
        41   0             -751.04778     -9049.64       -83546.668     -83546.668      139944.42     -1.9597647e-12  5.9801471e-13  5.2326288e-12  10.470752      15.706128      28.938878      4759.1424    
        42   0             -751.11897     -9269.9711     -83566.639     -83566.639      139323.36     -2.6377358e-13  5.083231e-12  -6.1297786e-12  10.470122      15.705182      28.94176       4759.0432    
        43   0             -751.19014     -9490.2878     -83586.75      -83586.75       138702.64      1.7124492e-12 -5.3823601e-12  1.390443e-11   10.469488      15.704232      28.944642      4758.9411    
        44   0             -751.26126     -9710.591      -83607.001     -83607.001      138082.23      2.0842658e-12 -1.4353277e-11 -7.9242049e-12  10.468851      15.703277      28.947524      4758.8362    
        45   0             -751.33236     -9930.882      -83627.393     -83627.393      137462.14     -1.1455379e-12  8.9710013e-13  3.5884005e-12  10.468212      15.702317      28.950406      4758.7283    
        46   0             -751.40342     -10151.162     -83647.93      -83647.93       136842.37     -4.8161927e-12 -5.6817665e-12  8.9712102e-12  10.467569      15.701353      28.953288      4758.6175    
        47   0             -751.47446     -10371.432     -83668.61      -83668.61       136222.92      1.6650604e-12  2.9904749e-12  8.821901e-12   10.466923      15.700384      28.956171      4758.5037    
        48   0             -751.54547     -10591.693     -83689.437     -83689.437      135603.79     -1.4349397e-12 -2.9905483e-13  2.0933838e-12  10.466273      15.69941       28.959053      4758.3869    
        49   0             -751.61645     -10811.946     -83710.411     -83710.411      134984.98     -3.0322737e-12  6.5793719e-12  1.4953118e-12  10.465621      15.698431      28.961935      4758.2671    
        50   0             -751.68741     -11032.193     -83731.533     -83731.533      134366.49      5.8457258e-12  1.7944205e-12  7.476752e-12   10.464965      15.697448      28.964817      4758.1443    
        51   0             -751.75835     -11252.435     -83752.806     -83752.806      133748.31     -2.846134e-12  -3.8880139e-12  1.3308971e-11  10.464306      15.696459      28.967699      4758.0184    
        52   0             -751.82927     -11472.673     -83774.23      -83774.23       133130.44     -1.0304989e-12  5.9817221e-13 -1.9440597e-12  10.463644      15.695465      28.970581      4757.8894    
        53   0             -751.90017     -11692.907     -83795.807     -83795.807      132512.89     -6.9132942e-13  5.3836994e-12  8.9728323e-13  10.462978      15.694467      28.973463      4757.7572    
        54   0             -751.97105     -11913.136     -83817.538     -83817.538      131895.67      9.0516155e-13 -2.9910292e-13  5.6829554e-12  10.462309      15.693463      28.976345      4757.6219    
        55   0             -752.04191     -12133.356     -83839.426     -83839.426      131278.78     -1.9721983e-12  4.785786e-12  -1.7348474e-11  10.461636      15.692454      28.979227      4757.4834    
        56   0             -752.11277     -12353.568     -83861.471     -83861.471      130662.24      5.5328164e-12  1.7947232e-12  9.5718571e-12  10.46096       15.69144       28.982109      4757.3417    
        57   0             -752.18361     -12573.773     -83883.675     -83883.675      130046.03     -5.6310016e-12 -2.9912965e-12 -7.4782412e-12  10.460281      15.690421      28.984991      4757.1967    
        58   0             -752.25444     -12793.974     -83906.039     -83906.039      129430.16     -2.8996377e-12  3.5896677e-12 -2.5426813e-12  10.459598      15.689397      28.987873      4757.0485    
        59   0             -752.32526     -13014.17      -83928.566     -83928.566      128814.62      5.0220133e-12  0              5.0855245e-12  10.458911      15.688367      28.990755      4756.8969    
        60   0             -752.39608     -13234.364     -83951.256     -83951.256      128199.42     -2.3496026e-12 -4.4873736e-12 -5.5344275e-12  10.458221      15.687332      28.993637      4756.7421    
        61   0             -752.46689     -13454.557     -83974.111     -83974.111      127584.55      1.9471653e-12 -2.3933456e-12  1.495841e-11   10.457527      15.686291      28.99652       4756.5838    
        62   0             -752.5377      -13674.748     -83997.134     -83997.134      126970.02     -5.0059487e-12  1.4958918e-12 -8.6761725e-12  10.45683       15.685245      28.999402      4756.4221    
        63   0             -752.60851     -13894.941     -84020.325     -84020.325      126355.83     -7.2179087e-13 -4.4878312e-12 -1.9447269e-12  10.456129      15.684193      29.002284      4756.257     
        64   0             -752.67932     -14115.134     -84043.686     -84043.686      125741.97     -7.0414898e-13  6.5823858e-12 -1.3463971e-12  10.455424      15.683136      29.005166      4756.0885    
        65   0             -752.75014     -14335.332     -84067.22      -84067.22       125128.44     -6.4158837e-14  1.1968407e-12 -8.9763053e-13  10.454716      15.682073      29.008048      4755.9164    
        66   0             -752.82096     -14555.534     -84090.927     -84090.927      124515.25     -4.0251646e-12  9.8743004e-12  7.33092e-12    10.454003      15.681005      29.01093       4755.7408    
        67   0             -752.89179     -14775.742     -84114.81      -84114.81       123902.39     -2.143172e-12  -3.8900225e-12  1.3016614e-11  10.453287      15.679931      29.013812      4755.5616    
        68   0             -752.96263     -14995.958     -84138.87      -84138.87       123289.87      2.2728145e-12  1.047354e-11   1.4363712e-11  10.452567      15.678851      29.016694      4755.3789    
        69   0             -753.03348     -15216.182     -84163.11      -84163.11       122677.67      2.3349349e-12 -2.9925573e-12 -1.1820601e-11  10.451843      15.677765      29.019576      4755.1925    
        70   0             -753.10434     -15436.416     -84187.53      -84187.53       122065.81      1.3812291e-12 -2.3941416e-12  2.0948739e-12  10.451115      15.676673      29.022458      4755.0024    
        71   0             -753.17522     -15656.653     -84212.133     -84212.133      121454.31     -3.556474e-13  -2.0949592e-12  5.8359579e-12  10.450384      15.675575      29.02534       4754.8086    
        72   0             -753.24612     -15876.895     -84236.921     -84236.921      120843.16      7.6395117e-14 -5.9858465e-13  1.0325585e-11  10.449648      15.674471      29.028222      4754.611     
        73   0             -753.31704     -16097.144     -84261.896     -84261.896      120232.36      5.3906902e-12  5.9861e-12    -6.1357525e-12  10.448908      15.673362      29.031104      4754.4097    
        74   0             -753.38799     -16317.402     -84287.059     -84287.059      119621.91     -5.6232158e-13 -3.8911329e-12  3.591815e-12   10.448164      15.672245      29.033986      4754.2045    
        75   0             -753.45896     -16537.669     -84312.413     -84312.413      119011.82      3.2490463e-12 -5.0886283e-12  3.5171401e-12  10.447415      15.671123      29.036869      4753.9955    
        76   0             -753.52996     -16757.947     -84337.96      -84337.96       118402.08     -1.6152847e-12  4.1908228e-12 -4.1908228e-12  10.446663      15.669995      29.039751      4753.7826    
        77   0             -753.60098     -16978.239     -84363.702     -84363.702      117792.69     -2.2521484e-12  1.1974326e-12 -8.8310651e-12  10.445906      15.66886       29.042633      4753.5657    
        78   0             -753.67204     -17198.545     -84389.64      -84389.64       117183.64     -1.2367481e-12 -1.4968602e-12  5.2390108e-12  10.445146      15.667718      29.045515      4753.3449    
        79   0             -753.74314     -17418.868     -84415.777     -84415.777      116574.95      4.3719758e-12  7.7840414e-12 -2.9938621e-13  10.44438       15.66657       29.048397      4753.1201    
        80   0             -753.81427     -17639.209     -84442.116     -84442.116      115966.6      -3.2577981e-12  9.2814195e-12  8.3083674e-12  10.443611      15.665416      29.051279      4752.8911    
        81   0             -753.88545     -17859.57      -84468.657     -84468.657      115358.6      -2.6963312e-12 -1.1976612e-12 -7.1111135e-12  10.442837      15.664255      29.054161      4752.6581    
        82   0             -753.95666     -18079.953     -84495.404     -84495.404      114750.95     -1.7739214e-13 -3.8925932e-12  1.0330344e-11  10.442058      15.663087      29.057043      4752.421     
        83   0             -754.02792     -18300.358     -84522.359     -84522.359      114143.64      2.4019133e-12  7.4861364e-12  4.1922364e-12  10.441275      15.661913      29.059925      4752.1796    
        84   0             -754.09923     -18520.788     -84549.524     -84549.524      113536.68     -3.5231522e-12 -8.983828e-13   6.1389491e-12  10.440488      15.660732      29.062807      4751.934     
        85   0             -754.17059     -18741.244     -84576.901     -84576.901      112930.07      1.955289e-12  -5.9895336e-13  6.1392719e-12  10.439696      15.659544      29.065689      4751.6841    
        86   0             -754.24201     -18961.727     -84604.493     -84604.493      112323.81      3.5344638e-12 -8.0863029e-12  3.2195465e-12  10.438899      15.658348      29.068571      4751.43      
        87   0             -754.31348     -19182.233     -84632.302     -84632.302      111717.91      4.7128875e-12 -8.98527e-13    2.096563e-12   10.438097      15.657146      29.071453      4751.1714    
        88   0             -754.38501     -19402.762     -84660.33      -84660.33       111112.38     -2.2914982e-12  0              3.2199e-12     10.437291      15.655937      29.074335      4750.9084    
        89   0             -754.4566      -19623.316     -84688.581     -84688.581      110507.21     -2.8844196e-12  2.9954244e-13 -3.7442805e-12  10.43648       15.65472       29.077218      4750.641     
        90   0             -754.52825     -19843.897     -84717.056     -84717.056      109902.42     -5.5460856e-12 -6.2907514e-12 -5.1674029e-12  10.435664      15.653496      29.0801        4750.369     
        91   0             -754.59998     -20064.508     -84745.758     -84745.758      109297.99      1.469984e-12  -3.8945013e-12  1.3181389e-11  10.434843      15.652265      29.082982      4750.0925    
        92   0             -754.67177     -20285.149     -84774.69      -84774.69       108693.93      1.161356e-12  -7.1902742e-12 -4.56882e-12    10.434018      15.651027      29.085864      4749.8114    
        93   0             -754.74364     -20505.824     -84803.855     -84803.855      108090.24      9.9288699e-13  2.9961278e-12 -3.445547e-12   10.433187      15.64978       29.088746      4749.5256    
        94   0             -754.81558     -20726.535     -84833.254     -84833.254      107486.9      -2.2678985e-12  5.9926222e-12  2.3970489e-12  10.432351      15.648527      29.091628      4749.2351    
        95   0             -754.88761     -20947.282     -84862.891     -84862.891      106883.93     -5.8672747e-13 -5.9929948e-13 -5.0940456e-12  10.43151       15.647265      29.09451       4748.9399    
        96   0             -754.95972     -21168.07      -84892.768     -84892.768      106281.33      1.1635972e-13  5.9933735e-12  7.2669654e-12  10.430664      15.645996      29.097392      4748.6398    
        97   0             -755.03191     -21388.899     -84922.889     -84922.889      105679.08     -7.1774392e-14 -5.0946946e-12 -1.7232055e-12  10.429812      15.644719      29.100274      4748.3348    
        98   0             -755.1042      -21609.772     -84953.256     -84953.256      105077.2       4.819389e-12  -8.9912244e-13  4.9451734e-12  10.428956      15.643434      29.103156      4748.025     
        99   0             -755.17658     -21830.691     -84983.873     -84983.873      104475.67      4.3644143e-13 -2.3978188e-12 -8.2425023e-12  10.428094      15.64214       29.106038      4747.7101    
       100   0             -755.24905     -22051.659     -85014.741     -85014.741      103874.51      2.1807341e-12  0              2.8476017e-12  10.427226      15.640839      29.10892       4747.3902    
       101   0             -755.32163     -22272.677     -85045.865     -85045.865      103273.7      -1.6602114e-12 -3.8969849e-12  5.8454774e-12  10.426353      15.639529      29.111802      4747.0652    
       102   0             -755.39431     -22493.749     -85077.247     -85077.247      102673.25     -1.3616672e-12  0              4.2719921e-12  10.425474      15.638212      29.114684      4746.7351    
       103   0             -755.46709     -22714.871     -85108.89      -85108.89       102073.17     -7.2907224e-12 -1.4990505e-12  4.5721041e-12  10.42459       15.636885      29.117567      4746.3997    
       104   0             -755.53999     -22936.043     -85140.798     -85140.798      101473.47      3.7302749e-12  3.2981478e-12 -3.3731057e-12  10.4237        15.63555       29.120449      4746.0591    
       105   0             -755.613       -23157.267     -85172.974     -85172.974      100874.15     -4.4994659e-13  1.7991209e-12  1.4992674e-13  10.422804      15.634207      29.123331      4745.7131    
       106   0             -755.68613     -23378.544     -85205.421     -85205.421      100275.21     -3.9029143e-12 -1.1995027e-12 -1.4993784e-12  10.421903      15.632854      29.126213      4745.3617    
       107   0             -755.75939     -23599.878     -85238.142     -85238.142      99676.649      1.215282e-12  -3.2988806e-12  1.4994912e-12  10.420996      15.631493      29.129095      4745.0049    
       108   0             -755.83277     -23821.271     -85271.141     -85271.141      99078.47       3.0945923e-12 -2.9992114e-12  4.7237579e-12  10.420082      15.630123      29.131977      4744.6426    
       109   0             -755.90628     -24042.725     -85304.422     -85304.422      98480.669      2.1066146e-12 -2.999444e-12  -6.0738741e-12  10.419163      15.628744      29.134859      4744.2746    
       110   0             -755.97992     -24264.243     -85337.988     -85337.988      97883.245     -3.270776e-12   5.3994244e-12  6.4493125e-12  10.418237      15.627356      29.137741      4743.901     
       111   0             -756.0537      -24485.829     -85371.842     -85371.842      97286.198      5.8644302e-14 -2.6999281e-12 -5.7748462e-12  10.417305      15.625958      29.140623      4743.5216    
       112   0             -756.12763     -24707.484     -85405.988     -85405.988      96689.526      4.3103011e-13  6.3003438e-12  3.6752005e-12  10.416367      15.624551      29.143505      4743.1365    
       113   0             -756.2017      -24929.211     -85440.431     -85440.431      96093.228     -4.1257966e-12 -9.0012331e-13  3.7505138e-13  10.415423      15.623135      29.146387      4742.7455    
       114   0             -756.27592     -25151.014     -85475.173     -85475.173      95497.304      4.3436431e-13 -6.0013244e-13  6.7514899e-13  10.414472      15.621708      29.149269      4742.3485    
       115   0             -756.3503      -25372.895     -85510.219     -85510.219      94901.753      9.0246425e-12 -4.2012841e-12 -1.230376e-11   10.413515      15.620272      29.152151      4741.9456    
       116   0             -756.42484     -25594.858     -85545.573     -85545.573      94306.573     -5.2218169e-12 -3.9015289e-12 -3.6764407e-12  10.412551      15.618827      29.155033      4741.5365    
       117   0             -756.49955     -25816.904     -85581.238     -85581.238      93711.763     -1.9127021e-12  3.0014389e-13  1.0505036e-12  10.411581      15.617371      29.157916      4741.1213    
       118   0             -756.57442     -26039.039     -85617.219     -85617.219      93117.323      1.7884354e-12  3.6020469e-12 -3.0767484e-12  10.410603      15.615905      29.160798      4740.6998    
       119   0             -756.64947     -26261.26      -85653.521     -85653.521      92523.26       2.7734633e-12  2.1013837e-12 -9.00593e-13    10.409619      15.614429      29.16368       4740.272     
       120   0             -756.7247      -26483.568     -85690.146     -85690.146      91929.589     -3.3298625e-12  3.0022517e-13  7.4305729e-12  10.408628      15.612942      29.166562      4739.8378    
       121   0             -756.80011     -26705.964     -85727.1       -85727.1        91336.308     -1.0977134e-12 -9.0075925e-13 -4.5788595e-12  10.40763       15.611445      29.169444      4739.3971    
       122   0             -756.87571     -26928.453     -85764.388     -85764.388      90743.418     -9.9070329e-13  0             -1.1410694e-11  10.406625      15.609937      29.172326      4738.9498    
       123   0             -756.95151     -27151.037     -85802.013     -85802.013      90150.916     -2.3100053e-12 -1.8018611e-12 -3.7538773e-12  10.405612      15.608419      29.175208      4738.4959    
       124   0             -757.02751     -27373.72      -85839.98      -85839.98       89558.801      1.7120234e-13 -2.1023757e-12 -9.1603512e-12  10.404593      15.606889      29.17809       4738.0353    
       125   0             -757.10371     -27596.505     -85878.294     -85878.294      88967.074     -3.7985548e-12  3.9047972e-12  2.2527676e-13  10.403566      15.605348      29.180972      4737.5678    
       126   0             -757.18012     -27819.396     -85916.96      -85916.96       88375.732      3.7942266e-12  1.8023946e-12  3.5296894e-12  10.402531      15.603797      29.183854      4737.0934    
       127   0             -757.25675     -28042.397     -85955.983     -85955.983      87784.776     -1.8905317e-12 -3.304726e-12  -1.2017185e-12  10.401489      15.602233      29.186736      4736.612     
       128   0             -757.33357     -28265.41      -85995.35      -85995.35       87194.47       1.2966751e-12 -3.0046061e-13 -1.6525333e-12  10.400439      15.600659      29.189617      4736.1237    
       129   0             -757.41004     -28486.894     -86034.79      -86034.79       86608.9        2.4042381e-13 -1.5024591e-12 -7.4371724e-12  10.39939       15.599085      29.192477      4735.6318    
       130   0             -757.48618     -28706.863     -86074.303     -86074.303      86028.019     -2.501949e-12   7.5130812e-12 -2.8549709e-12  10.398341      15.597511      29.195315      4735.1365    
       131   0             -757.56199     -28925.332     -86113.889     -86113.889      85451.782      1.0968129e-12  6.0110982e-13  3.2309653e-12  10.397291      15.595937      29.198133      4734.6376    
       132   0             -757.63748     -29142.317     -86153.546     -86153.546      84880.143      3.4923948e-12 -5.1099756e-12  2.8555746e-12  10.396242      15.594363      29.200929      4734.1354    
       133   0             -757.71265     -29357.832     -86193.275     -86193.275      84313.056      1.5779726e-12  2.1043324e-12 -1.7285587e-12  10.395192      15.592788      29.203706      4733.6297    
       134   0             -757.78751     -29571.891     -86233.076     -86233.076      83750.477     -9.0129476e-13 -3.0065124e-12 -1.5032562e-12  10.394143      15.591214      29.206462      4733.1206    
       135   0             -757.86206     -29784.51      -86272.946     -86272.946      83192.363     -1.2249944e-12  0             -4.510257e-13   10.393093      15.58964       29.209198      4732.6082    
       136   0             -757.9363      -29995.696     -86312.887     -86312.887      82638.688      1.8359956e-12  1.5035828e-12 -8.1193474e-12  10.392044      15.588066      29.211913      4732.0924    
       137   0             -758.01025     -30205.462     -86352.898     -86352.898      82089.41       5.5805029e-12  1.8044973e-12 -4.8119929e-12  10.390995      15.586492      29.214609      4731.5734    
       138   0             -758.08391     -30413.823     -86392.978     -86392.978      81544.488      1.9746363e-13 -1.8046966e-12  3.8349802e-12  10.389945      15.584918      29.217285      4731.051     
       139   0             -758.15727     -30620.792     -86433.127     -86433.127      81003.879      4.86453e-12    1.5040809e-12  1.5040809e-13  10.388896      15.583344      29.219942      4730.5255    
       140   0             -758.23036     -30826.383     -86473.344     -86473.344      80467.54       2.5078795e-12  5.1144467e-12 -1.0379318e-11  10.387846      15.581769      29.22258       4729.9967    
       141   0             -758.30316     -31030.609     -86513.63      -86513.63       79935.431      3.4452756e-12  1.0530927e-12  5.2654637e-12  10.386797      15.580195      29.225198      4729.4648    
       142   0             -758.37569     -31233.485     -86553.983     -86553.983      79407.511     -5.3668413e-12  1.6550473e-12  1.8807356e-12  10.385747      15.578621      29.227797      4728.9297    
       143   0             -758.44796     -31435.023     -86594.404     -86594.404      78883.739      1.0271329e-12 -3.1599954e-12 -3.5361853e-12  10.384698      15.577047      29.230377      4728.3915    
       144   0             -758.51995     -31635.236     -86634.891     -86634.891      78364.076     -5.0262919e-13 -3.9128232e-12  4.0633164e-12  10.383649      15.575473      29.232939      4727.8502    
       145   0             -758.59169     -31834.136     -86675.445     -86675.445      77848.481      1.8592183e-12  6.0204212e-13  6.1709317e-12  10.382599      15.573899      29.235482      4727.3058    
       146   0             -758.66317     -32031.738     -86716.065     -86716.065      77336.916      3.4607081e-12 -4.5158388e-12 -3.0858232e-12  10.38155       15.572325      29.238007      4726.7583    
       147   0             -758.7344      -32228.053     -86756.751     -86756.751      76829.342     -8.8528005e-14  0             -3.9894556e-12  10.3805        15.57075       29.240513      4726.2079    
       148   0             -758.80538     -32423.094     -86797.502     -86797.502      76325.722     -1.5373954e-12 -4.5168937e-13  1.5056312e-13  10.379451      15.569176      29.243001      4725.6545    
       149   0             -758.87611     -32616.873     -86838.317     -86838.317      75826.017     -6.7402119e-13  4.3668447e-12  2.1834224e-12  10.378401      15.567602      29.245472      4725.0981    
       150   0             -758.94661     -32809.401     -86879.198     -86879.198      75330.191     -6.5038816e-12 -7.529934e-13  -3.8402663e-12  10.377352      15.566028      29.247925      4724.5387    
       151   0             -759.01687     -33000.692     -86920.142     -86920.142      74838.208      1.1081738e-12 -3.4641819e-12 -1.9580159e-12  10.376303      15.564454      29.25036       4723.9765    
       152   0             -759.08689     -33190.756     -86961.151     -86961.151      74350.033      2.5019832e-12  1.205077e-12   1.5063462e-13  10.375253      15.56288       29.252777      4723.4114    
       153   0             -759.15669     -33379.606     -87002.223     -87002.223      73865.629     -4.7426236e-12  1.5065274e-13  2.4857702e-12  10.374204      15.561306      29.255177      4722.8434    
       154   0             -759.22627     -33567.249     -87043.358     -87043.358      73384.969      4.4365224e-13  4.5201285e-13  7.5335476e-13  10.373154      15.559732      29.25756       4722.2725    
       155   0             -759.29562     -33753.695     -87084.555     -87084.555      72908.026      1.6055055e-12  1.3562033e-12  2.2603388e-12  10.372105      15.558157      29.259926      4721.6989    
       156   0             -759.36476     -33938.955     -87125.815     -87125.815      72434.765     -2.9831403e-12  4.5212296e-13  6.9325521e-12  10.371055      15.556583      29.262275      4721.1225    
       157   0             -759.43369     -34123.041     -87167.137     -87167.137      71965.15       4.5841177e-12  1.5072615e-13  5.2754151e-13  10.370006      15.555009      29.264607      4720.5433    
       158   0             -759.5024      -34305.964     -87208.52      -87208.52       71499.147     -5.1823578e-13 -1.5074473e-13 -9.7984074e-13  10.368957      15.553435      29.266923      4719.9613    
       159   0             -759.57091     -34487.736     -87249.965     -87249.965      71036.723     -1.8390513e-12  1.2061072e-12 -2.4875962e-12  10.367907      15.551861      29.269222      4719.3767    
       160   0             -759.63921     -34668.366     -87291.471     -87291.471      70577.845     -5.8072957e-12 -4.8250294e-12 -7.4637174e-12  10.366858      15.550287      29.271505      4718.7894    
       161   0             -759.70732     -34847.866     -87333.037     -87333.037      70122.478      7.2075663e-12  1.6588113e-12  4.1470282e-12  10.365808      15.548713      29.273771      4718.1994    
       162   0             -759.77523     -35026.246     -87374.664     -87374.664      69670.59      -2.8381875e-13  3.4688593e-12 -1.2819697e-12  10.364759      15.547138      29.276022      4717.6067    
       163   0             -759.84294     -35203.517     -87416.35      -87416.35       69222.149      6.4542503e-12 -2.865941e-12   3.921814e-12   10.36371       15.545564      29.278256      4717.0114    
       164   0             -759.91047     -35379.69      -87458.096     -87458.096      68777.123      4.2604788e-12  1.9611556e-12 -1.4331522e-12  10.36266       15.54399       29.280475      4716.4136    
       165   0             -759.97781     -35554.774     -87499.901     -87499.901      68335.481     -7.8825949e-13 -3.6210559e-12  1.8859666e-12  10.361611      15.542416      29.282678      4715.8131    
       166   0             -760.04497     -35728.78      -87541.766     -87541.766      67897.19      -5.770858e-12   2.2634494e-12 -3.3197258e-12  10.360561      15.540842      29.284865      4715.2101    
       167   0             -760.11194     -35901.719     -87583.688     -87583.688      67462.221      3.914957e-12  -4.2256482e-12 -3.6974422e-12  10.359512      15.539268      29.287037      4714.6046    
       168   0             -760.17874     -36073.599     -87625.669     -87625.669      67030.543     -3.405095e-12   2.2640321e-12 -1.7357579e-12  10.358462      15.537694      29.289193      4713.9965    
       169   0             -760.24536     -36244.431     -87667.708     -87667.708      66602.125     -4.4535186e-12  6.038201e-13   3.7738756e-13  10.357413      15.536119      29.291335      4713.386     
       170   0             -760.31182     -36414.224     -87709.805     -87709.805      66176.938      1.5296786e-12 -2.1136452e-12  1.1323099e-12  10.356364      15.534545      29.293461      4712.773     
       171   0             -760.3781      -36582.989     -87751.959     -87751.959      65754.952      2.5588735e-12  3.7748594e-12  1.2834522e-12  10.355314      15.532971      29.295572      4712.1575    
       172   0             -760.44422     -36750.734     -87794.17      -87794.17       65336.138     -1.4725118e-12 -3.0202836e-13 -2.98253e-12    10.354265      15.531397      29.297669      4711.5397    
       173   0             -760.51017     -36917.469     -87836.437     -87836.437      64920.468     -1.9241202e-12  4.83309e-12    4.4932634e-12  10.353215      15.529823      29.299751      4710.9194    
       174   0             -760.57597     -37083.204     -87878.761     -87878.761      64507.911     -1.8928579e-12 -1.9637024e-12 -4.984783e-12   10.352166      15.528249      29.301818      4710.2967    
       175   0             -760.6416      -37247.946     -87921.142     -87921.142      64098.446      8.6849262e-14  1.6618148e-12 -5.5519723e-12  10.351116      15.526675      29.303871      4709.6717    
       176   0             -760.70708     -37411.702     -87963.577     -87963.577      63692.05       2.4724628e-12  2.2664131e-12  2.1153189e-12  10.350067      15.5251        29.305909      4709.0443    
       177   0             -760.77241     -37574.481     -88006.069     -88006.069      63288.696      3.5658125e-12 -4.5334323e-12  4.6089895e-12  10.349018      15.523526      29.307933      4708.4146    
       178   0             -760.83759     -37736.291     -88048.615     -88048.615      62888.356      1.9136514e-12 -1.3602123e-12 -1.397996e-12   10.347968      15.521952      29.309943      4707.7826    
       179   0             -760.90262     -37897.143     -88091.217     -88091.217      62491.004      5.290487e-12  -1.5115506e-13 -4.6102294e-12  10.346919      15.520378      29.311939      4707.1483    
       180   0             -760.96751     -38057.045     -88133.873     -88133.873      62096.612     -5.7230367e-12  2.4188081e-12  6.4249591e-13  10.345869      15.518804      29.313921      4706.5117    
       181   0             -761.03225     -38216.004     -88176.583     -88176.583      61705.155      4.4302733e-13 -6.0478412e-13 -1.3607643e-12  10.34482       15.51723       29.315889      4705.8729    
       182   0             -761.09685     -38374.03      -88219.348     -88219.348      61316.607      2.0228247e-12 -3.1755492e-12 -2.8731159e-12  10.34377       15.515656      29.317844      4705.2319    
       183   0             -761.16132     -38531.131     -88262.166     -88262.166      60930.94       6.8726378e-13 -2.5710342e-12 -1.4745637e-12  10.342721      15.514081      29.319785      4704.5886    
       184   0             -761.22565     -38687.315     -88305.038     -88305.038      60548.131     -1.8233053e-12 -6.0503222e-13 -1.5125806e-13  10.341672      15.512507      29.321712      4703.9432    
       185   0             -761.28985     -38842.591     -88347.963     -88347.963      60168.152      7.168601e-13  -7.5639441e-13 -7.1479272e-12  10.340622      15.510933      29.323626      4703.2956    
       186   0             -761.35392     -38996.967     -88390.94      -88390.94       59790.979     -2.0590322e-13 -4.236394e-12  -3.6690198e-12  10.339573      15.509359      29.325527      4702.6458    
       187   0             -761.41786     -39150.452     -88433.971     -88433.971      59416.586      3.7037714e-12  6.6581135e-12  9.0792456e-13  10.338523      15.507785      29.327415      4701.9939    
       188   0             -761.48167     -39303.053     -88477.054     -88477.054      59044.95       6.1529584e-12  4.5402543e-13 -2.0809499e-12  10.337474      15.506211      29.32929       4701.3399    
       189   0             -761.54536     -39454.777     -88520.189     -88520.189      58676.045     -1.5880635e-12 -6.0545174e-13  2.421807e-12   10.336424      15.504637      29.331151      4700.6838    
       190   0             -761.60892     -39605.634     -88563.375     -88563.375      58309.848      1.262526e-13   2.270762e-12  -2.6113763e-12  10.335375      15.503063      29.333         4700.0256    
       191   0             -761.67237     -39755.631     -88606.614     -88606.614      57946.334     -9.3077798e-13  6.0562161e-13 -2.914554e-12   10.334326      15.501488      29.334836      4699.3653    
       192   0             -761.73569     -39904.775     -88649.903     -88649.903      57585.481     -4.34536e-12    1.2114139e-12  4.5049456e-12  10.333276      15.499914      29.33666       4698.703     
       193   0             -761.79891     -40053.075     -88693.244     -88693.244      57227.264      5.759937e-12   9.0868893e-13  1.8931019e-12  10.332227      15.49834       29.338471      4698.0387    
       194   0             -761.862       -40200.537     -88736.636     -88736.636      56871.66      -2.5317544e-12  4.8470284e-12 -3.786741e-14   10.331177      15.496766      29.34027       4697.3724    
       195   0             -761.92499     -40347.169     -88780.078     -88780.078      56518.648     -9.054454e-12  -1.2119295e-12  4.5447358e-12  10.330128      15.495192      29.342056      4696.704     
       196   0             -761.98787     -40492.979     -88823.57      -88823.57       56168.203     -2.3145757e-12 -2.8787435e-12  1.7802756e-12  10.329078      15.493618      29.34383       4696.0337    
       197   0             -762.05064     -40637.974     -88867.113     -88867.113      55820.303      1.2735096e-12  3.1822247e-12  2.3866685e-12  10.328029      15.492044      29.345592      4695.3614    
       198   0             -762.1133      -40782.161     -88910.705     -88910.705      55474.928      5.74325e-12    0              3.1826817e-12  10.32698       15.490469      29.347341      4694.6872    
       199   0             -762.17585     -40925.547     -88954.347     -88954.347      55132.053      2.5809269e-12  1.2126248e-12 -5.3052337e-13  10.32593       15.488895      29.349079      4694.011     
       200   0             -762.23831     -41068.138     -88998.038     -88998.038      54791.662     -1.134928e-12   0              5.6850001e-12  10.324881      15.487321      29.350805      4693.333     
       201   0             -762.30066     -41209.939     -89041.778     -89041.778      54453.738      7.2590599e-12 -4.3970371e-12 -6.8229887e-12  10.323831      15.485747      29.352519      4692.653     
       202   0             -762.36292     -41350.959     -89085.567     -89085.567      54118.257     -2.8990066e-12 -3.4878121e-12  9.8568603e-13  10.322782      15.484173      29.354222      4691.9712    
       203   0             -762.42508     -41491.203     -89129.405     -89129.405      53785.2       -4.1681939e-12 -2.7299899e-12 -1.5166611e-13  10.321732      15.482599      29.355913      4691.2874    
       204   0             -762.48714     -41630.678     -89173.29      -89173.29       53454.546     -7.2216503e-13  1.2135062e-12  2.1236358e-12  10.320683      15.481025      29.357592      4690.6019    
       205   0             -762.54911     -41769.392     -89217.224     -89217.224      53126.272     -2.9182807e-12 -2.8824996e-12  6.4476965e-13  10.319634      15.47945       29.35926       4689.9145    
       206   0             -762.61098     -41907.351     -89261.206     -89261.206      52800.36      -3.9125974e-12  4.7037169e-12  1.0241964e-12  10.318584      15.477876      29.360917      4689.2253    
       207   0             -762.67277     -42044.561     -89305.236     -89305.236      52476.789     -4.0340233e-12  2.1245723e-12 -1.2519801e-12  10.317535      15.476302      29.362562      4688.5342    
       208   0             -762.73447     -42181.029     -89349.313     -89349.313      52155.538     -5.0723081e-13 -2.8837743e-12  1.8972199e-12  10.316485      15.474728      29.364197      4687.8414    
       209   0             -762.79608     -42316.762     -89393.437     -89393.437      51836.588     -3.1376154e-12  4.5540026e-13 -4.2124524e-12  10.315436      15.473154      29.36582       4687.1468    
       210   0             -762.8576      -42451.766     -89437.608     -89437.608      51519.919     -9.9092251e-13 -2.4291623e-12 -2.01165e-12    10.314386      15.47158       29.367432      4686.4505    
       211   0             -762.91904     -42586.047     -89481.826     -89481.826      51205.511     -3.9524014e-12  3.1887505e-12 -2.771176e-12   10.313337      15.470006      29.369033      4685.7524    
       212   0             -762.9804      -42719.612     -89526.091     -89526.091      50893.346      3.6671277e-12 -4.5560383e-12 -2.0881842e-12  10.312288      15.468431      29.370624      4685.0526    
       213   0             -763.04167     -42852.466     -89570.401     -89570.401      50583.404      2.4365964e-12  1.5189069e-12 -3.6833492e-12  10.311238      15.466857      29.372204      4684.351     
       214   0             -763.10287     -42984.617     -89614.758     -89614.758      50275.666     -3.7636466e-12  1.5191349e-12  2.848378e-12   10.310189      15.465283      29.373773      4683.6478    
       215   0             -763.16399     -43116.069     -89659.161     -89659.161      49970.114     -1.8825511e-12 -3.4945363e-12 -1.8612204e-12  10.309139      15.463709      29.375332      4682.9429    
       216   0             -763.22503     -43246.829     -89703.609     -89703.609      49666.73      -3.1633969e-12  1.9754708e-12  1.1017049e-12  10.30809       15.462135      29.37688       4682.2362    
       217   0             -763.28599     -43376.903     -89748.103     -89748.103      49365.496     -1.9375316e-12 -2.735681e-12   7.599114e-14   10.307041      15.460561      29.378417      4681.528     
       218   0             -763.34688     -43506.297     -89792.642     -89792.642      49066.393      1.8188071e-12  7.6002665e-13  2.2040773e-12  10.305991      15.458987      29.379945      4680.8181    
       219   0             -763.4077      -43635.016     -89837.226     -89837.226      48769.405      2.1791802e-12  1.8243413e-12  1.5202844e-12  10.304942      15.457412      29.381462      4680.1065    
       220   0             -763.46845     -43763.066     -89881.855     -89881.855      48474.512     -1.1067938e-12  8.210787e-12  -2.2047484e-12  10.303892      15.455838      29.382969      4679.3934    
       221   0             -763.52912     -43890.453     -89926.528     -89926.528      48181.697     -1.6243797e-12  7.603742e-13  -3.0414968e-12  10.302843      15.454264      29.384466      4678.6786    
       222   0             -763.58973     -44017.183     -89971.246     -89971.246      47890.943      8.0431117e-13 -5.6276307e-12  6.0839251e-13  10.301793      15.45269       29.385953      4677.9622    
       223   0             -763.65027     -44143.261     -90016.008     -90016.008      47602.234      1.7879741e-12  3.8030369e-13 -3.0043991e-12  10.300744      15.451116      29.38743       4677.2443    
       224   0             -763.71075     -44268.693     -90060.814     -90060.814      47315.551      1.5532035e-12 -3.5754047e-12 -1.6355575e-12  10.299695      15.449542      29.388897      4676.5247    
       225   0             -763.77116     -44393.484     -90105.664     -90105.664      47030.877     -5.5495735e-12  4.5650503e-12  1.2173467e-12  10.298645      15.447968      29.390354      4675.8037    
       226   0             -763.8315      -44517.639     -90150.558     -90150.558      46748.197      2.4082241e-12  2.9677413e-12  1.8263024e-12  10.297596      15.446394      29.391802      4675.0811    
       227   0             -763.89178     -44641.165     -90195.495     -90195.495      46467.494      2.7922604e-12 -4.33814e-12    1.902693e-13   10.296546      15.444819      29.39324       4674.3569    
       228   0             -763.95201     -44764.066     -90240.475     -90240.475      46188.751      2.153607e-13  -2.2835861e-12  2.2835861e-13  10.295497      15.443245      29.394669      4673.6313    
       229   0             -764.01217     -44886.349     -90285.498     -90285.498      45911.951     -1.0176515e-12 -1.8271532e-12 -3.083321e-12   10.294447      15.441671      29.396088      4672.9041    
       230   0             -764.07227     -45008.015     -90330.564     -90330.564      45637.083     -2.2684054e-12  2.0558679e-12  9.8986232e-13  10.293398      15.440097      29.397497      4672.1755    
       231   0             -764.13231     -45129.072     -90375.673     -90375.673      45364.131     -6.9967735e-12  4.5693094e-13 -3.8077578e-12  10.292349      15.438523      29.398897      4671.4453    
       232   0             -764.1923      -45249.522     -90420.824     -90420.824      45093.081      4.1686921e-12  4.7985263e-12 -2.1707619e-12  10.291299      15.436949      29.400288      4670.7137    
       233   0             -764.25223     -45369.373     -90466.017     -90466.017      44823.916     -1.5745828e-12  0              2.5900874e-12  10.29025       15.435375      29.40167       4669.9807    
       234   0             -764.31211     -45488.628     -90511.253     -90511.253      44556.62      -1.1285323e-12 -2.6666858e-12  1.2190564e-12  10.2892        15.4338        29.403043      4669.2462    
       235   0             -764.37194     -45607.294     -90556.53      -90556.53       44291.18       3.2880728e-12  6.0962428e-13  3.0862229e-12  10.288151      15.432226      29.404406      4668.5103    
       236   0             -764.43171     -45725.373     -90601.849     -90601.849      44027.578     -3.8534635e-12 -4.4966892e-12 -6.4782811e-13  10.287101      15.430652      29.405761      4667.7729    
       237   0             -764.49143     -45842.873     -90647.21      -90647.21       43765.801     -4.3298312e-13  4.1924925e-12  3.0490855e-13  10.286052      15.429078      29.407106      4667.0341    
       238   0             -764.5511      -45959.797     -90692.612     -90692.612      43505.833     -1.3151024e-12 -1.0673492e-12 -1.9059807e-12  10.285003      15.427504      29.408443      4666.294     
       239   0             -764.61072     -46076.15      -90738.055     -90738.055      43247.659      3.703709e-12   3.4313105e-12 -6.2144846e-12  10.283953      15.42593       29.409771      4665.5524    
       240   0             -764.67029     -46191.938     -90783.539     -90783.539      42991.265     -1.4131239e-12  3.0505395e-13 -2.0209824e-12  10.282904      15.424356      29.41109       4664.8095    
       241   0             -764.72981     -46307.164     -90829.064     -90829.064      42736.637     -8.5079951e-14 -1.2966862e-12  2.6315102e-12  10.281854      15.422781      29.4124        4664.0653    
       242   0             -764.78929     -46421.833     -90874.63      -90874.63       42483.76      -3.6970695e-12  8.391664e-13  -1.6783328e-12  10.280805      15.421207      29.413702      4663.3196    
       243   0             -764.84873     -46535.951     -90920.236     -90920.236      42232.619     -5.2914431e-12 -1.6786017e-12 -1.6023016e-12  10.279755      15.419633      29.414996      4662.5727    
       244   0             -764.90812     -46649.521     -90965.882     -90965.882      41983.202     -6.2306732e-12 -6.1049859e-13  1.411778e-12   10.278706      15.418059      29.41628       4661.8244    
       245   0             -764.96746     -46762.548     -91011.568     -91011.568      41735.493      7.03756e-12    2.2897379e-13 -3.7780675e-12  10.277657      15.416485      29.417557      4661.0747    
       246   0             -765.02676     -46875.037     -91057.295     -91057.295      41489.479     -3.221414e-12  -4.5038768e-12 -1.793917e-12   10.276607      15.414911      29.418825      4660.3238    
       247   0             -765.08602     -46986.992     -91103.061     -91103.061      41245.147      3.7553915e-12 -1.4506351e-12  2.5958734e-12  10.275558      15.413337      29.420085      4659.5716    
       248   0             -765.14524     -47098.417     -91148.867     -91148.867      41002.483     -4.6509624e-12 -2.3672086e-12  3.169005e-12   10.274508      15.411762      29.421336      4658.8181    
       249   0             -765.20442     -47209.317     -91194.712     -91194.712      40761.474     -1.0732192e-12  1.8329746e-12 -6.1099153e-13  10.273459      15.410188      29.42258       4658.0633    
       250   0             -765.26356     -47319.696     -91240.597     -91240.597      40522.105      8.7904647e-13 -1.9096585e-12 -4.8887257e-12  10.272409      15.408614      29.423815      4657.3072    
       251   0             -765.32267     -47429.558     -91286.52      -91286.52       40284.365      2.5881617e-12  5.5771096e-12  1.6425734e-12  10.27136       15.40704       29.425042      4656.5499    
       252   0             -765.38173     -47538.909     -91332.483     -91332.483      40048.241     -2.497014e-12   0             -6.8770089e-13  10.270311      15.405466      29.426262      4655.7913    
       253   0             -765.44076     -47647.75      -91378.485     -91378.485      39813.718     -1.9148031e-13 -2.3691341e-12 -1.2609907e-12  10.269261      15.403892      29.427473      4655.0315    
       254   0             -765.49975     -47756.088     -91424.525     -91424.525      39580.785     -2.2290608e-12  2.2930853e-12  2.2548672e-12  10.268212      15.402318      29.428676      4654.2705    
       255   0             -765.55871     -47863.926     -91470.603     -91470.603      39349.429     -7.5499303e-12 -9.9383307e-13  6.1923445e-12  10.267162      15.400743      29.429872      4653.5083    
       256   0             -765.61764     -47971.268     -91516.72      -91516.72       39119.638     -2.873346e-12   4.5876745e-13  6.8815118e-13  10.266113      15.399169      29.43106       4652.7448    
       257   0             -765.67653     -48078.118     -91562.875     -91562.875      38891.398     -2.3309317e-12  1.3000548e-12 -2.8677679e-13  10.265063      15.397595      29.43224       4651.9802    
       258   0             -765.73538     -48184.48      -91609.069     -91609.069      38664.698      4.7300924e-12  3.1359425e-12  5.8512097e-12  10.264014      15.396021      29.433413      4651.2144    
       259   0             -765.79421     -48290.358     -91655.3       -91655.3        38439.526     -2.2857008e-12  1.1474852e-12  1.4534813e-12  10.262965      15.394447      29.434578      4650.4474    
       260   0             -765.853       -48395.756     -91701.568     -91701.568      38215.87      -3.3809411e-12 -1.2241865e-12  1.1285469e-12  10.261915      15.392873      29.435735      4649.6792    
       261   0             -765.91177     -48500.678     -91747.875     -91747.875      37993.717      1.5068028e-12  1.3774377e-12  1.4922242e-12  10.260866      15.391299      29.436885      4648.9098    
       262   0             -765.9705      -48605.127     -91794.218     -91794.218      37773.056     -5.4451064e-12 -2.29611e-13    1.4350688e-12  10.259816      15.389725      29.438028      4648.1394    
       263   0             -766.02921     -48709.108     -91840.599     -91840.599      37553.875      1.125278e-11   2.9088889e-12  1.5884065e-12  10.258767      15.38815       29.439163      4647.3677    
       264   0             -766.08789     -48812.624     -91887.017     -91887.017      37336.163     -1.5515674e-12  1.3015615e-12 -3.3687473e-12  10.257717      15.386576      29.440291      4646.595     
       265   0             -766.14654     -48915.679     -91933.472     -91933.472      37119.909      1.0616051e-12  5.3602635e-12 -2.4886938e-13  10.256668      15.385002      29.441411      4645.8211    
       266   0             -766.20516     -49018.276     -91979.964     -91979.964      36905.1        6.5373097e-13 -1.3785834e-12  3.3890176e-12  10.255619      15.383428      29.442525      4645.0461    
       267   0             -766.26376     -49120.42      -92026.493     -92026.493      36691.727     -2.8617468e-12 -5.3620537e-13 -9.1920921e-13  10.254569      15.381854      29.443631      4644.27      
       268   0             -766.32233     -49222.112     -92073.058     -92073.058      36479.78      -1.8947242e-12  2.5282484e-12  3.2943843e-12  10.25352       15.38028       29.44473       4643.4928    
       269   0             -766.38088     -49323.357     -92119.659     -92119.659      36269.249     -5.0212852e-13 -4.5975859e-13 -4.0803574e-12  10.25247       15.378706      29.445822      4642.7146    
       270   0             -766.4394      -49424.157     -92166.297     -92166.297      36060.122      4.4701111e-12  1.5327859e-12  2.2991789e-13  10.251421      15.377131      29.446907      4641.9352    
       271   0             -766.4979      -49524.518     -92212.971     -92212.971      35852.388     -7.4097495e-12 -1.9163046e-12  4.1583809e-12  10.250372      15.375557      29.447985      4641.1548    
       272   0             -766.55638     -49624.441     -92259.681     -92259.681      35646.037     -2.5603732e-12 -1.1499764e-12 -4.2932451e-12  10.249322      15.373983      29.449056      4640.3733    
       273   0             -766.61483     -49723.932     -92306.426     -92306.426      35441.058      2.2009517e-12 -1.9936286e-12 -8.8179726e-13  10.248273      15.372409      29.450121      4639.5908    
       274   0             -766.67326     -49822.992     -92353.207     -92353.207      35237.439      1.3728982e-12 -3.4510939e-12  3.8537215e-12  10.247223      15.370835      29.451178      4638.8072    
       275   0             -766.73167     -49921.626     -92400.024     -92400.024      35035.172     -8.2330685e-12  1.0738553e-12  1.8025428e-12  10.246174      15.369261      29.452229      4638.0226    
       276   0             -766.79006     -50019.836     -92446.876     -92446.876      34834.244     -3.7209959e-12 -2.1480744e-12 -1.7261312e-13  10.245124      15.367687      29.453273      4637.237     
       277   0             -766.84843     -50117.627     -92493.764     -92493.764      34634.646      4.9178782e-12  3.836498e-13  -4.9874474e-13  10.244075      15.366112      29.45431       4636.4503    
       278   0             -766.90679     -50215.002     -92540.687     -92540.687      34436.368     -5.522573e-13  -1.4581169e-12 -2.0336894e-12  10.243026      15.364538      29.455341      4635.6627    
       279   0             -766.96512     -50311.963     -92587.644     -92587.644      34239.4       -8.2721154e-12  6.908045e-13   1.8421453e-12  10.241976      15.362964      29.456365      4634.874     
       280   0             -767.02343     -50408.514     -92634.637     -92634.637      34043.73       9.4224244e-13  6.9092221e-13 -4.0687641e-12  10.240927      15.36139       29.457383      4634.0844    
       281   0             -767.08173     -50504.659     -92681.664     -92681.664      33849.35      -4.8990103e-13 -1.1517335e-12  2.0923159e-12  10.239877      15.359816      29.458394      4633.2937    
       282   0             -767.14001     -50600.401     -92728.726     -92728.726      33656.25      -1.6516101e-12  2.0734746e-12  0              10.238828      15.358242      29.459399      4632.5021    
       283   0             -767.19827     -50695.742     -92775.822     -92775.822      33464.42      -4.3753272e-12  6.1446798e-13 -2.3618613e-12  10.237778      15.356668      29.460398      4631.7095    
       284   0             -767.25652     -50790.686     -92822.953     -92822.953      33273.849      1.5361341e-11 -6.9139493e-13  1.9205415e-13  10.236729      15.355093      29.46139       4630.916     
       285   0             -767.31475     -50885.236     -92870.118     -92870.118      33084.529     -7.366089e-13  -1.6903665e-12  4.2643337e-12  10.23568       15.353519      29.462376      4630.1215    
       286   0             -767.37297     -50979.395     -92917.317     -92917.317      32896.451      2.7659163e-12  1.5369609e-13 -5.9557234e-12  10.23463       15.351945      29.463355      4629.326     
       287   0             -767.43117     -51073.166     -92964.55      -92964.55       32709.603      9.5056406e-12  2.613283e-12   3.458757e-12   10.233581      15.350371      29.464329      4628.5296    
       288   0             -767.48936     -51166.552     -93011.817     -93011.817      32523.978     -8.2361122e-12 -2.9981058e-12 -3.9782558e-12  10.232531      15.348797      29.465296      4627.7323    
       289   0             -767.54754     -51259.556     -93059.118     -93059.118      32339.566      8.3629658e-12  1.691531e-12   4.1903835e-12  10.231482      15.347223      29.466257      4626.9341    
       290   0             -767.6057      -51352.182     -93106.452     -93106.452      32156.358      9.2297379e-13 -6.1520843e-13 -1.4034442e-12  10.230432      15.345649      29.467212      4626.1349    
       291   0             -767.66385     -51444.432     -93153.819     -93153.819      31974.344      2.428043e-12  -3.5380604e-12 -2.9996599e-12  10.229383      15.344074      29.468161      4625.3348    
       292   0             -767.72199     -51536.308     -93201.22      -93201.22       31793.516      5.1247754e-12 -2.2309026e-12 -7.6927677e-14  10.228334      15.3425        29.469105      4624.5339    
       293   0             -767.78012     -51627.815     -93248.655     -93248.655      31613.865      7.1078599e-13  1.5388204e-13  1.7119377e-12  10.227284      15.340926      29.470042      4623.732     
       294   0             -767.83823     -51718.954     -93296.122     -93296.122      31435.381      1.7804176e-12  3.6938102e-12 -2.0970068e-12  10.226235      15.339352      29.470973      4622.9292    
       295   0             -767.89634     -51809.729     -93343.622     -93343.622      31258.057     -5.2471908e-12 -3.8483879e-12 -5.5801625e-13  10.225185      15.337778      29.471898      4622.1256    
       296   0             -767.95443     -51900.143     -93391.156     -93391.156      31081.884      1.6121866e-12  5.0807564e-12  2.9060387e-12  10.224136      15.336204      29.472818      4621.3211    
       297   0             -768.01252     -51990.197     -93438.722     -93438.722      30906.852      4.3835393e-13 -1.6938807e-12 -3.40701e-12    10.223086      15.33463       29.473732      4620.5157    
       298   0             -768.07059     -52079.896     -93486.32      -93486.32       30732.953     -1.7180907e-12 -3.6578806e-12  2.5605164e-12  10.222037      15.333056      29.47464       4619.7095    
       299   0             -768.12866     -52169.241     -93533.951     -93533.951      30560.179     -1.2166613e-12  2.2721333e-12 -4.0243718e-12  10.220988      15.331481      29.475542      4618.9024    
       300   0             -768.18672     -52258.236     -93581.615     -93581.615      30388.522      2.8338705e-12 -4.2369219e-13  1.1555242e-12  10.219938      15.329907      29.476439      4618.0945    
       301   0             -768.24477     -52346.883     -93629.311     -93629.311      30217.973     -1.5899625e-12  2.6966953e-12  5.2007695e-13  10.218889      15.328333      29.47733       4617.2857    
       302   0             -768.30281     -52435.185     -93677.039     -93677.039      30048.523     -1.3964557e-12  1.0018053e-12 -3.9494249e-12  10.217839      15.326759      29.478216      4616.4761    
       303   0             -768.36085     -52523.144     -93724.799     -93724.799      29880.166      1.0920906e-12  2.967406e-12   2.9095994e-12  10.21679       15.325185      29.479096      4615.6656    
       304   0             -768.41888     -52610.763     -93772.591     -93772.591      29712.892      3.1590843e-13 -2.621027e-12   3.2377393e-12  10.21574       15.323611      29.47997       4614.8544    
       305   0             -768.4769      -52698.045     -93820.415     -93820.415      29546.694     -4.2513802e-12 -4.4333993e-12  1.5035006e-12  10.214691      15.322037      29.480839      4614.0423    
       306   0             -768.53492     -52784.992     -93868.27      -93868.27       29381.563     -1.6550653e-12  2.1592531e-12  2.0050208e-12  10.213642      15.320462      29.481703      4613.2295    
       307   0             -768.59293     -52871.608     -93916.157     -93916.157      29217.492      6.1537022e-12 -3.278016e-12  -4.3385505e-12  10.212592      15.318888      29.482561      4612.4158    
       308   0             -768.65094     -52957.893     -93964.076     -93964.076      29054.473      8.1322791e-12 -2.5843042e-12 -6.7500483e-13  10.211543      15.317314      29.483414      4611.6013    
       309   0             -768.70894     -53043.851     -94012.026     -94012.026      28892.498      8.1139158e-15  1.3502484e-12  1.9675048e-12  10.210493      15.31574       29.484262      4610.7861    
       310   0             -768.76694     -53129.485     -94060.008     -94060.008      28731.56       2.7653641e-12 -3.0482429e-12 -5.4212422e-12  10.209444      15.314166      29.485104      4609.9701    
       311   0             -768.82493     -53214.796     -94108.02      -94108.02       28571.651     -2.3220564e-12 -1.620872e-12  -2.1418666e-12  10.208394      15.312592      29.485942      4609.1532    
       312   0             -768.88292     -53299.788     -94156.064     -94156.064      28412.763     -1.3637149e-12  6.5618365e-13  3.6862081e-12  10.207345      15.311018      29.486774      4608.3357    
       313   0             -768.94091     -53384.462     -94204.138     -94204.138      28254.889      2.6993149e-13  5.0187662e-13 -2.3935654e-12  10.206296      15.309443      29.4876        4607.5173    
       314   0             -768.99889     -53468.822     -94252.244     -94252.244      28098.021     -5.4777832e-13 -6.5641688e-13 -1.2935274e-12  10.205246      15.307869      29.488422      4606.6983    
       315   0             -769.05687     -53552.869     -94300.38      -94300.38       27942.152     -7.6688242e-13  1.5834049e-12  2.510276e-12   10.204197      15.306295      29.489239      4605.8784    
       316   0             -769.11485     -53636.606     -94348.547     -94348.547      27787.275      1.5917138e-12  3.4763861e-13  3.997844e-12   10.203147      15.304721      29.49005       4605.0578    
       317   0             -769.17282     -53720.035     -94396.744     -94396.744      27633.384     -2.0663118e-12 -4.0178739e-12 -1.1783188e-12  10.202098      15.303147      29.490857      4604.2365    
       318   0             -769.2308      -53803.157     -94444.972     -94444.972      27480.472     -7.7964577e-12  4.9845989e-12 -6.5688513e-13  10.201048      15.301573      29.491658      4603.4145    
       319   0             -769.28877     -53885.976     -94493.23      -94493.23       27328.532      4.2924988e-12 -7.3429698e-13 -3.0144823e-12  10.199999      15.299999      29.492455      4602.5917    
       320   0             -769.34675     -53968.494     -94541.518     -94541.518      27177.556     -1.2960166e-12  1.236932e-12   3.1696383e-12  10.19895       15.298424      29.493247      4601.7682    
       321   0             -769.40472     -54050.712     -94589.837     -94589.837      27027.538      2.6212181e-12 -1.6624251e-12 -1.6817557e-12  10.1979        15.29685       29.494034      4600.944     
       322   0             -769.46269     -54132.634     -94638.185     -94638.185      26878.47       6.2745826e-12  3.0547706e-12 -2.5134189e-12  10.196851      15.295276      29.494816      4600.1191    
       323   0             -769.52066     -54214.26      -94686.564     -94686.564      26730.346     -2.1925756e-12 -5.8012386e-13 -1.2375976e-12  10.195801      15.293702      29.495593      4599.2934    
       324   0             -769.57864     -54295.595     -94734.972     -94734.972      26583.16       1.6872467e-12 -1.7793662e-12  2.6497083e-12  10.194752      15.292128      29.496365      4598.4671    
       325   0             -769.63661     -54376.639     -94783.41      -94783.41       26436.903     -2.2824499e-12  3.0951065e-13  2.137558e-12   10.193703      15.290554      29.497133      4597.6401    
       326   0             -769.69458     -54457.395     -94831.878     -94831.878      26291.57      -2.8392498e-12 -4.4500168e-12  4.4500168e-13  10.192653      15.28898       29.497896      4596.8124    
       327   0             -769.75256     -54537.866     -94880.375     -94880.375      26147.153      1.0388916e-12  2.0125442e-12 -3.405844e-12   10.191604      15.287405      29.498654      4595.984     
       328   0             -769.81053     -54618.052     -94928.902     -94928.902      26003.647     -6.3012348e-13 -2.3612951e-12  3.000006e-13   10.190554      15.285831      29.499408      4595.155     
       329   0             -769.86851     -54697.957     -94977.458     -94977.458      25861.044      1.7081539e-12 -4.4137091e-12 -8.2273085e-13  10.189505      15.284257      29.500157      4594.3252    
       330   0             -769.92649     -54777.582     -95026.043     -95026.043      25719.338     -6.8515634e-12 -3.8723745e-13  1.3359692e-12  10.188455      15.282683      29.500901      4593.4949    
       331   0             -769.98448     -54856.93      -95074.657     -95074.657      25578.524     -2.0534545e-12 -3.0209987e-12  8.8112461e-13  10.187406      15.281109      29.501641      4592.6638    
       332   0             -770.04246     -54936.003     -95123.301     -95123.301      25438.593      7.09549e-12    1.4720352e-12 -1.9368884e-12  10.186357      15.279535      29.502376      4591.8321    
       333   0             -770.10045     -55014.802     -95171.973     -95171.973      25299.541      1.8302925e-12  1.9372395e-13 -4.7171783e-12  10.185307      15.277961      29.503107      4590.9998    
       334   0             -770.15844     -55093.33      -95220.675     -95220.675      25161.36       2.8864014e-12  5.1927441e-12  3.4586001e-12  10.184258      15.276387      29.503833      4590.1668    
       335   0             -770.21644     -55171.588     -95269.405     -95269.405      25024.045     -7.8290076e-13 -2.5580848e-12 -1.8410459e-13  10.183208      15.274812      29.504555      4589.3331    
       336   0             -770.27444     -55249.579     -95318.163     -95318.163      24887.59      -1.3620033e-12 -1.8607636e-12 -2.0449016e-12  10.182159      15.273238      29.505273      4588.4989    
       337   0             -770.33244     -55327.305     -95366.951     -95366.951      24751.988      7.7777899e-15  5.8159444e-13  7.7545925e-14  10.181109      15.271664      29.505986      4587.664     
       338   0             -770.39045     -55404.767     -95415.767     -95415.767      24617.233      1.2539764e-12 -1.6287611e-12 -1.4057759e-12  10.18006       15.27009       29.506695      4586.8285    
       339   0             -770.44846     -55481.967     -95464.611     -95464.611      24483.32       2.9751502e-12  2.831458e-12   7.9222643e-12  10.179011      15.268516      29.507399      4585.9923    
       340   0             -770.50648     -55558.908     -95513.483     -95513.483      24350.242     -1.1271824e-12 -1.9397087e-12 -4.2188664e-12  10.177961      15.266942      29.5081        4585.1556    
       341   0             -770.5645      -55635.592     -95562.384     -95562.384      24217.993     -3.5193998e-12  2.2116718e-12 -2.2698737e-12  10.176912      15.265368      29.508796      4584.3182    
       342   0             -770.62253     -55712.02      -95611.313     -95611.313      24086.567     -5.7322448e-12  6.2093366e-13  6.694441e-12   10.175862      15.263793      29.509488      4583.4803    
       343   0             -770.68056     -55788.193     -95660.27      -95660.27       23955.96      -3.4306091e-12 -1.3973564e-12  4.560816e-13   10.174813      15.262219      29.510175      4582.6417    
       344   0             -770.7386      -55864.115     -95709.255     -95709.255      23826.164      7.9338203e-13  3.5716759e-12  3.8725508e-12  10.173763      15.260645      29.510859      4581.8026    
       345   0             -770.79664     -55939.787     -95758.268     -95758.268      23697.175      3.8537883e-12  3.8829681e-14 -8.7366781e-14  10.172714      15.259071      29.511538      4580.9628    
       346   0             -770.85469     -56015.21      -95807.308     -95807.308      23568.985     -9.2032323e-13 -1.592309e-12   9.4179251e-13  10.171665      15.257497      29.512213      4580.1225    
       347   0             -770.91275     -56090.387     -95856.377     -95856.377      23441.591     -2.1318759e-12 -3.4959543e-13  3.3600005e-12  10.170615      15.255923      29.512884      4579.2816    
       348   0             -770.97081     -56165.32      -95905.473     -95905.473      23314.986      3.1390799e-12 -7.3817043e-13  1.7094473e-12  10.169566      15.254349      29.513551      4578.4402    
       349   0             -771.02888     -56240.009     -95954.596     -95954.596      23189.165      3.8781886e-12 -7.7716444e-14 -4.6629866e-13  10.168516      15.252774      29.514214      4577.5981    
       350   0             -771.08696     -56314.457     -96003.747     -96003.747      23064.122      9.1544122e-14 -1.2048267e-12 -1.1076632e-12  10.167467      15.2512        29.514873      4576.7555    
       351   0             -771.14504     -56388.666     -96052.925     -96052.925      22939.852      5.0184305e-12  4.2759791e-13  7.7745075e-14  10.166417      15.249626      29.515528      4575.9123    
       352   0             -771.20314     -56462.637     -96102.13      -96102.13       22816.349      2.0029035e-12 -7.7759412e-14  5.0543618e-13  10.165368      15.248052      29.516179      4575.0686    
[...]
      1962   0             -984.00646     -141255.85     -121719.06     -128888.98     -173159.5      -894.17727     -4367.804       7780.5061      9.48534        14.22801       29.634785      3999.4369    
      1963   0             -984.03983     -140869.27     -121903.07     -128027.79     -172676.94     -2074.2371     -4814.9522      8930.907       9.48534        14.22801       29.634785      3999.4369    
      1964   0             -984.07034     -141953.16     -123978.66     -129458.14     -172422.68     -3222.2361     -4130.3768      8278.0639      9.48534        14.22801       29.634785      3999.4369    
      1965   0             -984.1128      -142576.98     -125025.32     -129437.98     -173267.64     -2209.6696     -3807.5112      6899.3776      9.48534        14.22801       29.634785      3999.4369    
      1966   0             -984.14965     -140550.43     -121503.18     -127670.12     -172478.01     -1872.9667     -4394.2849      7782.5484      9.48534        14.22801       29.634785      3999.4369    
      1967   0             -984.16879     -140515.54     -120456.09     -128501.54     -172588.98     -2031.0579     -3557.7498      8294.7863      9.48534        14.22801       29.634785      3999.4369    
      1968   0             -984.19626     -141689.13     -121430.74     -128846.7      -174789.93     -1516.514      -2727.7348      7642.6388      9.48534        14.22801       29.634785      3999.4369    
      1969   0             -984.23277     -141998.45     -124367.75     -128475.55     -173152.05     -1263.7421     -3267.3726      7835.4691      9.48534        14.22801       29.634785      3999.4369    
      1970   0             -984.26738     -140783.06     -124092.85     -127442.18     -170814.14     -830.28766     -4185.1852      8185.6801      9.48534        14.22801       29.634785      3999.4369    
      1971   0             -984.31359     -140842.22     -123076.75     -127990.1      -171459.81     -1005.1893     -3670.7499      7706.3003      9.48534        14.22801       29.634785      3999.4369    
      1972   0             -984.34113     -140914.23     -122042.18     -128179.49     -172521.02     -1998.7586     -2439.008       8165.3786      9.48534        14.22801       29.634785      3999.4369    
      1973   0             -984.36682     -141335.35     -121808.04     -126913.03     -175284.98     -963.18701     -625.86973      7705.1974      9.48534        14.22801       29.634785      3999.4369    
      1974   0             -984.42082     -140808.99     -122132.26     -126501.8      -173792.9      -641.50693     -39.521285      7514.2863      9.48534        14.22801       29.634785      3999.4369    
      1975   0             -984.46582     -140487.35     -123105.38     -127959.8      -170396.88     -2267.3794     -1971.6169      8092.4751      9.48534        14.22801       29.634785      3999.4369    
      1976   0             -984.49584     -141664.01     -124139.58     -130425.04     -170427.41     -2015.9622     -2703.1721      7280.8606      9.48534        14.22801       29.634785      3999.4369    
      1977   0             -984.68437     -151335.16     -123683.52     -160107.13     -170214.84     -3207.0449     -2210.9239      4149.8516      9.48534        14.22801       29.634785      3999.4369    
      1978   0             -984.99705     -149647.13     -123040.43     -156146.49     -169754.46     -3197.7591     -1709.3599      4237.6738      9.48534        14.22801       29.634785      3999.4369    
      1979   0             -985.2031      -144233.83     -122138.48     -140576.11     -169986.89     -2849.44       -1953.4748      5633.1037      9.48534        14.22801       29.634785      3999.4369    
      1980   0             -985.28602     -141801.55     -121532.13     -132819.54     -171052.97     -2642.4814     -2010.6968      6552.522       9.48534        14.22801       29.634785      3999.4369    
      1981   0             -985.36617     -142863.65     -122185.9      -131987.11     -174417.94     -2255.3357     -821.73108      7862.8639      9.48534        14.22801       29.634785      3999.4369    
      1982   0             -985.42767     -142456.87     -122477.12     -130245.77     -174647.71     -2790.2098      219.46196      7893.9779      9.48534        14.22801       29.634785      3999.4369    
      1983   0             -985.48086     -142519.65     -122146.88     -128438.41     -176973.67     -1617.8877      651.75925      7296.5752      9.48534        14.22801       29.634785      3999.4369    
      1984   0             -985.53626     -142126.99     -121851.38     -128282.47     -176247.13     -2233.8511      456.23284      8055.0765      9.48534        14.22801       29.634785      3999.4369    
      1985   0             -985.56941     -142893.65     -124180.17     -130927.14     -173573.65     -2975.6712     -153.71829      7720.921       9.48534        14.22801       29.634785      3999.4369    
      1986   0             -985.61853     -142836.27     -124520.06     -130391.19     -173597.56     -2510.7239     -877.28879      7550.0634      9.48534        14.22801       29.634785      3999.4369    
      1987   0             -985.6517      -142073.54     -122786.79     -128638.46     -174795.37     -1361.2595      109.11201      8426.5241      9.48534        14.22801       29.634785      3999.4369    
      1988   0             -985.68382     -142096.81     -121816.6      -129884.68     -174589.16     -1732.4897      1000.7781      7998.0598      9.48534        14.22801       29.634785      3999.4369    
      1989   0             -985.72889     -142878.47     -123987.02     -131498.99     -173149.4      -1962.5767      51.729192      7456.411       9.48534        14.22801       29.634785      3999.4369    
      1990   0             -985.77869     -142755.82     -124514.08     -128635.99     -175117.39     -535.14748     -254.01292      7732.2522      9.48534        14.22801       29.634785      3999.4369    
      1991   0             -985.82913     -142754.61     -124257.76     -128420.96     -175585.12     -1024.174       89.196142      8694.0471      9.48534        14.22801       29.634785      3999.4369    
      1992   0             -985.85412     -142766.05     -124997.54     -130700.52     -172600.09     -1465.9383     -5.8734559      8081.831       9.48534        14.22801       29.634785      3999.4369    
      1993   0             -985.87352     -141794.08     -123936.94     -129804.22     -171641.08     -1033.7811      325.66377      7683.5619      9.48534        14.22801       29.634785      3999.4369    
      1994   0             -985.91617     -141436.45     -123110.99     -128337.57     -172860.79     -607.33307      1080.1719      8323.9242      9.48534        14.22801       29.634785      3999.4369    
      1995   0             -985.93821     -143039.63     -125340.14     -130459.21     -173319.55     -769.90396      820.78565      8050.7304      9.48534        14.22801       29.634785      3999.4369    
      1996   0             -985.95229     -143355.15     -126233.22     -129483.21     -174349.03     -830.02618     -96.13951       7747.1524      9.48534        14.22801       29.634785      3999.4369    
      1997   0             -985.9835      -141529.88     -124416.95     -127036.06     -173136.64     -938.38534     -751.07147      8893.5194      9.48534        14.22801       29.634785      3999.4369    
      1998   0             -986.02268     -141889.57     -124328.35     -128663.18     -172677.17     -968.49797      187.42573      8473.9337      9.48534        14.22801       29.634785      3999.4369    
      1999   0             -986.0389      -143433.86     -126111.33     -130375.36     -173814.9      -391.73733      666.3419       7518.3786      9.48534        14.22801       29.634785      3999.4369    
      2000   0             -986.05186     -143356.63     -126225.99     -130252.29     -173591.61     -874.03795      572.38308      8124.3345      9.48534        14.22801       29.634785      3999.4369    
Loop time of 0.114584 on 4 procs for 1000 steps with 144 atoms

58.0% CPU use with 4 MPI tasks x 1 OpenMP threads

Minimization stats:
  Stopping criterion = max iterations
  Energy initial, next-to-last, final = 
     -813.229181900234  -986.038897424028  -986.051855903102
  Force two-norm initial, final = 4.7690838 2.7550018
  Force max component initial, final = 0.48708302 0.65224367
  Final line search alpha, max atom move = 0.01331177 0.0086825177
  Iterations, force evaluations = 1000 1124

MPI task timing breakdown:
Section |  min time  |  avg time  |  max time  |%varavg| %total
---------------------------------------------------------------
Pair    | 0.087453   | 0.089548   | 0.090536   |   0.4 | 78.15
Neigh   | 0.00037    | 0.0003845  | 0.0004     |   0.0 |  0.34
Comm    | 0.005723   | 0.0066888  | 0.008408   |   1.3 |  5.84
Output  | 0.008986   | 0.0093325  | 0.010354   |   0.6 |  8.14
Modify  | 0          | 0          | 0          |   0.0 |  0.00
Other   |            | 0.008631   |            |       |  7.53

Nlocal:             36 ave          38 max          31 min
Histogram: 1 0 0 0 0 0 0 0 1 2
Nghost:            297 ave         307 max         277 min
Histogram: 1 0 0 0 0 0 0 1 0 2
Neighs:         400.75 ave         430 max         335 min
Histogram: 1 0 0 0 0 0 0 0 2 1
FullNghs:        801.5 ave         865 max         661 min
Histogram: 1 0 0 0 0 0 0 1 0 2

Total # of neighbors = 3206
Ave neighs/atom = 22.263889
Neighbor list builds = 14
Dangerous builds = 0

# Obtain new stress tensor

variable tmp equal pe
variable e1 equal ${tmp}
variable e1 equal -986.051855903102
variable tmp equal press
variable p1 equal ${tmp}
variable p1 equal -143356.631019736
variable tmp equal pxx
variable pxx1 equal ${tmp}
variable pxx1 equal -126225.994152195
variable tmp equal pyy
variable pyy1 equal ${tmp}
variable pyy1 equal -130252.285961563
variable tmp equal pzz
variable pzz1 equal ${tmp}
variable pzz1 equal -173591.612945451
variable tmp equal pxy
variable pxy1 equal ${tmp}
variable pxy1 equal -874.037949480772
variable tmp equal pxz
variable pxz1 equal ${tmp}
variable pxz1 equal 572.383079657582
variable tmp equal pyz
variable pyz1 equal ${tmp}
variable pyz1 equal 8124.33448312367

# Compute elastic constant from pressure tensor

variable C1pos equal ${d1}
variable C1pos equal -500731.214729502
variable C2pos equal ${d2}
variable C2pos equal -98102.0337900001
variable C3pos equal ${d3}
variable C3pos equal 17589652.0677182
variable C4pos equal ${d4}
variable C4pos equal -812433.448312366
variable C5pos equal ${d5}
variable C5pos equal -57238.3079657584
variable C6pos equal ${d6}
variable C6pos equal 87403.7949480768

# Combine positive and negative

variable C1${dir} equal 0.5*(${C1neg}+${C1pos})
variable C16 equal 0.5*(${C1neg}+${C1pos})
variable C16 equal 0.5*(452804.139701801+${C1pos})
variable C16 equal 0.5*(452804.139701801+-500731.214729502)
variable C2${dir} equal 0.5*(${C2neg}+${C2pos})
variable C26 equal 0.5*(${C2neg}+${C2pos})
variable C26 equal 0.5*(129865.1584716+${C2pos})
variable C26 equal 0.5*(129865.1584716+-98102.0337900001)
variable C3${dir} equal 0.5*(${C3neg}+${C3pos})
variable C36 equal 0.5*(${C3neg}+${C3pos})
variable C36 equal 0.5*(-17445475.0700279+${C3pos})
variable C36 equal 0.5*(-17445475.0700279+17589652.0677182)
variable C4${dir} equal 0.5*(${C4neg}+${C4pos})
variable C46 equal 0.5*(${C4neg}+${C4pos})
variable C46 equal 0.5*(1153737.27930501+${C4pos})
variable C46 equal 0.5*(1153737.27930501+-812433.448312366)
variable C5${dir} equal 0.5*(${C5neg}+${C5pos})
variable C56 equal 0.5*(${C5neg}+${C5pos})
variable C56 equal 0.5*(-166339.487175932+${C5pos})
variable C56 equal 0.5*(-166339.487175932+-57238.3079657584)
variable C6${dir} equal 0.5*(${C6neg}+${C6pos})
variable C66 equal 0.5*(${C6neg}+${C6pos})
variable C66 equal 0.5*(-249741.002359827+${C6pos})
variable C66 equal 0.5*(-249741.002359827+87403.7949480768)

# Delete dir to make sure it is not reused

variable dir delete

# Output final values

variable C11all equal ${C11}
variable C11all equal 455.756086349516
variable C22all equal ${C22}
variable C22all equal -545962.1376739
variable C33all equal ${C33}
variable C33all equal -234115.546663601

variable C12all equal 0.5*(${C12}+${C21})
variable C12all equal 0.5*(294432.35896115+${C21})
variable C12all equal 0.5*(294432.35896115+-9595.63333875051)
variable C13all equal 0.5*(${C13}+${C31})
variable C13all equal 0.5*(236953.563108549+${C31})
variable C13all equal 0.5*(236953.563108549+-30891.1175995506)
variable C23all equal 0.5*(${C23}+${C32})
variable C23all equal 0.5*(277218.3651087+${C32})
variable C23all equal 0.5*(277218.3651087+-115685.402486451)

variable C44all equal ${C44}
variable C44all equal -47205.3864157831
variable C55all equal ${C55}
variable C55all equal 218295.716347317
variable C66all equal ${C66}
variable C66all equal -81168.6037058751

variable C14all equal 0.5*(${C14}+${C41})
variable C14all equal 0.5*(-71023.78589295+${C41})
variable C14all equal 0.5*(-71023.78589295+148920.108622797)
variable C15all equal 0.5*(${C15}+${C51})
variable C15all equal 0.5*(-545358.1292281+${C51})
variable C15all equal 0.5*(-545358.1292281+-124196.538853334)
variable C16all equal 0.5*(${C16}+${C61})
variable C16all equal 0.5*(-23963.5375138505+${C61})
variable C16all equal 0.5*(-23963.5375138505+-19932.2965128555)

variable C24all equal 0.5*(${C24}+${C42})
variable C24all equal 0.5*(-1191779.1718172+${C42})
variable C24all equal 0.5*(-1191779.1718172+-71451.672940237)
variable C25all equal 0.5*(${C25}+${C52})
variable C25all equal 0.5*(-1852056.56419895+${C52})
variable C25all equal 0.5*(-1852056.56419895+-24330.7756391159)
variable C26all equal 0.5*(${C26}+${C62})
variable C26all equal 0.5*(15881.5623408+${C62})
variable C26all equal 0.5*(15881.5623408+-82285.517139805)

variable C34all equal 0.5*(${C34}+${C43})
variable C34all equal 0.5*(1484126.73564955+${C43})
variable C34all equal 0.5*(1484126.73564955+-101774.804751407)
variable C35all equal 0.5*(${C35}+${C53})
variable C35all equal 0.5*(650916.8603111+${C53})
variable C35all equal 0.5*(650916.8603111+79801.6854346202)
variable C36all equal 0.5*(${C36}+${C63})
variable C36all equal 0.5*(72088.4988451507+${C63})
variable C36all equal 0.5*(72088.4988451507+49054.7234394455)

variable C45all equal 0.5*(${C45}+${C54})
variable C45all equal 0.5*(845701.561283673+${C54})
variable C45all equal 0.5*(845701.561283673+511247.97151914)
variable C46all equal 0.5*(${C46}+${C64})
variable C46all equal 0.5*(170651.915496322+${C64})
variable C46all equal 0.5*(170651.915496322+-868794.601877963)
variable C56all equal 0.5*(${C56}+${C65})
variable C56all equal 0.5*(-111788.897570845+${C65})
variable C56all equal 0.5*(-111788.897570845+177779.079100042)

# Average moduli for cubic crystals

variable C11cubic equal (${C11all}+${C22all}+${C33all})/3.0
variable C11cubic equal (455.756086349516+${C22all}+${C33all})/3.0
variable C11cubic equal (455.756086349516+-545962.1376739+${C33all})/3.0
variable C11cubic equal (455.756086349516+-545962.1376739+-234115.546663601)/3.0
variable C12cubic equal (${C12all}+${C13all}+${C23all})/3.0
variable C12cubic equal (142418.3628112+${C13all}+${C23all})/3.0
variable C12cubic equal (142418.3628112+103031.222754499+${C23all})/3.0
variable C12cubic equal (142418.3628112+103031.222754499+80766.4813111245)/3.0
variable C44cubic equal (${C44all}+${C55all}+${C66all})/3.0
variable C44cubic equal (-47205.3864157831+${C55all}+${C66all})/3.0
variable C44cubic equal (-47205.3864157831+218295.716347317+${C66all})/3.0
variable C44cubic equal (-47205.3864157831+218295.716347317+-81168.6037058751)/3.0

variable bulkmodulus equal (${C11cubic}+2*${C12cubic})/3.0
variable bulkmodulus equal (-259873.976083717+2*${C12cubic})/3.0
variable bulkmodulus equal (-259873.976083717+2*108738.688958941)/3.0
variable shearmodulus1 equal ${C44cubic}
variable shearmodulus1 equal 29973.9087418863
variable shearmodulus2 equal (${C11cubic}-${C12cubic})/2.0
variable shearmodulus2 equal (-259873.976083717-${C12cubic})/2.0
variable shearmodulus2 equal (-259873.976083717-108738.688958941)/2.0
variable poissonratio equal 1.0/(1.0+${C11cubic}/${C12cubic})
variable poissonratio equal 1.0/(1.0+-259873.976083717/${C12cubic})
variable poissonratio equal 1.0/(1.0+-259873.976083717/108738.688958941)

# For Stillinger-Weber silicon, the analytical results
# are known to be (E. R. Cowley, 1988):
#               C11 = 151.4 GPa
#               C12 = 76.4 GPa
#               C44 = 56.4 GPa

print "========================================="
=========================================
print "Components of the Elastic Constant Tensor"
Components of the Elastic Constant Tensor
print "========================================="
=========================================

print "Elastic Constant C11all = ${C11all} ${cunits}"
Elastic Constant C11all = 455.756086349516 GPa
print "Elastic Constant C22all = ${C22all} ${cunits}"
Elastic Constant C22all = -545962.1376739 GPa
print "Elastic Constant C33all = ${C33all} ${cunits}"
Elastic Constant C33all = -234115.546663601 GPa

print "Elastic Constant C12all = ${C12all} ${cunits}"
Elastic Constant C12all = 142418.3628112 GPa
print "Elastic Constant C13all = ${C13all} ${cunits}"
Elastic Constant C13all = 103031.222754499 GPa
print "Elastic Constant C23all = ${C23all} ${cunits}"
Elastic Constant C23all = 80766.4813111245 GPa

print "Elastic Constant C44all = ${C44all} ${cunits}"
Elastic Constant C44all = -47205.3864157831 GPa
print "Elastic Constant C55all = ${C55all} ${cunits}"
Elastic Constant C55all = 218295.716347317 GPa
print "Elastic Constant C66all = ${C66all} ${cunits}"
Elastic Constant C66all = -81168.6037058751 GPa

print "Elastic Constant C14all = ${C14all} ${cunits}"
Elastic Constant C14all = 38948.1613649235 GPa
print "Elastic Constant C15all = ${C15all} ${cunits}"
Elastic Constant C15all = -334777.334040717 GPa
print "Elastic Constant C16all = ${C16all} ${cunits}"
Elastic Constant C16all = -21947.917013353 GPa

print "Elastic Constant C24all = ${C24all} ${cunits}"
Elastic Constant C24all = -631615.422378719 GPa
print "Elastic Constant C25all = ${C25all} ${cunits}"
Elastic Constant C25all = -938193.669919033 GPa
print "Elastic Constant C26all = ${C26all} ${cunits}"
Elastic Constant C26all = -33201.9773995025 GPa

print "Elastic Constant C34all = ${C34all} ${cunits}"
Elastic Constant C34all = 691175.965449071 GPa
print "Elastic Constant C35all = ${C35all} ${cunits}"
Elastic Constant C35all = 365359.27287286 GPa
print "Elastic Constant C36all = ${C36all} ${cunits}"
Elastic Constant C36all = 60571.6111422981 GPa

print "Elastic Constant C45all = ${C45all} ${cunits}"
Elastic Constant C45all = 678474.766401406 GPa
print "Elastic Constant C46all = ${C46all} ${cunits}"
Elastic Constant C46all = -349071.343190821 GPa
print "Elastic Constant C56all = ${C56all} ${cunits}"
Elastic Constant C56all = 32995.0907645985 GPa

print "========================================="
=========================================
print "Average properties for a cubic crystal"
Average properties for a cubic crystal
print "========================================="
=========================================

print "Bulk Modulus = ${bulkmodulus} ${cunits}"
Bulk Modulus = -14132.1993886117 GPa
print "Shear Modulus 1 = ${shearmodulus1} ${cunits}"
Shear Modulus 1 = 29973.9087418863 GPa
print "Shear Modulus 2 = ${shearmodulus2} ${cunits}"
Shear Modulus 2 = -184306.332521329 GPa
print "Poisson Ratio = ${poissonratio}"
Poisson Ratio = -0.719479156903757
Total wall time: 0:00:01
