ITEM: TIMESTEP
0
ITEM: NUMBER OF ATOMS
12000
ITEM: BOX BOUNDS pp pp pp
-1.8832661578037424e-01 2.7529326615780143e+01
-1.9465761210477872e-01 2.7535657612104885e+01
-1.5848108971463404e+00 2.2031281089714111e+02
ITEM: ATOMS id type x y z c_peratom fx fy fz 
242 2 5.29131 5.39831 3.85744 -25.7202 0.00437317 -1.19897 1.51028 
1201 2 5.24617 2.67397 1.0716 -25.9124 0.708115 -0.355044 1.78542 
1202 2 5.24701 2.51006 6.86892 -25.3977 0.312466 -0.0967494 -1.74906 
2041 2 2.47168 5.33878 1.37708 -24.4422 1.73302 -2.24803 1.22194 
2042 2 2.43558 5.07943 6.69705 -26.4808 0.761524 1.4671 -1.82752 
3002 2 2.54092 2.31132 4.09449 -25.6685 2.263 2.3046 -1.73777 
4001 1 1.13549 0.969507 -0.200566 -7.96565 0.130892 1.37881 -0.139685 
4002 1 1.39805 1.16444 5.4107 -7.33532 -3.09835 -1.7987 0.764076 
5001 1 4.08261 3.93826 2.68026 -7.01996 -0.524059 0.730671 -0.996546 
6001 1 3.87322 4.17471 0.025851 -7.73739 -1.20993 -0.755083 -1.78651 
6002 1 3.94413 3.78916 5.29132 -6.61004 -0.620398 -1.10709 0.788028 
7001 1 1.17167 0.739739 2.51551 -8.05458 -0.882035 1.15346 0.262473 
8001 1 3.88442 1.20629 2.60867 -6.8967 0.259473 1.02593 -0.0403648 
9001 1 0.985721 3.78115 -0.0723665 -7.74488 0.716519 0.867746 0.0558314 
9002 1 1.13361 3.89078 5.27409 -6.87368 0.306124 -1.52838 0.11061 
10001 1 1.31809 3.57622 2.67445 -7.56717 -1.43418 0.619321 -1.4411 
11001 1 3.85529 1.4537 -0.316687 -7.88163 -0.180536 -1.42329 0.694541 
11002 1 3.8753 0.91532 5.49561 -7.43892 1.97818 0.277488 -0.776132 
9202 1 6.58516 4.01885 5.36821 -7.14179 1.23123 -0.180412 0.00511739 
1001 2 -0.185751 2.28755 1.24275 -24.6423 -0.593104 0.59234 0.0411921 
4202 1 6.5995 1.17028 5.43706 -7.87307 0.320158 0.653367 -0.0101534 
4201 1 6.52904 1.2856 -0.134085 -6.81279 0.421626 -0.301326 -1.14805 
1002 2 -0.0940254 2.34328 6.76085 -25.5881 -1.29216 4.35696 -3.46862 
4042 1 0.992033 6.52562 5.6225 -6.22698 1.14549 1.0935 -0.578507 
7201 1 6.69971 1.11981 2.47948 -7.31682 -0.305657 0.560144 2.13967 
9201 1 6.54755 3.98867 -0.333651 -7.42521 1.08157 0.662161 -0.424856 
7041 1 0.975194 6.50291 2.96049 -8.47856 1.69229 0.465031 -2.2672 
11042 1 3.75226 6.42708 5.34272 -7.35286 0.508448 0.941641 -0.295499 
3001 2 2.44331 2.65598 -1.548 -24.6241 0.344003 -1.33316 0.223921 
2001 2 2.68762 -0.192943 1.05905 -25.1506 -1.8546 0.84571 -1.13798 
10201 1 6.85717 3.9731 2.36132 -7.16599 -1.22691 0.0753301 1.05053 
442 2 10.9 5.33134 3.86879 -25.1801 -1.93491 -2.39361 -0.433413 
1401 2 10.7764 2.56988 1.1212 -25.5778 -0.822333 -1.22157 0.847083 
1402 2 10.8084 2.43057 6.59543 -24.4585 -0.213095 0.675896 0.580864 
2241 2 8.14077 5.39449 1.14346 -25.5036 -0.824642 -0.616417 -0.871718 
2242 2 7.67187 5.46124 7.02328 -25.0326 0.661307 -0.538278 -3.33661 
3202 2 8.08908 2.57705 3.93793 -25.6205 -1.54983 -1.4461 -1.93608 
4401 1 12.18 1.01944 0.0693161 -7.646 -0.00946482 2.16016 -1.468 
4402 1 11.9387 0.963288 5.30811 -7.69796 1.51238 0.397171 2.49883 
5201 1 9.43423 3.87788 2.5034 -6.50522 0.103723 1.39887 -1.26466 
6201 1 9.49456 3.97249 -0.246388 -7.79981 -0.216477 -0.205304 -1.07369 
6202 1 9.51315 3.65433 4.98956 -7.13255 2.69956 0.696967 3.49518 
7401 1 12.1502 0.95437 2.82931 -6.18691 0.607675 -1.29578 -1.42499 
8201 1 9.56821 1.24785 2.5911 -6.34584 -1.81082 -0.0489625 -0.4204 
9401 1 12.4028 4.14219 -0.314506 -7.46763 -0.636567 -2.07492 -0.625294 
9402 1 12.5495 3.85424 5.22826 -7.45051 -1.14077 -0.942609 0.744054 
10401 1 12.0591 3.74201 2.43848 -7.58443 2.32072 0.540473 0.840603 
11201 1 9.33042 1.30031 -0.434457 -7.75939 0.303401 0.476681 1.27855 
11202 1 9.31146 0.840624 5.48173 -7.37497 -0.142295 0.152501 -0.203899 
3402 2 13.3699 2.36495 3.9535 -24.9414 0.786791 -0.163799 -1.62681 
8241 1 9.45405 6.62832 2.4654 -7.94638 0.885472 0.431047 0.591375 
4442 1 12.1122 6.28577 5.43564 -7.54194 0.498964 1.21234 -1.24914 
11241 1 9.53028 6.62685 -0.301601 -7.49658 0.401986 0.569907 0.330296 
7441 1 12.3171 6.46508 2.44366 -7.84149 -0.596517 0.559321 1.32644 
11242 1 9.32157 6.49368 5.35881 -6.66159 0.647616 -1.2901 -2.92728 
2201 2 7.89812 -0.10967 1.15084 -25.7798 1.93068 -0.127776 -0.303636 
3401 2 13.5764 2.57382 -1.48465 -24.9833 -0.453639 0.0230125 -1.74497 
2442 2 13.8824 5.16745 6.73419 -25.8098 -2.58967 -0.160726 2.82523 
2441 2 13.8636 5.03734 1.30016 -25.27 -3.42693 3.91702 -0.547486 
642 2 16.5448 5.37417 3.88279 -25.6274 -1.46736 0.173929 2.15479 
1601 2 16.4575 2.52353 1.00457 -24.5229 -0.714145 -0.419578 3.81344 
1602 2 16.4093 2.38676 6.63184 -26.2992 0.481209 1.58658 0.88692 
2641 2 19.2331 5.29021 1.28729 -25.522 0.0895768 0.0732028 -0.581897 
2642 2 19.3143 5.25088 6.82523 -25.6959 -1.07247 -0.733515 0.334187 
3602 2 19.1 2.37366 3.92479 -25.4099 -1.15029 1.05087 1.77073 
4601 1 17.7659 1.17281 -0.0951668 -8.28692 0.326916 -1.60764 -2.20083 
4602 1 17.622 1.1633 5.12069 -7.03605 -0.43127 0.0485633 0.694623 
5401 1 15.0833 3.95684 2.64426 -7.40237 0.441872 -0.967891 1.26369 
6401 1 15.1492 3.88342 -0.000251052 -8.13475 -0.198033 1.29741 -2.9669 
6402 1 15.3263 4.27677 5.45042 -6.87755 -0.746677 -1.66083 -0.515892 
7601 1 17.5681 1.13265 2.5238 -7.73373 -1.05289 0.899688 -1.02512 
8401 1 14.7596 1.27165 2.45603 -7.55338 0.670951 -0.955703 -0.0398808 
9601 1 17.8988 3.79834 -0.0952118 -7.9337 -0.443189 1.55156 0.132732 
9602 1 17.7914 3.93434 5.55166 -6.36192 2.23651 -0.779534 -1.51223 
10601 1 17.8714 4.17594 2.76259 -7.42667 0.183168 -2.02229 -1.33411 
11401 1 15.0437 1.38038 -0.31135 -7.55757 -0.221423 -2.66167 -0.0843551 
11402 1 14.7515 1.31212 5.40335 -8.13858 -0.0560675 -1.03694 -0.493961 
11601 1 20.5242 1.02605 0.116383 -7.49461 -0.394899 0.91786 -0.907109 
6601 1 20.5465 3.95666 -0.109292 -7.13488 0.962203 -1.38081 0.12236 
5601 1 20.3509 3.71782 2.59687 -7.62682 2.26336 -1.12503 0.663896 
8601 1 20.1425 0.817864 2.88389 -7.01186 0.93442 -0.416728 -2.14008 
3601 2 19.2533 2.5077 -1.44013 -25.2523 0.0967278 0.471551 -0.769959 
641 2 16.4461 5.23954 -1.37396 -24.665 0.0314609 1.42717 -1.39731 
4642 1 17.6804 6.63476 5.46032 -7.82513 1.05327 0.766351 -1.73551 
11441 1 15.1556 6.65107 0.229913 -7.11927 0.671259 -0.768389 -1.85896 
4641 1 17.9366 6.68655 -0.0759846 -7.54754 0.202873 -1.45355 -1.99878 
8641 1 20.5253 6.41801 2.75515 -7.40585 0.150935 0.211399 -0.197637 
602 2 16.0598 -0.166957 3.6645 -24.7019 2.65867 1.06582 3.79575 
3801 2 24.6801 2.28689 -1.49555 -25.0337 1.63787 1.53232 -0.706969 
11602 1 20.7236 1.20367 5.33987 -6.72215 -0.78345 0.449489 -0.301669 
6602 1 20.695 3.97412 5.63805 -7.32531 0.482316 0.229782 -3.83466 
42 2 27.3002 5.06441 3.93277 -25.4179 1.22337 0.915559 1.57379 
842 2 21.9639 5.10738 4.06924 -25.0555 -0.44316 1.64763 -0.121998 
1801 2 21.9107 2.43932 1.27727 -24.8674 -0.723721 0.421337 -1.30014 
1802 2 22.0276 2.4202 6.64039 -25.6023 0.354121 -0.165726 0.0892712 
2841 2 24.7012 5.17542 1.13019 -25.0909 -1.79015 0.849139 0.318827 
2842 2 24.7665 5.33482 6.71155 -25.0575 0.0126683 -1.54511 -0.873622 
3802 2 24.72 2.19496 3.82006 -25.0614 -1.34534 0.318699 1.90359 
4801 1 23.3353 0.921157 -0.222381 -7.31814 0.628627 0.476104 1.73819 
4802 1 23.4223 0.899913 5.18747 -7.37584 -0.182509 0.234126 -0.301622 
5801 1 25.9951 3.585 2.74874 -7.84724 1.43739 0.847239 -0.771448 
6801 1 25.9797 3.86372 0.0772132 -7.50179 1.22982 -1.82118 -2.00417 
6802 1 26.2628 3.95853 5.49474 -7.19708 -1.36799 -0.413404 0.520281 
7801 1 23.0054 0.977099 2.51627 -7.82573 0.830516 0.325159 0.0794707 
8801 1 25.8856 0.913787 2.47934 -7.64549 1.43657 0.358 -1.44545 
9801 1 23.3124 3.48865 -0.382711 -7.2861 -1.20855 2.46994 1.94708 
9802 1 23.5199 3.78558 5.12515 -7.44885 -0.423207 -0.174397 1.48602 
10801 1 23.187 3.97984 2.59456 -7.79617 0.00832294 -1.12089 -2.25338 
11801 1 26.0437 0.949775 -0.274415 -8.11683 0.924042 0.4132 0.797387 
11802 1 26.1716 0.831257 5.10362 -7.32023 0.678186 -0.482814 0.648144 
11641 1 20.7101 6.53119 -0.215649 -7.69905 -0.929073 2.67159 1.49852 
4841 1 23.4612 6.5245 -0.370615 -7.04543 0.462206 -0.770203 0.810378 
11841 1 26.23 6.54759 -0.404318 -7.5346 1.02011 -0.644895 1.05463 
8841 1 26.0514 6.42375 2.38525 -7.89219 0.652403 0.0034729 0.0490618 
4842 1 23.2806 6.70985 5.10689 -7.43 0.644191 -0.747121 0.874157 
4242 1 6.56258 6.78838 5.31676 -7.50048 -0.920832 -0.081287 0.971609 
1082 2 -0.0941938 13.4803 6.54438 -25.1887 -1.8489 0.46397 1.53425 
81 2 -0.0210232 10.6389 -1.35941 -24.8357 -2.45529 0.146942 -0.37301 
281 2 5.20479 11.1484 -1.50793 -25.1897 1.1537 -3.86849 0.110719 
8041 1 3.9886 6.8519 2.51804 -7.91216 -2.72683 -1.34683 0.770317 
7241 1 6.61606 6.78861 2.63892 -7.40498 0.0986901 -1.54446 -1.64502 
4041 1 1.48124 6.77001 0.17347 -7.47681 -1.085 -2.12143 -0.475721 
11041 1 4.10174 6.75373 -0.318344 -7.30426 -0.632478 1.02963 -0.934778 
282 2 5.43027 10.7445 3.851 -25.6573 -1.20805 1.06028 0.308819 
1241 2 5.07157 8.19797 1.16939 -25.7968 3.09658 0.440431 -0.860893 
1242 2 5.02923 7.94337 6.73561 -24.5172 0.382194 -0.306761 0.441367 
2081 2 2.38133 10.9567 1.33393 -25.3529 0.831912 -1.93947 0.750428 
2082 2 2.50604 10.8138 6.8728 -25.7767 1.72259 0.836955 -1.23978 
3042 2 2.34897 8.005 4.0616 -25.0615 1.03079 -0.562688 0.289769 
4081 1 0.751929 12.2874 0.263881 -8.27148 0.968098 -1.50263 -2.92993 
4082 1 1.32435 12.3713 5.35066 -7.66013 -0.51864 -1.87091 0.104507 
5041 1 3.98305 9.56722 2.57738 -7.17057 -0.988197 -0.11886 1.14644 
6041 1 3.84508 9.69761 0.00724322 -7.08756 0.219031 -1.37075 -2.15537 
6042 1 3.86965 9.10248 5.34219 -7.14006 1.7524 0.821992 0.0917179 
7081 1 1.24584 12.2901 2.74439 -7.05563 -1.8141 -0.566496 0.313274 
8081 1 3.75272 12.2828 2.53115 -6.82106 2.01119 -0.14838 0.695192 
9041 1 1.11323 9.09929 -0.188795 -7.25583 0.149767 3.33342 0.0821834 
9042 1 1.40109 9.44815 5.41113 -7.03631 -1.88133 0.40923 -0.956582 
10041 1 1.05306 9.52324 2.60377 -7.9856 0.385719 -1.43937 0.060615 
11081 1 3.54348 12.1774 -0.10827 -7.79014 0.925607 1.31156 -1.02885 
11082 1 4.04473 11.8836 5.45217 -6.63901 -0.450177 0.38129 -1.114 
4282 1 6.60904 12.5092 5.2725 -7.32725 0.800585 -0.653205 -0.555046 
4281 1 6.4489 12.5321 -0.40338 -7.86127 0.62691 0.491373 1.40152 
7281 1 6.50441 12.2907 2.39111 -7.82492 1.1624 -0.799935 0.403232 
82 2 -0.176092 10.9264 3.91839 -25.4883 -0.706568 -1.05447 1.02975 
3081 2 2.23843 13.5192 -1.22063 -24.5643 0.0218869 1.46407 -2.63916 
3082 2 2.66791 13.6063 4.03539 -25.6424 -1.09161 -1.70192 0.831148 
10241 1 6.80959 9.45292 2.35194 -6.67858 -0.394539 0.345802 0.578426 
4441 1 12.4968 6.8469 -0.302187 -6.35597 -1.67496 0.44301 1.363 
4241 1 6.82215 6.93003 -0.264015 -6.84143 0.0760776 -0.736427 0.4386 
9242 1 6.94092 9.59971 4.90685 -6.44518 -1.27552 0.468864 1.5731 
9241 1 6.84337 9.79886 -0.132277 -6.63738 -0.57694 0.1383 -1.68529 
482 2 10.813 10.7983 3.87824 -25.4939 0.858122 -1.45961 2.0669 
1441 2 11.0243 8.07016 1.10643 -25.2826 -0.0310558 -0.371721 -0.295191 
1442 2 10.7495 7.79063 6.67486 -25.9374 1.29607 2.49383 -1.43672 
2281 2 8.11529 11.0086 1.23838 -24.7091 -0.877359 -2.13635 -1.58837 
2282 2 8.24677 11.0095 6.94062 -24.9055 0.053015 -2.13596 -2.28733 
3242 2 8.05526 7.85534 3.83646 -26.1086 1.02407 2.82835 2.13363 
4481 1 12.0674 12.3404 -0.241879 -6.86777 0.817965 0.39661 0.781129 
4482 1 12.3164 11.8942 5.35786 -7.07383 -0.932497 0.274159 -0.670523 
5241 1 9.64049 9.35764 2.66036 -7.36498 -0.413648 -0.29586 -1.15711 
6241 1 9.75618 9.38383 -0.379444 -7.0624 0.0204145 0.341863 1.8612 
6242 1 9.38689 9.21182 5.54104 -6.20968 0.913252 1.58029 -0.43072 
7481 1 12.0219 12.1656 2.58323 -7.71803 0.572824 1.11081 -0.516807 
8281 1 9.29748 12.0747 2.73488 -8.37142 0.0594942 1.10059 -0.826548 
9441 1 12.5013 9.61833 -0.331199 -7.45316 -1.78777 0.000848802 0.934826 
9442 1 12.111 8.9526 5.25384 -7.12193 0.115724 1.12841 0.394795 
10441 1 12.3587 9.39131 2.59194 -7.22767 -0.112125 -0.408514 -1.1637 
11281 1 9.44816 12.2467 -0.362627 -7.48596 -1.95955 0.794525 2.75441 
11282 1 9.61736 12.2057 5.47753 -7.42956 -0.885777 -1.94363 -0.139467 
2481 2 13.6625 10.7292 1.15916 -25.6082 0.028192 -0.508528 2.73556 
2482 2 13.5802 10.5913 6.73468 -25.4012 0.646242 1.56316 -1.67018 
3442 2 13.5079 7.62303 4.18543 -25.3037 0.945158 3.01144 -0.974453 
3482 2 13.3486 13.6076 3.87108 -25.3676 2.33247 -1.25891 1.53002 
3282 2 7.98116 13.4717 3.89179 -24.8003 0.0125819 2.08483 0.844861 
1482 2 10.838 13.5692 6.86226 -25.4287 1.15242 0.0646804 -2.15154 
1681 2 16.3546 13.4872 1.21293 -25.6226 0.0623183 -0.534066 0.294544 
3441 2 13.7207 8.184 -1.48263 -26.3916 0.341187 -1.40275 -1.4101 
8441 1 14.9979 6.74128 2.89768 -6.72506 -0.415689 -1.9065 0.597586 
11442 1 14.904 6.91453 5.82543 -7.13156 -0.516745 -1.11553 -0.588284 
7641 1 17.5563 6.88258 2.50252 -7.09983 3.0736 -1.52859 2.47161 
682 2 16.404 10.8931 4.10427 -25.5071 -1.0661 -1.09665 -0.884409 
1641 2 16.5781 8.12425 1.12298 -26.1377 -1.57695 2.10234 0.0818195 
1642 2 16.5637 8.03774 6.80361 -25.2641 -1.3557 0.225152 0.590445 
2681 2 19.2685 10.6359 1.2513 -25.9153 0.372056 1.94821 -0.219129 
2682 2 19.4368 10.8192 6.94969 -24.6865 -2.29677 0.950978 -0.402018 
3642 2 19.0837 8.05335 4.34736 -25.0924 2.7079 -0.45493 -3.17429 
4681 1 17.6281 11.7278 0.119904 -6.61783 -1.09747 2.59406 -0.911975 
4682 1 17.7451 12.2321 5.65061 -7.85448 0.205003 0.108063 -1.03725 
5441 1 15.2579 9.41134 2.52622 -6.23077 0.394077 1.11163 -0.902717 
6441 1 15.2018 9.50863 -0.290653 -6.94167 0.364607 -1.45859 2.44482 
6442 1 15.0084 9.33657 5.24143 -6.87031 0.518253 2.15793 0.634061 
7681 1 17.7348 12.1161 2.68831 -7.2934 0.267638 0.484127 1.46768 
8481 1 14.94 12.1426 2.57954 -7.35508 -0.359453 1.18971 0.073973 
9641 1 18.0712 9.30389 -0.188805 -6.78785 1.07905 -1.47728 -0.113396 
9642 1 18.011 9.47541 5.50101 -8.02703 -2.03817 0.939333 1.43973 
10641 1 18.1537 9.51777 2.71418 -6.92642 -1.26121 -1.03799 0.889053 
11481 1 14.7228 12.0311 -0.137603 -7.50938 1.8883 2.3359 -1.41553 
11482 1 14.897 12.2891 5.33414 -6.88615 1.4622 -0.47729 0.390232 
11681 1 20.5092 12.4161 -0.110655 -6.98021 0.124917 -2.07971 -0.0350736 
11642 1 20.514 6.74994 5.59925 -7.35292 -0.166539 -0.540906 -0.343475 
3681 2 19.2177 13.6698 -1.58444 -25.4644 -0.979302 -1.6321 1.92451 
3682 2 18.987 13.4645 4.02118 -25.2511 2.32037 0.6284 -0.132194 
3841 2 24.9844 8.09448 -1.5015 -26.1021 -2.43621 -1.10812 -0.588571 
1881 2 22.0993 13.4832 1.0939 -25.8331 -2.63162 -0.304953 2.09732 
1042 2 27.5081 8.12216 6.80317 -26.8024 0.193315 -0.992367 -0.9326 
5641 1 20.7888 9.13198 2.97045 -6.75763 -0.375236 -0.0774963 -0.257585 
11682 1 20.6652 12.3413 5.21304 -7.3286 -1.11633 -0.907084 2.40123 
8681 1 20.7834 11.8884 2.70473 -6.83385 -2.76871 1.14923 -3.71918 
6641 1 20.9629 9.54475 0.143467 -7.47363 -2.19618 0.891264 -0.951395 
7841 1 23.4646 6.78667 2.34276 -7.29618 -0.701959 -0.154519 0.361799 
1041 2 27.5253 7.72204 1.35456 -24.8074 -0.531011 2.90435 -1.60419 
6642 1 20.6721 9.36736 5.70213 -7.68215 -0.427198 2.70231 -1.51345 
11842 1 26.2557 7.0085 4.93823 -6.80289 -1.22983 -1.42688 0.85452 
882 2 22.0078 10.8971 3.99137 -25.5938 2.5447 -1.64687 1.81597 
1841 2 21.9497 8.04947 1.28206 -25.4554 1.51564 -1.03228 0.709297 
1842 2 22.0581 8.22955 6.79007 -24.9443 1.57262 -3.15668 1.04121 
2881 2 24.6457 10.7892 1.24093 -26.0859 1.55578 -0.408988 -0.461207 
2882 2 24.8287 10.7481 6.85954 -25.8814 -0.0681611 -0.345312 -2.28898 
3842 2 24.7408 8.08673 3.80502 -25.502 -1.00348 0.302523 0.535895 
4881 1 23.4077 12.0589 -0.15997 -7.59047 -1.64355 0.584483 0.803955 
4882 1 23.3793 12.1911 5.31043 -6.75056 -0.399126 -0.780815 1.71412 
5841 1 25.9944 9.56885 2.67114 -7.4027 1.14698 -1.07195 0.449764 
6841 1 26.1912 9.19674 -0.0580055 -6.53337 1.36237 -0.773889 1.40066 
6842 1 26.3898 9.59982 5.63525 -6.3213 -0.0230568 -0.278312 -1.87672 
7881 1 23.5186 12.3727 2.6214 -6.91884 -1.08098 -1.02984 -1.16523 
8881 1 26.1024 12.328 2.60586 -7.61096 1.80066 -0.459272 -1.52015 
9841 1 23.5045 9.19 -0.15856 -6.59096 -0.0432256 0.910642 0.271001 
9842 1 23.6124 9.42148 5.43103 -7.55555 -1.24938 -0.136008 0.0488551 
10841 1 23.3631 9.62444 2.55568 -7.38494 -0.868274 -1.06552 0.965742 
11881 1 25.8123 11.5998 -0.478003 -6.57502 1.79951 2.00692 -0.221321 
11882 1 26.0659 12.0393 5.21405 -7.02252 1.19446 3.00511 0.338719 
3882 2 24.8778 13.6648 3.86657 -25.4325 -2.97302 -1.91969 2.95203 
881 2 22.1322 10.9189 -1.57561 -25.7425 -1.62103 -2.85003 1.63693 
1882 2 22.1001 13.4381 6.91896 -25.2893 0.888251 0.498276 -2.94152 
3881 2 24.8505 13.4127 -1.54613 -25.308 -2.12402 0.011737 1.3461 
4004 1 0.947087 1.03813 16.6925 -8.16875 1.34199 -0.599859 -0.674343 
11004 1 3.71061 1.01637 16.7179 -7.93564 0.795848 0.0174065 -1.85671 
6004 1 3.77641 3.65388 16.4601 -7.04695 0.691676 0.0980101 -1.02471 
243 2 4.94636 5.3426 9.76952 -24.7064 2.09199 -0.563177 -1.87187 
244 2 5.28964 5.29153 15.1637 -24.6101 -1.88133 0.122005 -1.99765 
1203 2 5.19478 2.5561 12.3088 -25.1658 1.13571 -1.49171 0.632859 
2043 2 2.33221 5.28815 12.4667 -25.1116 1.78812 0.416115 0.16746 
3003 2 2.6683 2.4698 9.64161 -24.8885 -3.0369 -0.544563 -1.91231 
3004 2 2.54736 2.16806 15.1486 -24.2696 -0.0094428 2.49218 0.139295 
4003 1 1.07627 1.12091 11.0411 -7.04339 1.44267 0.148394 -0.804679 
5002 1 3.87141 3.73747 8.02545 -7.19753 -0.820195 -0.0699126 1.88239 
5003 1 3.76741 3.81979 13.609 -7.34393 0.317009 -0.492772 0.335131 
6003 1 3.54192 3.97307 10.8975 -8.40295 1.84999 -0.136386 0.876527 
7002 1 1.16644 1.52732 8.15056 -6.93319 3.20665 -3.08097 2.86362 
7003 1 1.15114 1.04422 13.7131 -7.95918 1.37623 0.985128 1.61345 
8002 1 3.82168 0.996407 8.10167 -7.94953 1.17046 -0.269446 2.02649 
8003 1 4.2677 1.1013 13.7505 -8.17406 -2.12107 -1.16568 1.30571 
9003 1 0.888605 3.93637 10.7722 -7.15426 1.34283 -1.91064 2.33971 
10002 1 1.23172 4.14194 8.08932 -6.27026 -2.18481 -1.6741 1.53506 
10003 1 1.06412 4.09634 13.8126 -7.76548 -0.08943 -1.42311 -0.512904 
11003 1 3.75903 0.868107 11.0366 -8.1478 0.146714 1.58414 -0.475002 
9203 1 6.43629 3.79368 10.9985 -7.41829 -0.297251 0.455793 -0.779548 
4204 1 6.60907 1.26873 16.3673 -8.11481 2.24163 -2.63098 -1.94048 
7202 1 6.64816 1.08799 8.28275 -7.09153 -1.60088 2.19595 -1.83735 
9004 1 1.16973 4.02446 16.6378 -7.36774 -1.52969 -1.54104 -1.11835 
10203 1 6.65187 3.76039 13.6577 -7.46876 0.360083 1.82227 0.228075 
8043 1 3.84978 6.56361 13.7263 -7.00212 0.909392 -0.545138 1.08516 
9204 1 6.46996 4.00426 16.359 -7.49739 1.98693 -0.149743 0.316558 
4203 1 6.4871 1.06906 10.8128 -6.4651 0.601505 1.26551 0.757527 
10202 1 6.36859 4.0756 8.18522 -7.56168 1.31058 -0.614852 0.762051 
4243 1 6.66578 6.47351 10.9462 -7.24577 -0.820045 0.680009 0.849182 
11044 1 3.81506 6.45283 16.569 -7.58278 1.71535 1.37099 -2.37425 
8042 1 3.44677 6.42228 8.16699 -7.56013 3.16689 0.686097 0.960679 
4043 1 1.25792 6.53613 11.004 -7.51538 -0.663181 0.402752 1.02353 
404 2 11.0687 -0.190259 15.0407 -25.5275 -1.12415 0.277538 0.888609 
7203 1 7.01785 1.1338 13.4639 -6.95797 -0.598671 -0.877982 0.968503 
9404 1 12.4129 3.95694 16.4367 -7.4868 -2.07078 -1.1806 -0.236002 
6204 1 9.43829 3.62457 16.5013 -7.99137 -0.33452 1.46553 -0.117947 
11204 1 9.76699 0.914313 16.635 -7.65419 -1.32833 0.77806 -0.458283 
4444 1 12.6446 6.6271 16.45 -7.11456 -4.16319 0.670627 0.540895 
443 2 10.6678 5.36211 9.43452 -23.8201 1.31167 -0.813781 -0.669731 
444 2 10.9463 5.16751 15.1967 -25.3004 1.4527 0.0959647 -2.64437 
1403 2 10.9385 2.53563 12.3875 -24.9838 1.03543 -0.0896598 -0.536315 
2243 2 8.08385 5.18033 12.2463 -24.7463 -1.28299 0.861593 0.323498 
3203 2 8.07847 2.56264 9.54046 -25.1302 -2.71147 -2.38846 -1.15739 
3204 2 8.19447 2.41989 14.913 -24.8602 -1.63232 0.308292 1.13915 
4403 1 12.3515 1.0322 10.8679 -7.45003 -1.35491 -1.07877 1.97203 
5202 1 9.2571 4.17619 7.9876 -7.91263 0.907205 -0.719322 -0.768786 
5203 1 9.498 3.87741 13.8846 -7.70508 -0.284873 0.54912 -2.0593 
6203 1 9.06208 4.12749 10.53 -8.05013 2.56838 0.923258 2.82245 
7402 1 12.388 1.05888 8.23435 -7.61378 -1.17761 0.125733 -2.34204 
7403 1 12.3312 1.363 13.6431 -6.45659 0.543383 -1.35135 -0.726902 
8202 1 9.24718 1.12374 8.19413 -7.37776 2.14848 1.23063 -1.31301 
8203 1 9.59051 1.27197 13.6031 -7.82075 0.514881 -2.17112 0.328298 
9403 1 12.0937 3.81205 10.8748 -7.70606 -1.47106 0.728864 -0.244875 
10402 1 12.279 3.71868 8.07476 -6.87125 -1.54861 0.506445 -0.520802 
10403 1 12.2191 3.96704 13.6508 -6.75555 -0.286407 0.241509 -0.296552 
11203 1 9.66593 1.32717 10.7441 -7.41461 -0.859357 1.22196 1.56293 
7442 1 12.2328 6.64012 7.96465 -7.73386 -0.859718 -0.320893 2.61234 
4404 1 12.3994 1.13551 16.164 -6.83727 1.62106 0.466847 1.60473 
2443 2 13.4439 5.29629 12.1347 -26.6304 2.39344 -0.510453 2.55026 
4443 1 12.1912 6.69871 11.0579 -7.82045 -1.68292 -1.17072 -3.79829 
3403 2 13.5451 2.24323 9.63838 -25.8674 3.4668 4.14953 -1.33681 
8243 1 9.59632 6.45151 13.3493 -7.22669 -0.93315 0.402265 0.3898 
7443 1 12.2459 6.6081 13.7422 -6.44986 -0.487955 1.66849 0.307972 
11244 1 9.84912 6.6093 16.425 -8.03982 -1.43994 -1.08212 -1.24903 
403 2 10.8594 -0.158364 9.46273 -25.6021 -0.201165 -0.271958 3.46387e-05 
11604 1 20.533 1.27299 16.6777 -7.55873 0.301573 -2.0462 -0.519616 
3404 2 14.0362 2.63502 15.0688 -25.6193 -4.80455 -3.51438 1.08724 
6404 1 15.0283 3.98972 16.4454 -7.18854 1.33463 0.359422 1.48174 
6604 1 20.2775 3.89149 16.3271 -6.94287 3.01448 0.518473 -0.0479935 
9604 1 17.7583 4.1106 16.7402 -6.09934 -1.69781 -0.463172 -0.732394 
643 2 16.4781 5.18593 9.38677 -25.4735 0.125533 -2.06602 2.45247 
644 2 16.4003 5.4474 15.1988 -25.8531 0.8794 -1.68814 -1.12806 
1603 2 16.3369 2.55536 12.3205 -26.1577 -0.00317526 -0.443521 -0.075194 
2643 2 19.1383 5.24242 12.1513 -25.0742 -0.385544 1.24584 3.00717 
3603 2 19.1428 2.4211 9.41032 -24.6012 0.669202 -0.518299 -0.0205083 
3604 2 19.1853 2.42051 15.1146 -25.7353 -1.66505 1.8109 0.695699 
4603 1 17.8394 1.23566 10.8361 -7.15682 0.76188 0.286048 0.111002 
4604 1 17.9206 1.15698 16.7291 -7.71964 0.00264087 -1.48204 -1.3341 
5402 1 15.0284 3.79169 8.32484 -6.58156 -0.0183274 -0.541399 -1.52625 
5403 1 14.9606 3.83584 13.7524 -6.64331 2.50774 1.95606 -2.48719 
6403 1 14.8484 3.90758 11.0136 -6.51262 -0.197562 -0.246081 -0.269085 
7602 1 17.8369 1.1437 8.009 -7.13359 1.08187 -2.33841 -0.0277018 
7603 1 17.9671 1.03152 13.8053 -7.18702 -1.06424 0.582522 0.276799 
8402 1 15.2966 1.139 8.14932 -6.76206 -1.83697 -1.64934 0.129569 
8403 1 15.1182 1.1392 13.4215 -6.7097 -0.540002 -1.36578 3.49925 
9603 1 17.5203 3.98236 11.2096 -7.62116 1.8065 0.584302 -2.06648 
10602 1 17.831 3.62391 8.11824 -7.16467 0.0481932 2.76903 1.8249 
10603 1 17.7365 3.97217 14 -6.8468 -0.141122 -0.506395 -0.704285 
11403 1 15.1081 1.13581 10.9986 -6.47604 -0.690386 0.216718 -2.61458 
8602 1 20.5134 0.805154 7.96881 -7.73917 1.7278 0.176453 2.67574 
6603 1 20.442 3.96973 10.9901 -7.99008 0.407386 -1.84875 -2.42732 
11404 1 15.3307 1.1582 16.3328 -7.9539 -1.0151 0.0331159 0.635247 
8603 1 20.5296 1.20949 13.8016 -8.35715 1.73938 -1.81613 -0.525836 
5603 1 20.4594 3.82054 13.619 -7.34375 0.0603676 0.989907 0.00588527 
8443 1 14.9212 6.47389 13.6359 -6.3843 1.50005 1.60999 0.614056 
4643 1 17.6974 6.66138 10.8498 -7.96992 1.33189 -0.83163 -0.549181 
7642 1 17.7873 6.49152 8.03714 -7.62116 1.22145 0.121249 1.13718 
8442 1 15.0643 6.39176 8.50387 -6.7603 -2.08781 2.71598 -2.59608 
9804 1 23.3528 3.76135 16.3905 -7.67414 -0.977987 1.38936 1.01967 
8843 1 26.1444 6.6872 13.7667 -7.3027 -0.684927 -0.0303288 0.390735 
6804 1 26.1511 3.82716 16.4053 -6.98176 -0.715619 0.857598 -1.39684 
4843 1 23.4857 6.58669 10.7332 -7.95038 0.368047 0.356784 1.87303 
804 2 21.9162 -0.131074 15.0736 -24.4082 0.835779 -1.11665 0.812151 
11844 1 26.077 6.69259 16.5547 -7.80873 -0.374898 -0.703878 -0.635347 
1003 2 27.4956 2.55789 12.2642 -25.5873 -1.11923 -0.996199 -0.0774505 
43 2 27.3042 5.16475 9.60302 -26.0202 0.681984 1.6737 -2.14866 
11603 1 20.6901 1.06472 10.9072 -8.43588 -0.91612 1.57781 0.227203 
44 2 27.4581 5.24854 15.2427 -25.5007 0.0525957 0.915201 -0.429139 
5602 1 20.6452 3.65502 8.01328 -7.09829 -0.574069 0.112957 3.59401 
3 2 27.4943 -0.151462 9.39753 -26.2004 0.0070526 -0.712876 2.58889 
4804 1 23.2458 1.22706 16.3431 -7.57581 -0.0097101 -2.04688 -1.62421 
843 2 22.1405 5.2956 9.57187 -25.066 -1.56204 -0.123919 -1.85698 
844 2 21.9147 5.05269 15.1037 -25.2558 -1.4181 2.04767 0.0348098 
1803 2 21.781 2.55685 12.3067 -24.4832 1.17768 -0.320453 -0.317821 
2843 2 24.6662 5.35434 12.4559 -24.6738 1.54292 -0.3795 -1.59369 
3803 2 24.6939 2.33957 9.34564 -25.3457 1.47894 1.14223 0.644726 
3804 2 24.6831 2.39833 14.8974 -25.0109 1.26831 -0.0675639 1.57102 
4803 1 23.4527 1.11945 10.8431 -7.98186 -0.494747 0.552342 -0.877709 
5802 1 26.1018 3.70262 8.21421 -6.98964 -0.196902 1.86847 0.075098 
5803 1 26.1416 3.98645 13.5575 -7.59138 -1.39144 -1.05517 1.35681 
6803 1 25.9677 3.95126 10.9643 -6.93193 -0.579704 -0.0461158 -0.145934 
7802 1 23.5118 1.03323 7.81306 -7.88879 -0.651821 -0.00501685 1.89003 
7803 1 23.3229 0.825994 13.4933 -7.70177 -1.78879 2.45084 1.99788 
8802 1 26.4257 1.18297 8.02224 -6.93248 -3.74836 -2.43874 0.655304 
8803 1 26.0613 1.01816 13.6707 -7.41358 -0.0052816 0.762003 0.568204 
9803 1 23.2857 3.9238 10.8282 -7.55199 -0.661641 -1.11137 1.41796 
10802 1 23.3558 3.78136 7.98896 -7.51396 0.204124 0.381655 0.355253 
10803 1 23.1238 3.57659 13.9022 -8.14706 0.714611 1.03284 -2.8822 
11803 1 26.1814 1.12855 10.8541 -6.80288 -1.06777 0.921752 -0.477565 
11804 1 26.0219 1.28152 16.4682 -7.52781 -0.132735 -1.88032 -0.0464035 
803 2 22.0436 -0.0826222 9.64695 -24.0375 0.268341 -2.68661 -1.36411 
11643 1 20.705 6.61694 11.063 -7.33798 -0.894876 -0.538802 -0.866199 
7842 1 23.4509 6.58914 7.9988 -7.47933 -0.806451 0.782682 0.0668001 
8842 1 26.1153 6.67143 7.84217 -7.09543 -1.26438 -0.828983 1.32192 
8642 1 20.6876 6.60384 8.3319 -7.38305 -0.771492 0.00284842 0.0777745 
7843 1 23.1896 6.53591 13.6905 -7.72734 1.7145 -1.42825 -0.165447 
11644 1 20.7092 6.56052 16.5182 -6.9558 0.86136 0.166052 -0.666297 
4844 1 23.4953 6.61203 16.5051 -7.437 -1.10147 0.240635 -0.440952 
8643 1 20.6193 6.70326 13.7028 -6.95261 -0.821225 -1.25079 0.221034 
3084 2 2.81132 13.4528 15.0694 -24.6512 0.98202 3.16464 -1.26765 
11043 1 3.9616 6.78381 11.1205 -7.65226 -0.391857 0.0541349 -1.25718 
9244 1 6.53777 9.53566 16.6594 -6.60749 -0.268814 0.240095 -1.586 
4084 1 1.25865 12.5385 16.2702 -7.93811 0.472939 -1.01796 1.80875 
7043 1 1.12423 6.99417 13.9474 -7.64484 0.834328 -1.87077 -0.222127 
1043 2 0.0163688 8.06163 12.4678 -25.4793 -3.82649 0.223558 -2.02602 
7042 1 0.902307 6.79783 8.25689 -6.20039 -0.0621735 0.903608 1.5605 
7242 1 6.4224 6.86386 8.15928 -8.01689 -1.63148 0.288849 0.906617 
9044 1 1.17397 9.71049 16.1462 -7.2658 0.570743 0.31651 0.958568 
4044 1 0.982083 6.83761 16.5995 -7.21421 2.31981 -1.19386 -1.28813 
283 2 5.42035 10.9 9.70408 -25.1055 -2.23448 -1.06554 -2.35589 
284 2 5.4957 10.7926 15.2351 -24.832 0.31856 0.812554 -0.707967 
1243 2 5.47412 8.03641 12.3951 -25.3162 -0.890006 0.159942 -0.286203 
2083 2 2.69646 10.9594 12.5035 -24.9096 0.571454 -0.540132 -1.83576 
3043 2 2.4032 7.83857 9.57764 -25.244 -0.148188 0.960558 0.186754 
3044 2 2.56882 8.24004 15.1634 -25.099 -1.62141 -2.63976 0.946078 
4083 1 1.41012 12.281 11.0339 -7.64101 -2.19131 -1.8706 -1.10848 
5042 1 3.70274 9.18468 8.31269 -7.64523 0.983359 0.42505 -0.628555 
5043 1 3.91622 9.19987 13.8787 -7.67555 1.93183 2.79722 -1.3421 
6043 1 4.04995 9.56862 11.1634 -7.30493 0.164328 0.907879 -0.132591 
7082 1 1.11721 12.3857 8.08988 -7.59196 0.665076 -0.59503 1.4557 
7083 1 1.38453 12.4292 13.6187 -7.87864 -0.369396 -0.0136021 1.05731 
8082 1 4.01007 12.1338 8.07893 -6.94059 -0.672401 -0.351437 1.08445 
8083 1 4.26412 12.1073 13.7841 -7.84808 -1.03285 -0.95989 -0.72894 
9043 1 1.03982 9.23755 10.8279 -7.39935 1.32103 0.677062 -1.46115 
10042 1 0.983672 9.6773 7.94984 -7.19546 0.862819 -0.48974 2.10696 
10043 1 1.03899 9.70401 13.4114 -7.27385 1.09523 1.28564 1.56129 
11083 1 3.99693 12.4659 10.8719 -6.85771 -0.218148 -2.39846 0.472032 
6044 1 3.88015 9.37729 16.5516 -7.6273 0.356249 0.81958 -0.0216478 
11084 1 4.31265 12.4987 16.3862 -7.66732 -1.2594 -1.99731 1.24103 
10242 1 6.7288 9.6347 8.05465 -7.70247 -0.422218 -0.377296 -0.0581396 
4283 1 6.58738 12.2174 10.8302 -7.34849 2.27551 0.413538 0.72721 
83 2 -0.159536 10.7752 9.57658 -25.2601 -0.768321 0.295765 -0.13163 
4244 1 7.02331 6.82292 16.5466 -8.06927 -1.07165 -1.17569 -0.573281 
11243 1 9.29574 6.85015 10.6128 -7.85806 1.78436 -0.189623 -0.695075 
10243 1 6.95801 9.42564 13.6512 -7.7377 -1.7353 1.25234 0.412281 
7283 1 7.0134 12.4146 13.6255 -7.27385 0.344625 -0.40113 -0.504426 
7282 1 6.77801 12.2492 7.98182 -7.12348 0.703944 0.116966 1.66853 
9243 1 6.84501 9.39393 10.8493 -7.77254 -0.50263 0.115426 0.17014 
4284 1 6.96033 12.3171 16.4179 -7.38962 -0.578992 -0.401771 1.21238 
8242 1 9.06552 7.07329 7.68088 -7.09257 -0.873876 -2.97613 4.16633 
7243 1 6.76967 6.79619 13.9021 -7.92917 -0.852581 -1.97765 -1.15294 
11284 1 9.54455 12.0213 16.1617 -6.51316 0.57239 0.768743 1.03916 
6244 1 9.18874 9.32394 16.5742 -6.53001 1.32439 -0.693297 -0.577954 
4484 1 12.3573 12.5092 16.1752 -7.44094 0.185287 -3.2951 0.326044 
483 2 10.9609 10.8495 9.63696 -24.8762 -1.07189 -0.406164 -2.01869 
484 2 11.0586 10.7767 15.0386 -25.03 -1.8077 0.427018 2.37268 
1443 2 10.8324 7.98133 12.0161 -24.9557 -1.44744 1.07012 3.33126 
2283 2 8.29404 10.8484 12.3556 -25.3304 -1.59372 -0.196221 1.10093 
3243 2 8.02919 8.24971 9.29043 -25.0588 -0.663982 -0.744688 1.45716 
3244 2 8.2873 8.01291 14.9888 -25.2662 -1.00658 -0.668736 1.89142 
4483 1 12.4654 12.0378 10.8667 -8.04403 -2.95233 -0.057343 0.607774 
5242 1 9.66299 9.37143 8.31137 -7.09119 -0.60951 2.90914 0.558812 
5243 1 9.56641 9.16324 13.8237 -7.07768 2.32237 1.13564 -1.73238 
6243 1 9.58879 9.61363 11.0872 -7.53711 -0.0871806 -0.358214 -0.816568 
7482 1 12.2766 12.192 8.117 -7.33046 -0.393105 -1.76099 0.390395 
7483 1 12.7082 12.5301 13.3342 -7.04565 -0.306558 -0.311591 1.20635 
8282 1 9.63497 12.3359 8.28855 -8.48201 -1.17636 -0.539701 0.689121 
8283 1 9.89431 11.8697 13.6613 -7.22934 -0.642904 2.5811 -2.95219 
9443 1 12.1596 9.3835 10.6504 -7.40219 0.771549 -1.43737 1.98389 