ITEM: TIMESTEP
20000
ITEM: NUMBER OF ATOMS
6912
ITEM: BOX BOUNDS pp pp pp
-2.0648828166251185e+00 4.1269557816625181e+01
-2.0648828166251185e+00 4.1269557816625181e+01
-7.3727047561058505e+00 5.7259371409312330e+01
ITEM: ATOMS id type x y z vx vy vz fx fy fz
5503 1 4.33951 30.4376 -3.34841 1.54649 0.58419 -0.961024 -0.210293 0.0476208 0.243255
2258 1 -0.388285 1.20476 -2.37402 1.62556 -0.747242 0.905658 0.279623 -0.616292 -0.219704
43 1 -0.182283 -0.86062 -0.781548 3.91937 -2.7177 2.75466 0.167874 0.470208 -0.0631014
172 1 2.03409 0.818333 -2.0621 2.45455 0.327721 -5.23061 0.34507 -0.0593041 0.355739
4691 1 2.15006 -0.910042 -0.0925935 -2.69846 -2.24562 0.712683 0.575415 -0.0137133 -0.904838
2238 1 1.29957 -1.64343 -2.64067 0.420874 1.10451 2.8333 -0.694527 -0.275989 0.23618
1591 1 -1.36848 41.059 -2.27938 -1.09109 5.12176 -0.43247 -0.232242 -0.368778 0.001642
193 1 0.551162 1.2254 0.286146 -2.12381 -0.387843 1.9013 0.671579 0.296492 -0.106387
4815 1 4.6549 0.876893 -2.18198 -1.1397 -1.51751 -0.201187 -0.00498756 0.0255321 0.150556
1692 1 6.0909 -1.44676 -2.18012 -2.73867 0.31561 -2.52249 0.622906 -0.222272 0.0401989
1566 1 4.74638 -0.7859 -0.186873 2.13667 1.4862 -5.87122 -0.254714 -0.268232 0.182103
297 1 6.08099 1.35842 -0.116318 1.56548 -3.83346 0.704294 -0.0274481 -0.0113433 0.265604
6262 1 3.67433 -1.53537 -2.48161 -1.99712 -1.92272 -1.89263 0.200106 -0.0787767 0.554683
103 1 3.26496 1.3819 0.107183 2.75806 -0.0411004 -1.13613 0.18384 0.0424835 0.0222808
141 1 8.65282 1.61878 -0.283211 1.50701 1.70604 1.59107 -0.069929 -0.62248 0.118205
139 1 7.59296 -0.753749 -0.207022 0.346666 2.20641 2.26104 -0.342467 0.0851603 0.0922772
6394 1 8.70753 -1.4185 -2.2395 0.511552 -1.90208 3.89767 0.384072 -0.547164 -0.189797
4811 1 7.44345 0.80513 -2.37243 0.450201 1.19225 -2.56529 -0.333734 -0.267752 0.307584
131 1 10.2303 -0.994473 -0.176678 2.40179 1.68279 0.261391 -0.416733 0.0973329 -0.310948
198 1 10.0105 0.802348 -2.15468 0.372968 0.143581 -3.24207 0.712813 -0.248963 0.0943471
6363 1 11.6305 -1.57525 -2.13047 -1.2074 3.35232 -0.03296 0.110449 0.2852 -0.0778446
291 1 15.0586 1.58417 -0.717226 -0.0188584 -0.917504 -3.73632 0.168812 -0.757257 -0.338573
1818 1 14.2541 -0.452488 -2.32222 1.45906 -0.105613 -4.05049 0.567811 -0.662579 0.226382
292 1 12.7844 -0.119988 -0.273846 -0.862383 -3.2821 0.317351 -0.670691 0.0379054 -0.0843859
129 1 12.8438 1.43445 -2.14428 -2.68112 -1.62454 0.180409 -0.38172 1.11764 -0.0958733
289 1 11.2672 1.94706 -0.210241 0.376164 0.615982 -0.617725 -0.0889073 -1.01536 -0.0355745
260 1 16.7607 1.36091 -2.73849 -1.01478 0.963595 2.66302 -0.048521 -0.0994661 0.605591
1854 1 18.6503 0.85636 -0.982052 1.52786 1.06657 -4.54569 0.0283996 0.0324942 -0.165304
4836 1 16.5392 -0.748767 -1.04703 -1.24814 -0.330999 -2.26305 -0.231035 1.03366 -0.526699
1747 1 18.4079 -1.32669 0.400283 0.393394 -0.793247 -1.45331 -0.422165 0.61637 0.361497
112 1 -1.2525 2.71648 -0.760197 -3.00236 -1.81336 -2.56496 -0.427232 0.400866 1.21801
695 1 1.22173 3.21513 -1.1406 -0.263625 0.792915 1.15342 0.293303 0.136585 0.0563721
22 1 1.35906 5.26144 -2.82786 1.26269 1.10869 -1.07365 -0.347367 -0.0572616 -0.290144
31 1 -0.432253 5.27735 -0.945262 -3.57518 2.28653 1.76551 0.605259 -1.08299 -0.353778
5366 1 -0.668032 3.66836 -2.93657 -1.35501 -0.627438 0.161324 -0.0692943 0.338925 -0.143596
203 1 3.01429 3.04047 -3.03145 -2.77807 -0.899563 0.111643 -0.219143 0.003872 0.276125
91 1 4.53995 3.25758 -1.02769 2.11303 0.29828 -0.0284066 0.0280228 -0.298834 0.306463
2294 1 6.20273 2.89213 -2.83199 0.759903 -0.781841 1.02652 -0.00243885 0.100941 -0.207727
268 1 5.70811 5.52177 -0.802514 -1.80596 -4.88422 -0.31233 0.215062 0.365166 0.798092
809 1 3.00446 5.19556 -1.10568 -4.98077 2.76879 1.05618 0.185067 0.582634 0.374032
54 1 4.72259 5.00868 -2.90039 0.911765 -3.00379 1.4857 -0.243657 -0.0993674 -0.712611
201 1 2.84987 3.82472 0.880889 3.91303 -0.47152 0.134912 0.195892 0.40651 -0.548782
132 1 7.29705 5.29715 -2.74494 1.82526 -2.92012 -0.05472 0.405095 -0.364573 0.279405
26 1 7.19243 3.53803 -0.638595 -1.81029 -1.08379 -0.636481 -0.383257 0.339631 0.0414397
4850 1 8.80424 3.06607 -2.40633 -3.07856 0.528862 -1.65565 0.343503 0.327366 -0.179131
4856 1 9.83399 3.87587 -0.179434 -0.435306 -1.47244 -1.88201 -0.0651305 0.353303 -0.250053
39 1 8.20447 5.86343 -0.392282 3.48628 3.16807 -2.8992 0.219357 -0.202386 0.416703
4977 1 11.5208 3.61508 -2.03323 0.383808 -2.80364 -0.399456 0.0306365 -0.251488 -0.494518
304 1 13.4143 3.43675 -0.408687 2.18098 -1.64849 -1.93467 0.251268 -0.28847 -0.545564
4861 1 13.5302 5.28177 -2.44303 1.69915 0.187496 -0.107958 0.219232 -0.106509 0.583687
257 1 11.9262 5.3967 -0.340888 -1.79851 1.58681 -0.893577 -0.0675024 0.299879 0.0967176
269 1 15.084 3.29263 -2.60665 -2.00065 -0.728134 0.610802 0.0410714 0.0571081 0.525642
334 1 15.5388 4.86872 -0.459273 -2.54738 4.02687 -1.08504 -0.0335431 0.641474 -0.703029
4968 1 17.3623 3.08551 -0.583851 -1.41269 -2.25605 2.27196 -0.571611 -0.504978 -0.228646
4822 1 18.9014 2.90052 -2.61732 2.02782 -0.530161 0.362762 0.222632 -0.107841 0.268274
444 1 17.3652 4.89583 -2.33948 2.28929 1.69227 -0.103463 -0.553039 -0.254239 -0.286839
279 1 19.2985 4.6446 -0.651225 -1.08414 -3.46851 -0.0662656 -0.255182 -0.743447 1.04389
50 1 1.11692 7.41157 -1.45145 1.23833 1.52766 -1.34057 -0.506503 -0.331294 0.101587
646 1 -0.623682 9.28281 -2.67529 0.67162 -1.6729 3.40176 -0.419738 0.170521 -0.426232
807 1 0.149053 9.55881 -0.377974 2.0756 -1.56755 -0.640484 -0.681982 -0.405001 0.0171467
8 1 -1.60082 6.99007 -2.36926 2.135 -2.65014 -0.182246 -0.231951 -0.0927372 0.0614245
83 1 -1.02957 7.26947 0.109258 0.780775 1.73583 0.765608 -0.143805 1.11118 0.645694
838 1 2.48789 8.73343 0.184995 1.11146 3.4829 0.93127 -0.606375 -0.284905 -0.171841
57 1 1.39991 6.17543 0.713491 -1.244 -2.5131 0.105279 0.0982622 0.0163647 -0.137424
567 1 3.24077 7.15242 -2.84126 -0.840375 0.0774639 -3.1905 -0.317632 0.0588441 -0.275317
158 1 5.85342 7.36437 -2.74306 -0.597023 -1.84681 0.295468 0.0466429 0.266749 0.409407
177 1 4.20971 9.57097 -2.34692 -1.40251 0.307793 -4.53764 0.641655 -0.709942 -0.387065
23 1 4.32639 7.5143 -0.738233 3.11153 0.0322617 1.1678 0.053503 0.589889 0.272655
4859 1 10.1521 5.6436 -2.0535 -0.0136222 2.57211 0.552896 -0.55219 0.107533 -0.221883
214 1 6.74309 7.91799 -0.19724 0.668605 2.23396 -1.10152 0.00279572 -0.15786 -0.323389
4819 1 8.4815 7.59441 -2.05472 1.82193 -2.06854 -0.2404 -0.193953 0.320872 -0.200874
178 1 10.4375 7.43788 -0.286214 2.81848 3.72795 -3.48689 -0.156819 -0.284029 -0.0239361
937 1 10.4098 9.24546 -2.07937 1.15195 -4.58582 2.1658 0.633144 0.190914 -0.00454754
59 1 8.87621 9.4289 -0.189611 0.111817 1.02628 0.619994 -0.313739 0.387669 -0.14484
1026 1 12.1561 7.33915 -2.2606 -2.62767 0.698434 -1.66413 -0.0943782 0.124929 0.196539
56 1 13.9326 6.9804 -0.425189 1.75491 2.35839 1.38771 0.278114 -0.0899631 -0.346148
159 1 14.2825 9.01173 -2.12347 -1.42785 -0.0998454 -1.0011 0.0197877 -0.225203 -0.10098
4973 1 12.4001 8.92765 -0.304365 -7.3558 1.24164 -1.21629 0.0329949 0.364055 0.328108
4848 1 15.6786 6.92733 -2.21249 -0.659842 -2.43478 1.79568 0.257195 -0.625113 -0.091398
393 1 17.9184 8.39079 -2.20743 3.00085 -2.97904 2.24677 -0.707283 -0.063324 -0.131353
465 1 16.112 8.54924 -0.410807 2.00826 1.60961 -0.700281 0.272518 0.554124 -0.190733
411 1 17.6933 6.48366 -0.51943 -0.503616 1.63876 -2.79435 -0.570535 0.516491 0.529377
286 1 19.4226 6.37371 -2.326 -0.298662 -1.9644 -2.39212 0.200924 0.416883 -0.539586
5602 1 -0.064216 11.786 -3.53232 1.67622 -0.587246 -2.51093 0.33998 -0.371596 0.441482
4849 1 1.75041 9.59441 -2.36482 0.263222 -1.92508 5.19208 0.379263 0.231389 0.319147
18 1 -1.50815 11.3989 -1.43635 -2.12277 1.70579 1.34727 0.0436725 -0.024475 -0.473125
4734 1 0.907596 11.8224 -1.02751 -2.77544 -2.67956 -2.52691 0.223531 0.320298 -1.36599
5601 1 5.27467 9.98552 -0.0932205 2.29829 3.37264 -0.759788 0.124082 -0.288936 0.171651
5418 1 2.8249 11.777 -3.05916 -1.1777 2.34498 2.30929 -0.28187 0.0355417 -0.35335
5477 1 3.70232 13.4028 -1.43008 0.988746 0.343329 3.28325 -0.293204 0.628086 -0.204121
5478 1 5.64255 13.2672 0.0243833 -0.111026 1.28093 0.737749 0.35268 -0.0139196 0.368556
2 1 5.4306 11.8357 -1.93422 -0.0362246 0.971072 -0.904956 0.454115 -0.470777 -0.409612
185 1 3.20348 11.0574 -0.771801 1.0112 0.609336 0.742604 -0.201377 0.0999513 1.20076
4735 1 6.84855 9.67105 -2.00037 -3.58527 -1.59095 4.21923 0.238811 -0.126212 -0.0905254
949 1 8.92598 11.2804 -2.03006 1.87169 -0.906982 -0.27205 0.0595152 0.194037 0.253377
153 1 7.2836 11.4352 -0.192146 3.00807 -0.895379 2.32464 0.333652 0.20628 0.281337
4972 1 10.8237 11.1221 -0.066463 -1.60783 -0.327393 -1.93697 -0.135443 -0.564695 -0.445783
1060 1 9.37915 13.0671 0.136251 -1.6453 1.76507 -1.86999 -0.247127 0.569403 -1.32094
1029 1 10.9853 12.8156 -2.04405 -1.53468 1.4671 3.16441 -0.718531 -0.103727 0.45063
5733 1 12.5859 10.8252 -1.84359 -1.36697 -3.16561 -4.05731 -0.265158 0.122871 -0.415563
266 1 14.6756 12.342 -2.13258 0.790578 1.61213 4.08555 -0.112409 -0.194887 0.408868
288 1 12.8413 12.5651 -0.0780262 2.87523 1.43174 -0.496398 0.0179549 -0.0416247 -0.27834
1065 1 14.4944 10.5294 -0.179005 -2.4303 3.29254 -0.933307 -0.0503284 0.404682 -0.164103
190 1 16.56 10.5572 -2.13139 -1.03688 1.63719 -0.247732 -0.769996 -1.05018 -0.112517
1072 1 18.9209 11.0009 -2.74995 2.89661 -1.48127 0.224412 0.117634 0.142808 -0.0731783
150 1 17.0889 12.9355 -2.53648 -1.83746 -3.35621 -3.04919 0.388789 0.510466 -0.370721
1057 1 18.3088 10.0267 -0.380061 1.61403 -2.03116 0.261399 -0.170213 0.372925 0.129049
1155 1 19.0436 12.4304 -0.77356 -1.85674 -1.23106 2.18542 -0.0607628 0.0583176 -0.124496
1033 1 16.6506 12.0933 -0.3119 -1.49694 -1.06473 1.61168 -0.598742 -0.325346 0.626658
1461 1 -0.628096 13.8074 -1.1168 -1.35711 -1.07466 -2.71688 0.917602 -0.281697 0.198544
801 1 1.70133 14.0983 -0.379168 0.958075 1.1425 0.58876 -0.234634 -0.175066 0.362503
5552 1 1.22365 13.8451 -2.84172 -1.40215 1.67787 -4.74673 0.180627 0.201905 0.229102
1422 1 -1.08486 15.1793 -3.14506 -0.0481574 -2.46457 0.475605 -0.282728 -0.126265 -0.47597
815 1 0.278214 16.0648 -1.3878 0.860658 -1.91869 1.44666 1.23377 0.251219 0.384783
30 1 5.493 15.1785 -1.92827 1.55995 -1.66957 3.30931 0.0800181 -0.389967 0.0724666
315 1 2.95096 15.9394 -1.71583 0.169174 0.213227 0.466343 -0.0419815 -0.169374 0.204109
773 1 5.13105 16.8788 -0.271838 -1.21905 0.628453 -0.613842 0.415508 0.890791 -0.443651
4732 1 4.06069 14.9634 0.580293 -2.25942 0.0448957 0.232015 -0.521313 0.0365755 0.307803
933 1 7.6264 13.7067 -1.65763 0.368937 1.98815 -0.521404 0.238937 -0.197258 0.258525
5611 1 7.83129 16.3633 -1.96719 -1.56861 -1.21357 -1.31034 -0.826552 -0.28721 -0.653268
775 1 7.09302 15.2157 0.402204 -0.684195 -3.21774 -0.892268 0.186746 -0.198419 -0.53249
935 1 7.51038 17.6576 0.0918232 0.844553 -1.60078 2.28764 0.347294 -0.198764 0.443592
154 1 9.34338 15.9909 -0.164794 0.132358 0.712494 -3.74514 0.144052 -0.0303461 0.768575
4985 1 12.9386 14.179 -2.14956 -1.4866 -4.57069 1.24523 0.668747 0.68525 0.526521
1163 1 11.3222 14.638 -0.103214 -1.11099 3.00778 0.0590563 0.741065 -0.333975 0.14638
902 1 10.4342 15.5202 -2.31159 -2.1293 1.43184 -0.17679 -0.181016 -0.26031 -0.192492
970 1 13.8149 16.4355 -0.373546 -2.33321 -1.64043 1.38451 0.858289 -1.40579 -0.362838
5739 1 12.755 16.6315 -2.76709 2.90404 -0.498088 1.59073 0.171273 0.106913 -0.0790547
5741 1 14.8885 13.9718 -0.205574 2.39673 -1.47391 -0.0343827 -0.454766 0.193925 -0.224646
1040 1 15.4218 15.5265 -2.22238 0.868893 0.313759 -1.37241 0.0426414 -0.270941 0.35855
314 1 17.2694 14.5301 -0.517902 2.25293 3.77286 2.3104 0.458754 0.693218 -0.542205
1045 1 17.7908 16.8415 -2.13793 -0.490857 -3.15952 1.02347 0.300225 -0.0293395 0.292732
1182 1 16.5115 17.0812 0.0562788 -0.51911 -1.1962 1.62563 -0.0302353 0.188314 -0.208173
5738 1 19.1295 14.4316 -2.31607 2.74388 2.08883 0.653143 -0.754759 -0.161893 -0.174793
1300 1 19.2446 16.4001 0.05771 0.260594 1.00661 0.148589 -0.445701 -0.234907 0.0346015
939 1 -0.825478 18.1139 -0.782329 0.184242 2.32446 -0.529956 0.136367 0.112691 0.0875693
1454 1 1.17846 18.3915 -2.4173 0.696175 -2.05409 3.52043 -0.674148 -0.278286 0.180503
5482 1 0.457093 20.3169 -0.626248 0.50575 0.876738 4.24826 0.177261 -0.519065 0.459989
816 1 -1.36183 19.9201 -2.55004 2.19546 3.41766 -1.19864 0.298375 0.0589326 -0.0931049
804 1 -1.78946 21.4933 -0.627071 -1.27534 -2.52691 -4.00983 -0.0566176 0.465538 -0.284411
5605 1 4.62303 18.1585 -2.44449 -0.834223 -0.285114 4.28174 -0.178726 0.0173481 0.592614
905 1 2.64413 18.0595 -0.421911 -1.43064 2.91387 0.799933 0.249377 0.630218 -0.730873
5495 1 2.70766 20.2559 -1.93358 -0.457747 -0.686848 2.43305 0.603921 0.438111 0.290053
769 1 5.33207 20.6731 -2.78817 -0.436346 2.10919 -0.0313553 -0.242389 0.286654 0.299367
908 1 7.00768 19.1574 -1.6926 -1.11712 -2.64622 1.5724 -0.254867 -0.254777 -0.412728
915 1 5.04007 19.623 -0.0716352 5.83219 0.588829 1.01223 -0.0776307 -0.51023 -0.075157
907 1 9.45943 18.1484 -1.57948 0.206617 -0.154713 1.64623 0.350931 0.620273 -0.273196
5737 1 8.37199 20.0623 0.189894 1.17591 0.34324 1.73962 -0.180045 -0.387679 0.858237
5632 1 8.9716 20.7587 -2.1825 2.06203 4.80861 -0.33871 0.20366 -0.408039 -0.306762
1036 1 11.5756 17.114 -0.70249 4.28593 2.49153 -0.642382 -0.960765 -0.0874582 0.115516
5716 1 13.9343 17.6882 1.61163 0.752769 0.403731 -2.23396 -0.0620667 -0.292492 0.774843
1157 1 11.8731 19.1902 -2.45188 0.901269 0.23011 -2.39938 -0.263454 -0.0676528 0.129176
1817 1 13.1548 18.8289 -0.398501 -0.990604 -0.623678 -3.70358 -0.237753 0.997501 0.521289
911 1 10.6931 20.1573 -0.382343 -1.71454 -2.88303 -0.648578 1.19131 0.207329 -0.708319
921 1 13.2775 21.2101 0.532342 -3.47418 -3.15817 -1.06617 -0.00232841 -0.766514 0.176534
1795 1 14.8677 18.0035 -2.03204 0.841305 -2.69969 1.55098 0.479196 0.234284 0.185221
5606 1 14.5215 20.5558 -1.62239 -0.623508 0.34279 -2.51888 0.0452456 0.0668224 -0.148108
5860 1 17.1656 19.4469 -2.38021 1.19889 0.968634 -0.321274 -0.0129686 -0.0432052 0.694381
1224 1 15.4033 19.4854 0.470464 0.803023 -2.90495 -0.636463 0.437694 -0.115552 -0.275166
1227 1 18.4088 18.899 -0.14523 1.40365 -2.83702 -1.0224 0.116644 -0.43568 -1.00371
2689 1 19.5631 0.707027 16.1772 -0.458935 -1.76296 -2.00795 0.0148996 -0.869492 0.0270742
6557 1 16.394 37.0049 24.858 -2.2828 1.06113 4.5577 -0.003488 -0.186963 -0.167437
5580 1 0.234505 22.0141 -2.32365 -1.16604 -0.924708 0.313018 0.106239 0.523499 -0.0967479
859 1 -0.0864143 24.2204 -3.69897 1.12847 0.294027 -1.51207 0.462823 -0.268031 -0.393276
5612 1 1.57009 24.4995 -1.8538 1.08395 1.5391 -5.08526 -0.289918 -0.148786 0.136179
923 1 -0.477035 23.6474 -0.456836 0.991575 3.85093 1.58866 0.73693 0.159139 -0.434869
960 1 1.9588 22.375 -0.340667 -1.1519 4.71035 1.08454 -0.550604 0.168911 -0.614206
5627 1 4.36505 21.8893 -0.703373 -1.94665 0.260804 -0.15768 0.416629 0.0720845 0.148416
798 1 3.53548 25.551 -3.19118 2.23384 1.95977 -3.41136 0.142889 -0.0645332 0.150928
918 1 3.31119 22.9824 -2.6062 2.27749 4.51406 3.20092 -0.53836 -0.24394 -0.0710238
5484 1 3.67204 24.2645 -0.0534645 -0.272361 2.95909 1.38908 -0.150321 0.047122 0.308553
793 1 6.24786 23.6897 0.205278 3.08349 4.20844 0.0968313 -0.285901 -0.0278306 -0.30049
913 1 5.6857 23.5253 -2.53521 1.43801 0.781807 0.504406 0.453274 -0.243515 0.621984
942 1 6.92252 21.5693 -0.918335 2.71685 2.4916 0.108663 -0.630729 0.814497 -0.283305
1049 1 9.22938 22.953 -1.16955 -0.802527 -0.610739 -1.91323 -0.0325571 0.0680178 0.763307
6372 1 8.10854 25.2541 -1.34092 -2.80438 1.67049 0.47529 -0.274622 0.0890334 -0.157651
5622 1 10.2852 24.8449 0.338577 -2.85862 -4.24235 -4.35701 -0.278977 -0.0431811 -0.313249
919 1 11.983 21.8964 -1.68087 -1.06554 -2.32683 1.22797 0.189231 -0.184053 0.0468968
5593 1 11.0583 24.2541 -2.27247 4.55932 -0.161809 1.32298 0.223523 0.56287 0.695653
1086 1 13.0131 24.2693 -0.218464 2.91305 0.496509 1.81357 -0.579046 -0.258525 0.0195971
5727 1 15.0164 22.7287 -0.341465 -1.14454 1.4737 1.6678 -0.0706795 0.272974 -0.124989
822 1 17.0656 21.303 -0.332011 -3.48356 0.110628 0.55365 0.203409 -0.655433 -0.754645
1087 1 16.4678 24.6014 -1.39041 -2.52029 0.186724 0.0137834 0.0597254 0.111583 0.337003
6596 1 18.7117 25.4142 0.440844 -0.438946 -4.1188 -0.802036 0.836783 -0.245345 -0.677389
1050 1 18.7001 23.4483 -1.07108 -0.595523 -1.88818 0.959729 0.503418 -0.117954 -0.395301
5492 1 -1.8927 27.8795 -0.175413 1.18009 -3.26558 -0.292493 -0.330696 -0.343159 0.468305
1467 1 -0.876243 25.551 -1.85907 -0.0175652 -1.44774 -0.352474 0.355029 -0.0130836 1.08348
5491 1 1.12646 26.6435 -3.19332 -5.3479 0.169711 -1.66056 0.55482 -0.343515 0.209376
1549 1 -1.05358 27.6187 -3.03307 1.87421 -0.340109 0.607979 -0.0204723 0.634242 0.0693573
1583 1 0.423714 27.3567 -0.710284 -0.560204 -4.28171 -1.32656 -0.0762374 0.0398468 -0.411851
1542 1 2.02061 28.9091 -2.20094 1.43429 -1.83649 -0.448658 -0.538925 0.108892 -0.0110662
6859 1 -0.532351 29.7329 -1.70485 -0.222646 -1.34182 -3.92937 0.0829725 -0.588666 -0.369529
953 1 5.28583 25.6732 -1.23625 0.296565 -4.82318 -1.02476 0.16452 0.616544 -0.184724
1553 1 2.23825 28.7626 0.273166 0.464149 -2.96089 3.09562 -0.151083 -0.554979 -0.117859
1669 1 2.75544 26.6102 -1.07629 -2.67736 -0.716483 -0.499008 0.45693 0.18215 0.134994
1672 1 4.31559 28.0774 -2.49406 -1.19334 -2.35009 1.17276 0.646454 -0.51055 0.158778
6243 1 4.55196 28.1039 0.00900172 -1.91839 1.93702 2.18648 0.746829 -0.608022 0.0717918
922 1 6.99911 27.5637 -2.77967 0.357163 1.27876 0.659064 -0.155748 0.109238 -0.301878
924 1 8.66541 29.1192 -1.47803 5.11453 0.182704 -0.421485 -0.0977767 0.3085 -0.19539
1675 1 9.34022 27.4248 0.131742 -1.03224 0.52178 -2.77771 -0.597407 -0.703062 -0.334874
5597 1 6.92869 27.5344 -0.410166 1.15152 1.47374 0.010575 0.0623546 -0.619221 0.797618
5624 1 9.77509 26.9062 -2.30846 -0.288791 0.290323 2.45918 -0.292677 0.095832 -0.256449
5748 1 11.1571 28.9038 -1.35157 -1.66451 -1.35778 -3.18644 -0.0597492 -0.476279 0.759517
5753 1 13.4597 28.2557 -1.91934 0.906372 -0.56553 0.139035 0.226812 -0.284758 -0.149442
5592 1 11.6761 26.4321 -0.861936 -1.12478 -1.24245 0.339392 0.641517 0.190704 0.114341
1805 1 14.3653 25.9602 -1.27221 -1.73695 4.10103 0.894659 0.0528062 0.544268 0.0710273
6470 1 14.8253 28.2091 0.188649 2.01234 2.24121 0.988224 0.505328 -0.279105 -0.488163
5754 1 16.1516 27.6823 -2.1318 -0.860602 1.24626 0.372238 -0.401444 0.111472 0.0920963
5760 1 18.344 26.2204 -1.99635 -1.70732 -0.952598 -1.51389 0.157651 0.1675 0.323988
1838 1 18.1898 28.7171 -1.01986 3.4395 -5.00852 1.25726 0.47933 -0.0392941 0.255471
6655 1 16.9299 26.8923 0.157358 1.1131 2.22661 -0.286762 -0.438782 0.100059 -0.0908555
6242 1 1.52304 31.0231 -0.788725 -0.911843 -3.39772 -5.14215 -0.754411 -0.25425 -1.58766
1573 1 -0.985539 31.852 -0.679268 -0.0178874 2.34155 1.82964 -1.01615 -0.557395 0.592042
6210 1 0.426043 33.1426 -2.04876 2.26294 0.385247 0.308897 0.497099 -0.0176102 -0.723486
1559 1 0.759975 32.8839 0.588349 2.73988 4.53595 2.59471 0.23406 0.369164 0.112828
6256 1 3.83118 30.1932 -0.870688 -2.45466 -1.53402 3.65377 0.285322 0.914405 -0.479642
1082 1 5.50759 32.1239 -0.181966 -0.913588 0.467527 1.16354 0.131427 -0.574214 0.754417
1550 1 6.18418 29.8237 -1.56956 1.52657 -1.77 -2.88097 -0.190697 -0.155067 -0.0200455
990 1 3.16251 32.4809 0.283432 -1.91931 3.62243 1.10993 0.384509 0.196736 0.221783
1710 1 5.75297 32.2726 -2.47169 1.3798 -3.64871 0.58863 0.315258 0.291319 -0.779559
6890 1 2.93838 32.5703 -2.24078 0.429507 -4.31059 -2.05658 0.311709 -0.202363 -0.00977293
6343 1 7.80819 30.8869 -3.17616 -0.436734 1.06075 -2.21929 0.087116 0.0889603 0.405855
1843 1 7.94797 31.3091 -0.38336 2.34233 -3.10323 1.21439 -0.398183 0.559815 -0.588148
1807 1 10.3782 30.6287 -2.7872 1.2569 2.65724 -1.37068 -0.710722 0.464238 -0.180496
1685 1 9.36474 32.758 -1.76916 2.52157 -1.26767 -2.61752 -0.159984 -0.377219 0.108808
6500 1 10.5858 31.1176 -0.218723 -5.16429 -0.00795297 1.23656 0.485182 0.171344 -0.413068
6498 1 12.8054 30.6999 -2.51276 0.988074 -1.29128 -0.429796 0.726789 0.0478723 0.229101
1834 1 13.1136 29.8699 -0.0814616 2.4084 1.46879 1.14192 -0.962912 0.564017 0.320859
1711 1 11.8799 32.8421 -1.51384 -1.18461 -2.93777 -0.814679 0.528134 -0.393195 -0.427128
6513 1 14.3827 31.997 -0.968371 -2.94623 1.04954 0.292572 -0.0833674 -0.33847 0.376815
1956 1 16.0598 30.07 -1.13937 -0.38629 -1.92565 0.332092 -0.184348 -0.150065 -0.354079
1835 1 15.5853 31.6735 -3.17821 -2.32425 -1.08932 -1.30184 -0.115719 -0.177955 0.452011
1930 1 18.1204 31.2887 -2.09736 4.45059 0.710131 1.91898 -0.554856 0.163449 0.335129
1055 1 16.7148 32.1755 0.0799183 -4.55294 -3.34688 2.4649 -0.464157 -0.107089 -0.383665
6828 1 1.9337 34.891 -3.26488 -1.91916 0.764454 -1.14719 0.19891 0.0658218 0.413975
2240 1 -0.592864 35.3887 -3.21716 1.12197 5.94419 1.70725 -0.00799503 0.172608 0.194187
6260 1 -0.580157 34.8539 -0.564261 1.01739 -3.4001 4.34828 0.207963 -0.528378 0.374414
1694 1 1.96599 34.5038 -0.735183 0.775365 2.76108 -1.33842 0.411559 0.0914156 -0.0310049
6874 1 0.872178 36.5786 -1.52667 1.23871 -1.69236 -1.90234 0.183882 0.317469 -0.204749
6907 1 -1.73158 36.8228 -1.37497 0.856475 -0.455386 0.172209 -0.182156 0.0911566 0.365502
1560 1 6.1078 36.9325 -2.35815 1.06518 2.96106 2.53893 -0.26544 0.271169 -0.0528915
1537 1 3.4395 36.8205 -2.06031 -0.740738 -2.19472 -0.452073 0.265073 -0.718845 0.167858
1828 1 4.71334 34.3385 -1.43683 0.0251593 -0.743268 -0.445368 -0.842503 -0.259893 -0.119805
1557 1 6.14704 35.756 -0.219106 2.18417 -1.36367 -0.0205028 0.451183 0.461937 0.887074
6355 1 3.49915 35.9343 0.401314 -4.50266 1.61466 -3.44241 0.22703 -0.0612598 -0.548783
1544 1 7.42839 34.2662 -1.83046 -0.6722 1.52621 0.478667 -0.468735 0.0314811 -0.363206
1717 1 8.58805 37.0086 -2.24533 2.55413 2.81909 1.50841 0.108541 0.0299175 -0.196419
1674 1 8.73611 35.5902 -0.186447 0.887102 2.33775 -3.21238 -0.182968 0.511135 0.765035
6399 1 10.3789 35.0296 -1.80661 1.10337 -3.50804 -1.11334 0.44599 0.010619 -0.33022
6490 1 13.4969 36.8897 -2.3105 3.38825 3.50194 1.31169 0.660875 -0.248539 0.385042
1831 1 12.6329 35.0341 -0.693648 3.76876 -1.50376 -0.897377 0.275534 0.579321 0.50687
6486 1 14.122 33.9275 -2.46862 1.08473 1.76126 -2.62569 0.157697 0.226992 -0.224968
1812 1 14.4138 36.7037 0.366178 -0.878692 -2.55423 -1.03878 0.730081 -1.04276 -0.294083
1810 1 18.8348 33.2154 -0.289212 1.62622 1.42678 0.875758 0.79669 -0.123793 -0.442469
1948 1 15.9245 36.1696 -1.77344 -1.43768 -4.05156 -1.73472 -0.516661 -0.5515 0.338628
6487 1 16.9215 33.5359 -2.07643 -1.47129 0.927248 -1.9354 -0.214756 0.408245 0.321413
5093 1 18.3354 35.6017 -1.58394 2.48334 1.52206 -2.6409 0.0975923 -0.154099 0.149301
1813 1 16.962 35.7497 0.502124 0.157928 0.15191 2.43616 -0.120124 0.917899 0.002323
2671 1 15.8945 39.2201 20.7168 -0.205939 -3.29834 -3.5757 -0.753551 -0.623568 0.204604
1632 1 2.28711 37.997 0.024197 -0.210611 1.23528 -0.772245 -0.362958 -0.375963 -0.146229
656 1 -0.421503 38.6618 -2.46701 -2.41831 -4.12277 0.988516 0.148479 0.200626 0.127328
1594 1 1.15452 40.1359 -0.587156 -0.547645 -0.259456 0.0440092 0.15114 0.703976 -0.182108
2226 1 -0.189304 38.2538 0.0262155 0.883524 2.15495 1.16911 0.0833175 -0.549492 0.486526
1562 1 -0.753737 40.6431 0.656849 0.357526 1.2761 2.03208 -0.284572 0.00292186 0.571381
1629 1 4.85876 37.8898 -0.289277 -1.93708 2.18462 -2.03399 0.16111 0.452456 0.335056
6259 1 2.08435 38.8228 -2.30965 1.42701 1.37685 2.33366 0.421277 0.180694 -0.758112
1716 1 4.96022 39.3882 -2.47791 -3.36464 -1.23737 -0.294053 0.0506969 -0.0714329 0.249195
1753 1 3.63356 40.0448 -0.513893 -2.72108 0.361937 0.882993 0.0425406 0.733783 0.387591
1684 1 6.21291 40.3136 -0.149369 3.71643 1.85094 -1.47894 -0.725393 -0.0409944 -0.775558
1713 1 7.32778 38.0748 -0.288 0.185578 2.43642 2.99647 -0.078191 -0.55537 -0.329305
1597 1 7.54629 39.4643 -2.42431 -1.92134 -2.56224 -0.289333 -0.522546 0.154589 0.28906
1690 1 10.0294 39.6087 -2.46291 4.08059 -0.173656 0.857334 0.132607 0.199346 0.278252
173 1 8.7068 40.1829 -0.275704 3.09472 -1.03695 3.39395 0.0244257 0.715805 -0.297755
1627 1 9.81802 38.0295 -0.352726 1.23618 0.813155 0.933264 -0.217442 -0.404543 0.667117
1720 1 11.139 37.3967 -2.21196 -0.384483 3.95852 -1.541 -0.254261 -0.40586 -0.714835
1678 1 12.285 37.6971 -0.109056 -1.21985 -0.942957 0.466028 -0.229593 -0.517194 -1.03963
1913 1 12.7556 39.4157 -2.1959 -0.315798 -2.68477 -0.43698 0.298698 -0.137158 -0.0140192
261 1 14.8446 38.6867 -0.866046 0.240199 -1.1968 -3.31199 -0.173255 0.068126 -0.682174
1723 1 11.3186 40.1008 -0.304863 1.15447 -0.760164 -0.448809 -0.0564589 -0.287464 0.588364
1905 1 13.7986 41.0163 -0.46022 -1.84514 1.92154 0.122991 0.549098 -0.515919 -0.506524
136 1 15.3897 40.6021 -2.45266 0.252594 -0.103852 0.359775 -0.42536 0.133978 -0.099306
309 1 16.201 38.239 -2.95528 3.8419 -0.335272 0.216852 -0.294267 0.298695 -0.445108
1852 1 17.8465 40.0832 -2.35875 2.64684 -2.03311 -2.82531 0.545365 0.223467 0.105856
258 1 17.3239 38.1137 -0.737111 1.64306 0.920198 -0.906636 0.325047 -0.767166 -0.0956931
609 1 18.6841 37.6965 -2.9299 -0.129944 -0.0761179 -2.73143 0.140441 -0.0423592 0.130426
1816 1 16.5143 40.355 -0.270529 2.33044 1.83471 -0.551133 0.139185 0.000324175 0.821059
2009 1 19.1169 39.7708 -0.153333 -2.07565 -1.17805 -0.719024 0.151281 -0.111089 -0.0945606
40 1 -1.62313 0.260643 0.829089 -4.323 -1.00243 -3.99912 -0.238145 -0.494296 -0.156079
1658 1 -0.677951 1.67843 2.46363 -1.61925 -1.49073 -1.98844 0.363209 -0.0557912 -0.0862587
1721 1 0.51963 -0.856529 1.84058 2.49164 0.424708 0.41436 -0.740451 0.913216 -0.207643
36 1 -0.831959 -0.475507 3.96519 1.78043 0.71384 0.534111 -0.756035 0.346031 -0.0431909
1564 1 1.37297 0.442608 3.75229 -0.724985 1.3101 -2.59767 0.191606 0.171829 -0.41925
1628 1 1.04609 -1.91735 4.71716 -0.509612 -1.05994 0.49411 1.05224 0.791915 -0.021295
6182 1 5.55948 30.0237 24.7802 0.196498 0.450705 -0.232631 -0.0258808 -0.480934 0.38859
1757 1 5.77513 -0.208344 2.03068 -2.7661 -0.440173 0.886704 -0.355786 0.163547 -0.362957
38 1 3.02612 -0.288862 2.08155 -3.92611 3.02528 -1.94059 0.650889 0.277212 0.38884
200 1 4.43576 0.443052 4.18618 0.637801 1.44925 -2.35938 -0.3522 -0.40423 0.152107
47 1 4.52581 2.01345 2.34194 -3.10373 0.45023 -1.2035 -0.582915 -0.205646 -0.350093
225 1 5.80715 -1.70599 4.03722 -1.03561 3.43957 -1.1764 0.354467 -0.356267 -0.107049
1590 1 3.3491 -1.96283 3.94612 -1.6764 -0.2674 0.0857563 -0.295808 0.521599 -0.0655848
176 1 8.23727 0.16544 1.97432 -0.618086 0.926954 6.13652 0.581458 -0.383696 0.103586
1778 1 8.55681 -1.445 3.9057 1.14613 2.79304 -1.48009 0.274111 -0.0330313 0.0496108
364 1 9.37078 1.24806 4.15971 1.89094 -1.63843 1.87489 0.363225 -0.717156 0.0751976
207 1 6.87879 0.445937 4.16809 0.0854038 -5.33651 -0.932035 0.477021 0.664738 0.177533
321 1 14.9671 -0.446101 0.872781 1.28073 1.12571 -1.6168 -0.14938 0.644826 0.23627
296 1 10.8693 0.176535 1.79969 -0.462742 0.460744 -0.846418 -0.0305084 -0.654953 -0.793335
4000 1 11.152 -0.778941 3.99718 -1.98457 2.31953 -4.18951 -0.660998 0.097613 0.568898
271 1 13.2539 1.57368 1.3623 -0.63246 0.700503 -2.60407 0.594033 -0.227161 -0.191816
1758 1 11.7506 1.67346 3.34647 0.942783 -0.314391 0.677546 -0.114101 1.30931 0.764561
199 1 13.3058 -0.215698 3.06896 0.0363632 -2.33805 1.5041 0.576381 0.408613 -0.0506888
3990 1 12.4527 -1.83819 1.46976 -1.88739 -0.654832 -3.7133 -0.283109 -0.329563 0.398516
450 1 15.3078 1.21222 2.88864 -2.21707 0.016045 4.35662 0.138693 0.41198 0.00774937
336 1 17.0347 1.04872 0.930148 0.655822 -0.362378 -0.334868 -0.0820122 0.112761 -0.102546
1824 1 18.5689 0.975088 2.91037 2.16987 0.697761 -1.12157 0.339211 0.170476 -0.458965
166 1 16.9493 -0.802466 2.66676 3.08056 -2.5744 -0.792496 -0.538794 -0.417769 -0.579017
1964 1 19.5716 -1.41978 2.56305 -0.164457 1.65028 0.912346 -0.528093 0.00339671 -0.100377
362 1 15.463 -0.337923 4.75182 -1.22667 -0.994862 2.18604 -0.803076 -1.00902 -0.355558
1886 1 18.2188 -1.0293 4.73839 -1.73944 0.183149 3.56732 0.0156778 0.471815 0.391562
706 1 0.120485 3.76879 1.15771 4.52697 -0.43022 -1.28106 -0.0635154 0.228198 -0.160074
16 1 1.54672 4.90477 2.89606 1.21626 -1.34048 -1.3618 -0.355663 -0.243606 0.104078
204 1 0.511777 2.84348 4.20858 2.78145 2.40275 -1.59364 0.0692589 0.841445 0.359833
1 1 1.91521 2.20917 2.23237 1.43871 -1.74642 1.65492 -0.0836933 -0.608777 0.370886
727 1 -1.78131 3.95213 3.02099 1.23533 0.0956083 0.97399 0.887943 -0.0204301 -0.138185
80 1 5.435 3.98282 1.18515 2.60272 -2.37157 -1.86672 0.0411056 -0.398517 -0.537353
117 1 3.86931 4.24561 3.24535 -2.07779 0.952319 -0.824765 -0.351915 -0.601387 -0.253
78 1 6.26821 4.41631 3.39055 -1.24675 -2.03169 1.42487 1.18055 0.342052 0.611687
305 1 6.97088 2.19786 2.30807 -1.24437 -0.273833 -1.71314 -0.0903033 0.193323 0.174157
25 1 9.58609 2.22256 1.86331 -0.628838 -2.09732 2.97949 0.084121 -0.00429451 -0.509613
143 1 8.12586 4.22164 1.51177 3.36679 -0.526187 1.71394 -0.279895 0.0737655 0.665741
414 1 10.0052 3.91615 3.40713 2.5069 1.02399 4.43249 -0.415522 0.0711798 0.606292
1786 1 10.151 5.66803 1.54914 -0.493818 -3.37377 4.07644 0.487735 -0.174117 -0.0849628
135 1 8.41957 5.939 3.38903 0.729132 -2.96435 0.00852481 0.316263 -0.795963 -0.148076
205 1 7.88972 3.06987 4.67785 1.34646 -1.02665 0.63908 -0.501538 0.661651 -0.531481
329 1 11.842 3.51381 1.50749 1.8605 -3.85494 -3.46916 -0.731474 1.07339 0.51306
303 1 13.7787 5.21764 1.27287 3.60656 0.707549 -0.0982085 0.406748 -0.553087 0.668677
4824 1 12.019 5.20691 3.45392 -2.00644 -1.39834 1.51929 0.301356 0.473727 -0.689085
6528 1 13.7618 3.33305 3.08176 4.31837 1.44206 -0.534089 -0.231713 0.0970656 0.194378
324 1 15.3912 3.03822 1.16501 1.01864 -1.5019 0.674247 0.0659688 0.244106 0.458058
367 1 15.6553 4.96801 2.9646 1.6098 1.0563 0.633905 -0.0102644 -0.125469 0.603962
302 1 17.3586 4.75094 1.26833 0.363821 -0.297239 -2.43943 0.690812 0.30181 -0.35176
333 1 19.0604 2.80145 1.21374 0.0701183 0.895253 3.05251 -0.223049 0.378673 0.0191803
264 1 17.1757 3.0188 2.95013 0.654723 0.693851 0.17387 0.251106 -0.473774 0.270688
374 1 19.2794 4.50603 3.19909 0.630466 -1.69564 2.02641 0.348181 -0.186154 -0.454048