ITEM: TIMESTEP
0
ITEM: NUMBER OF ATOMS
12000
ITEM: BOX BOUNDS xy xz yz pp pp pp
-2.7890788547213319e-01 2.6003907885472358e+01 0.0000000000000000e+00
-2.1687346988555056e-01 2.5941873469885941e+01 0.0000000000000000e+00
-1.7009857640422013e+00 2.0750098576404724e+02 0.0000000000000000e+00
ITEM: ATOMS id type x y z c_peratom fx fy fz 
1 1 0.604101 1.34704 2.33457 -7.44392 -0.0767486 -0.276324 0.924075 
2 1 0.786384 0.939363 7.34249 -7.8488 -0.564926 0.720986 -0.776157 
3 1 0.947315 1.0617 12.7559 -8.25426 -0.420394 0.220148 -0.675174 
41 1 0.659612 6.43477 2.08409 -7.97269 -0.0390755 -0.218153 1.98198 
42 1 0.801926 6.34906 7.43634 -8.03257 -0.345549 -1.3784 -0.529492 
43 1 0.723762 6.28463 12.7348 -8.02461 0.513015 1.48921 -0.97492 
81 1 0.622198 11.5019 2.51406 -7.20395 -0.317289 0.67677 -1.40305 
82 1 0.866361 11.41 7.52918 -7.70055 -0.204418 -0.628859 0.494255 
83 1 0.893411 11.789 12.8206 -7.39768 -0.367723 -1.77339 -0.263433 
121 1 0.777849 16.8365 2.04022 -7.88054 -1.14851 -0.572732 0.0500147 
122 1 0.959984 16.6539 7.30091 -8.17725 -0.453145 0.793977 -0.151058 
123 1 0.813088 16.8076 12.5125 -7.81022 -1.02561 0.182555 1.72219 
161 1 0.934748 22.1854 2.24685 -8.12135 -0.818676 -0.471993 -0.0971815 
162 1 0.755596 21.939 7.36894 -7.61687 -0.127783 -0.345602 0.202232 
163 1 0.805311 21.8246 12.5596 -7.53645 -1.04861 1.92131 0.968363 
201 1 6.12419 1.14448 2.36745 -8.361 0.0227047 -0.0156579 -0.0105033 
202 1 6.0307 1.14255 7.47677 -7.95817 -0.150201 -0.61112 -0.124656 
203 1 6.11415 1.36134 12.7535 -7.67552 0.763304 0.050541 0.94533 
241 1 5.88084 6.40657 2.33208 -7.80568 -0.282212 0.0370796 -0.24429 
242 1 6.01931 6.39046 7.5917 -7.93486 0.729783 -0.463511 -1.63152 
243 1 6.00588 6.28564 12.8189 -7.90505 0.897318 1.33184 -0.419413 
281 1 5.96807 11.4645 2.42659 -7.27619 -1.12139 -0.270775 0.909974 
282 1 5.9783 11.511 7.5885 -8.11141 1.05536 1.10784 0.00154365 
283 1 6.14284 11.483 12.9203 -7.54575 -0.559816 -0.609847 -0.618065 
321 1 6.02162 16.5829 2.25492 -7.77017 -0.100468 0.826634 0.110835 
322 1 6.16439 16.9054 7.52677 -7.75946 -0.474999 -0.290366 0.0924117 
323 1 5.95843 16.8527 12.7687 -7.95624 1.11235 0.207749 -0.25803 
361 1 6.10182 22.0559 2.39942 -7.6084 1.37074 -0.339657 -0.972349 
362 1 6.05352 22.0124 7.56249 -8.08191 1.07782 0.00891145 0.50643 
363 1 6.17852 22.4002 12.7794 -7.92834 -0.0573218 -1.73334 0.111925 
401 1 11.405 1.21116 2.23923 -7.72475 -0.388385 -1.60468 -0.431911 
402 1 11.3511 1.19081 7.53163 -8.08936 0.796396 0.509312 0.0698399 
403 1 11.3405 1.30971 12.9008 -7.60614 -0.768224 -1.81889 -0.519163 
441 1 11.2899 6.25163 2.44867 -8.19612 -0.175873 0.534928 -1.12395 
442 1 11.347 6.41933 7.50773 -7.87999 -1.26108 -0.245551 -0.33297 
443 1 11.214 6.4309 12.7093 -7.89123 0.46461 -0.316786 0.077233 
481 1 11.3271 11.5344 2.274 -7.84325 -1.61412 0.376864 0.323986 
482 1 11.2213 11.5243 7.39334 -7.86468 -0.172026 0.534329 1.02622 
483 1 11.3682 11.7273 12.7152 -7.56411 -0.276336 -0.210865 -0.991607 
521 1 11.4293 16.8228 2.30675 -7.74164 -1.66053 -0.680075 -0.155473 
522 1 11.2895 16.9649 7.52456 -7.62788 -0.624157 -1.68821 0.549343 
523 1 11.1963 16.8688 12.8069 -7.74999 1.3622 0.522277 -0.324331 
561 1 11.3667 21.9056 2.24002 -7.93217 0.962963 -0.125874 0.0787242 
562 1 11.2569 21.8854 7.36616 -7.72619 1.24488 0.998399 1.13769 
563 1 11.4365 22.1371 12.6713 -7.94999 -0.772618 0.461075 -0.453859 
1001 1 0.87632 3.7573 -0.118675 -7.89131 -0.528099 -0.153438 -0.420761 
1002 1 0.570361 3.70621 4.92658 -7.9884 0.413839 -0.359532 0.917329 
1003 1 0.75133 3.87071 10.074 -7.76178 -0.843487 0.0434648 0.415919 
1004 1 0.829101 3.73388 15.3742 -7.75868 0.515066 -0.168856 -0.141316 
1041 1 0.710087 8.84384 -0.248085 -8.1968 -0.545796 1.0839 0.0735729 
1042 1 0.555703 8.74424 5.00668 -8.1863 0.771133 0.303121 0.0653748 
1043 1 0.78047 9.02745 10.3436 -7.66744 -0.0621553 0.19391 -1.46894 
1044 1 0.820673 8.74073 15.3637 -8.07324 -0.214068 1.24413 0.0963006 
1081 1 0.6763 14.0383 -0.389801 -7.93246 0.938244 0.578419 -0.722759 
1082 1 0.777816 14.0542 4.82112 -7.39492 0.32133 0.954983 -0.24618 
1083 1 0.835589 14.2443 10.179 -7.61409 -0.952711 -0.599647 0.159104 
1084 1 0.746428 14.044 15.6098 -7.36048 0.694207 0.446979 -0.427563 
1121 1 0.851819 19.3843 -0.525546 -8.55748 0.758266 -0.722096 0.394248 
1122 1 0.808016 19.3214 4.74953 -8.04434 -0.810827 -0.543168 1.45308 
1123 1 0.827566 19.4014 9.99943 -7.46309 -0.324016 -0.821585 0.309254 
1124 1 0.625294 19.198 15.315 -7.76578 -0.155676 1.09111 -1.28322 
1161 1 0.772826 24.6636 -0.445738 -7.55786 0.154348 0.508484 0.540484 
1162 1 0.783482 24.6373 4.95448 -8.16479 -0.802774 -0.571413 -1.60601 
1163 1 0.891535 24.6485 10.1645 -8.13586 -1.02592 -0.661925 -1.59785 
1164 1 0.831568 24.6397 15.2936 -7.72536 -1.18956 -0.54029 1.02679 
1201 1 6.12372 3.78628 -0.264002 -7.69433 0.482071 0.975736 -1.43355 
1202 1 5.95266 3.68316 4.79719 -7.69485 -0.320242 1.44884 -0.754778 
1203 1 5.95413 3.65155 9.79687 -7.74971 -0.103402 0.535184 1.14596 
1204 1 6.05792 3.71084 15.072 -8.61234 0.63447 -0.883492 0.646549 
1241 1 5.78804 8.97031 -0.240888 -7.00202 -0.300436 -0.468796 0.437143 
1242 1 5.9329 8.91221 4.85681 -8.15987 -0.442504 0.825318 -0.0488288 
1243 1 5.95981 9.01333 10.0463 -7.13385 -0.207693 -0.717505 0.251274 
1244 1 6.05092 8.94536 15.2525 -8.27695 0.924113 0.0951097 -0.860693 
1281 1 5.98241 14.1363 -0.363333 -7.81553 0.106051 -0.515973 -0.555534 
1282 1 5.96355 14.3347 4.89439 -7.91824 1.80279 -0.413177 -0.581925 
1283 1 5.99917 14.2274 10.0236 -8.04799 -0.0700814 -0.491083 0.00259994 
1284 1 6.19087 14.1702 15.2913 -7.91284 -0.464303 0.0410752 1.06431 
1321 1 6.22289 19.5354 -0.406742 -7.62995 -0.604327 -1.79459 -0.0967743 
1322 1 6.03551 19.5491 4.78447 -7.66981 -0.393361 -0.57632 0.181969 
1323 1 6.00259 19.4755 10.0182 -7.91427 1.31956 0.327257 -0.333209 
1324 1 5.90025 19.4644 15.3045 -8.03026 1.15131 -0.26217 -1.1256 
1361 1 6.26203 24.7045 -0.501901 -8.15788 -0.276256 -0.776173 1.48538 
1362 1 6.23141 24.7606 4.7806 -7.95496 -1.31551 0.353118 0.323064 
1363 1 6.21685 24.7603 10.0103 -7.42981 -1.30793 -0.972986 0.735957 
1364 1 6.03335 24.6307 15.2302 -7.63374 -0.440781 0.354357 0.031699 
1401 1 11.3704 3.78361 -0.327226 -7.92661 0.491974 -0.952462 -0.174934 
1402 1 11.2034 3.77008 4.92667 -7.85456 0.723917 0.058224 -0.200775 
1403 1 11.4063 3.75634 10.0528 -8.22878 -1.11689 -0.156072 0.595367 
1404 1 11.381 3.62415 15.398 -8.24346 0.00256148 0.292191 0.359673 
1441 1 11.2619 9.02367 -0.489994 -7.58303 -0.351828 -1.31558 1.2686 
1442 1 11.1955 8.92165 4.89596 -8.11147 0.226424 0.745257 -0.335049 
1443 1 11.0301 9.27588 10.1227 -7.52118 0.711154 -1.88987 0.110607 
1444 1 11.2755 8.92786 15.3294 -7.6709 1.00017 -0.737378 -0.358658 
1481 1 11.198 14.1436 -0.147365 -7.75644 0.226005 -0.372278 0.155835 
1482 1 11.3044 14.1874 5.03646 -7.45546 -0.647321 -0.208577 -0.539524 
1483 1 11.3055 14.29 9.98293 -7.71094 -0.790157 -0.289052 -0.505903 
1484 1 11.2801 14.2485 15.2428 -7.89688 2.35928 -1.32211 -0.177159 
1521 1 11.4036 19.3648 -0.260681 -7.78072 0.00465268 -0.394518 -0.261493 
1522 1 11.2573 19.4654 4.89511 -8.07396 -0.452338 -0.456908 0.739663 
1523 1 11.1806 19.3851 10.1535 -7.56655 -0.202613 0.27627 -0.0414285 
1524 1 11.4328 19.3199 15.3743 -7.84481 -0.571802 0.504217 -0.583554 
1561 1 11.5262 24.4451 -0.254725 -7.75931 -0.807745 0.981664 -0.725848 
1562 1 11.3222 24.6034 4.97627 -7.31041 -0.132383 0.830328 -0.525131 
1563 1 11.3617 24.7095 10.0458 -7.34341 -1.31612 -0.959674 1.01303 
1564 1 11.1993 24.6323 15.0598 -7.77669 -0.0499106 -0.666797 1.69438 
2001 1 3.53738 1.00519 -0.137373 -7.82802 0.927198 0.00537091 -0.755326 
2002 1 3.81282 1.10684 4.76667 -7.42672 1.60388 -0.28784 1.12386 
2003 1 3.60958 0.999392 10.1619 -7.33477 0.0316203 -0.802109 -1.02143 
2004 1 3.74745 0.956201 15.3599 -8.3493 0.61695 1.19038 -0.0976962 
2041 1 3.82066 6.2263 -0.0632258 -7.94145 -0.310629 -0.730415 -0.0854643 
2042 1 3.7828 6.13096 5.13077 -7.50995 0.879531 -0.0401746 -0.0719951 
2043 1 3.81068 6.18263 10.1242 -7.69287 0.360152 0.197231 1.24416 
2044 1 3.56025 6.25311 15.3661 -7.60205 1.8526 0.301549 -0.894774 
2081 1 3.55386 11.4535 -0.278886 -8.42353 -0.130923 -0.875151 -1.48721 
2082 1 3.77446 11.3612 4.8193 -7.49007 0.807509 -0.574667 -0.64431 
2083 1 3.71839 11.3566 9.99815 -7.88929 -0.966886 1.01233 0.869681 
2084 1 3.6882 11.5186 15.3839 -7.68041 -0.875571 0.3317 -1.23978 
2121 1 3.67026 16.7706 -0.416891 -7.41042 0.117166 -0.425961 -0.356082 
2122 1 3.79619 16.5043 5.02406 -7.98179 -0.19202 1.02201 0.124612 
2123 1 3.71568 16.6464 10.185 -7.39106 -0.458224 0.960633 1.13633 
2124 1 3.75292 16.8073 15.5399 -7.39207 0.100534 0.875793 -0.172842 
2161 1 3.48008 21.8777 -0.58616 -8.16288 -0.225729 0.116216 1.80043 
2162 1 3.77619 21.8875 4.78109 -7.90239 0.231912 0.588945 0.935131 
2163 1 3.71694 21.9617 10.1626 -7.41596 -0.112565 0.452793 -0.557772 
2164 1 3.57408 21.9195 15.4093 -7.73211 1.88444 0.571107 -0.290818 
2201 1 9.09116 1.12971 -0.299983 -8.20176 -2.32626 -0.778642 -1.63536 
2202 1 9.01238 1.19355 4.86955 -7.93697 0.85138 -0.130151 -0.0846709 
2203 1 8.68337 1.2638 10.0636 -7.92876 0.68818 -0.325879 0.24087 
2204 1 8.99096 1.17891 15.282 -7.50638 0.878955 -1.15139 -0.266053 
2241 1 8.9153 6.29008 -0.493925 -8.00496 1.51045 -0.0554693 -0.0740631 
2242 1 8.87273 6.41249 4.7815 -7.99167 0.754719 -1.16387 -0.118556 
2243 1 9.10065 6.40401 9.93487 -7.38962 -1.2059 0.0365211 -0.562803 
2244 1 9.07105 6.1932 15.3387 -7.82651 -1.94797 0.0926551 -1.1527 
2281 1 9.03362 11.3846 -0.20833 -7.86222 0.488272 0.523393 -0.480497 
2282 1 9.09125 11.5541 4.88665 -8.04544 -0.375567 0.0775334 0.744152 
2283 1 9.07016 11.5106 10.1823 -7.38366 -1.82204 0.604551 -0.31302 
2284 1 8.74078 11.4816 15.275 -7.40091 1.25782 -0.545391 -0.0856237 
2321 1 8.95159 16.7652 -0.424942 -7.85088 0.300603 -1.10022 1.5476 
2322 1 8.97181 16.9529 4.80821 -8.23987 0.59112 0.207937 1.19988 
2323 1 8.97489 16.8753 9.97598 -7.73288 -0.464468 0.523841 0.617651 
2324 1 9.08558 16.7281 15.3049 -8.16505 0.131739 1.12697 0.819661 
2361 1 8.88638 22.0814 -0.259697 -8.08652 0.82638 0.118392 -1.44001 
2362 1 9.18373 22.0723 4.82491 -7.40196 -0.5513 0.107877 -0.384488 
2363 1 8.93976 22.0771 10.0442 -8.54837 0.438954 0.741203 -0.163391 
2364 1 8.76526 22.0816 15.243 -7.91566 0.186866 0.916818 0.222101 
3001 1 3.76852 3.81376 2.44097 -7.7555 0.71672 -0.161341 0.17153 
3002 1 3.89231 3.75219 7.57803 -7.53051 -0.711427 -0.742006 -0.287072 
3003 1 3.68079 3.8371 12.7225 -7.62449 1.05807 -0.765183 0.825029 
3041 1 3.60573 8.93333 2.22494 -8.65445 0.218727 -0.624873 0.669827 
3042 1 4.03285 8.83226 7.58183 -7.54663 -0.716094 0.775776 0.310458 
3043 1 3.83558 8.91611 12.8283 -7.95121 -0.0120731 0.0399492 -0.580395 
3081 1 3.63982 14.1459 2.19904 -8.23102 -0.3453 0.395367 1.04477 
3082 1 3.58362 14.0783 7.49645 -7.32375 1.82392 0.926502 -0.305888 
3083 1 3.48019 14.187 12.6818 -7.51097 0.913762 0.223999 -0.0939836 
3121 1 3.72782 19.4249 2.36713 -7.88777 0.782877 0.295584 -0.598074 
3122 1 3.62389 19.521 7.45439 -7.88191 1.08793 -0.811633 0.671104 
3123 1 3.79201 19.3509 12.6629 -7.10479 0.424725 0.938333 -0.413905 
3161 1 3.64801 24.7748 2.40689 -7.70788 0.466904 0.381035 -0.978589 
3162 1 3.65839 24.6492 7.44618 -7.76915 -0.0317103 1.21873 0.46314 
3163 1 3.66153 24.5492 12.7906 -7.97187 0.904839 1.7377 -0.600961 
3201 1 9.07211 3.78234 2.46421 -7.57973 -0.493668 -0.138991 0.182554 
3202 1 9.15027 3.72557 7.65163 -8.04519 -0.635275 -0.792355 -0.0697275 
3203 1 8.99381 3.77498 12.9246 -7.70871 -0.924159 0.193231 0.383912 
3241 1 9.05827 8.92806 2.59862 -8.18266 0.115779 -0.403748 -0.436351 
3242 1 9.17606 8.85073 7.65469 -7.73316 0.623943 -0.303083 0.00887781 
3243 1 8.96878 9.00266 12.7899 -7.58409 0.490422 -0.58231 -0.256839 
3281 1 8.97929 14.153 2.21633 -7.95081 1.03452 -0.985904 1.18351 
3282 1 8.95977 14.2351 7.52869 -7.93771 0.918416 -0.308956 -0.220127 
3283 1 8.76173 14.1461 12.7057 -7.36691 0.00229638 0.0878315 0.308384 
3321 1 9.1257 19.471 2.27902 -7.7103 -0.0116266 -1.2608 0.0167583 
3322 1 8.97044 19.4614 7.45933 -7.8764 0.0578108 0.618327 1.35945 
3323 1 8.93409 19.3704 12.7766 -7.82751 0.618301 0.292422 0.307923 
3361 1 8.94633 24.6556 2.12516 -8.19062 0.13182 -0.228243 0.6601 
3362 1 8.95155 24.6787 7.371 -7.1995 0.0787611 -0.122947 0.938286 
3363 1 8.96249 24.6698 12.562 -7.71125 -0.632625 -0.0422395 0.741378 
4001 1 3.4834 3.66115 -0.276556 -8.0126 0.0627159 0.151302 -0.600535 
4002 1 3.21399 3.5665 5.1694 -7.86931 0.188008 0.170572 -1.2223 
4003 1 3.29938 3.51604 10.174 -6.86667 0.401228 0.496095 -0.373335 
4004 1 3.46824 3.64464 15.3369 -8.43432 0.295093 -0.69369 0.729412 
4041 1 3.25069 8.73928 -0.45399 -7.96955 0.294482 1.54142 1.33045 
4042 1 3.27819 8.72648 5.07576 -8.20787 -0.332179 0.220356 -1.50199 
4043 1 3.42048 8.80991 10.2094 -7.8029 -0.65272 -0.433413 0.537523 
4044 1 3.41448 8.96196 15.3759 -7.94824 -0.50174 -0.240662 -0.371801 
4081 1 3.35081 14.1713 -0.412199 -7.83167 0.0941602 -1.61405 -0.724518 
4082 1 3.40495 13.9584 4.7865 -7.67301 -0.266962 0.320616 -0.0151042 
4083 1 3.33604 14.0568 10.0969 -7.41403 0.982537 -0.259756 -0.0285533 
4084 1 3.36463 14.2791 15.2758 -7.90417 0.0820325 -1.2204 1.3027 
4121 1 3.50103 19.3035 -0.394374 -8.01871 -0.375788 0.959933 1.50163 
4122 1 3.40218 19.2079 4.95357 -7.93718 0.0317472 -0.0907798 -0.303101 
4123 1 3.49846 19.4146 10.0381 -7.63897 -0.277809 -1.91345 -0.606153 
4124 1 3.20122 19.3993 15.1744 -7.44356 0.536394 0.0969264 0.165539 
4161 1 3.47636 24.4768 -0.313093 -8.20995 -0.176493 1.52512 -0.198589 
4162 1 3.4203 24.6875 4.93581 -7.94157 1.33496 -0.454567 0.195108 
4163 1 3.57457 24.5422 9.99048 -8.0214 -0.298 0.302124 1.12853 
4164 1 3.37987 24.5581 15.4956 -7.57098 1.34769 0.0380465 0.357641 
4201 1 8.82183 3.72198 -0.23507 -7.80925 -0.963314 -0.407064 -0.051924 
4202 1 8.71577 3.75457 5.16263 -8.09299 -1.2801 0.389204 -1.40254 
4203 1 8.58758 3.91666 10.1976 -7.83833 0.62559 -0.882258 -0.320601 
4204 1 8.72594 3.58684 15.5313 -7.73456 -0.546907 1.41026 0.443772 
4241 1 8.56884 8.84852 -0.045072 -7.78232 0.121101 -0.478783 -0.61099 
4242 1 8.48515 8.88303 5.16256 -7.90481 0.986638 0.543329 -0.523678 
4243 1 8.47359 8.84358 10.2228 -7.24923 0.243367 0.225369 -0.144046 
4244 1 8.74162 8.85581 15.2712 -7.78229 -1.11375 -0.411551 -0.28522 
4281 1 8.62867 14.0297 -0.342415 -7.71206 -0.00549145 -0.403633 -0.877488 
4282 1 8.73333 14.2938 4.96107 -8.28728 -1.27461 -0.654336 -0.475783 
4283 1 8.61649 14.2515 10.0983 -7.86966 1.45 -0.590531 -0.0131683 
4284 1 8.88893 14.0264 15.3298 -7.32287 -1.59317 0.679949 0.773567 
4321 1 8.86481 19.327 -0.422466 -7.7679 0.151144 0.686005 0.511226 
4322 1 8.52886 19.5575 4.94051 -7.68722 1.453 -0.786126 -0.924287 
4323 1 8.58751 19.5481 10.2377 -7.67796 -0.0970628 -0.72473 -1.44168 
4324 1 8.7865 19.5518 15.4552 -8.07765 -0.716438 -1.45799 0.421599 
4361 1 8.88822 24.6608 -0.525035 -7.97921 -0.260256 -0.126443 -0.126126 
4362 1 8.74371 24.7008 4.85723 -7.55188 0.150416 0.0509417 -1.44267 
4363 1 8.71543 24.8173 9.95081 -7.92552 1.62883 -0.466204 1.05852 
4364 1 8.59434 24.7196 15.3487 -8.17775 0.715059 0.0806481 -0.412886 
5001 1 3.18878 1.28664 2.35072 -7.29285 1.53822 -0.188492 -0.615889 
5002 1 3.45942 1.12042 7.45059 -7.99516 -0.458162 -0.291352 -0.270292 
5003 1 3.60587 1.24882 12.7365 -7.90188 -0.498684 -1.29964 0.690079 
5041 1 3.21514 6.27751 2.55864 -7.85674 0.122285 1.58932 -0.236695 
5042 1 3.43888 6.3173 7.64045 -7.3784 -0.635825 -0.620906 -0.873799 
5043 1 3.44124 6.38258 12.7948 -7.68967 -0.483081 0.853409 -0.61758 
5081 1 3.23593 11.5114 2.17045 -7.8118 -0.0358417 -0.0904959 1.01745 
5082 1 3.35708 11.5145 7.41028 -6.79726 0.580587 -0.798799 0.177287 
5083 1 3.50209 11.5198 12.6536 -7.51382 0.117709 -0.347044 0.112005 
5121 1 3.36791 16.8295 2.30144 -8.07965 0.710037 -0.281495 0.595526 
5122 1 3.5422 16.6901 7.719 -7.84686 -0.305312 1.38099 -1.78817 
5123 1 3.31429 16.8832 12.8152 -7.41834 0.736161 -1.7633 -0.109312 
5161 1 3.61343 22.1063 2.14327 -7.5735 -2.2558 -1.42049 0.00328985 
5162 1 3.45955 22.1386 7.49255 -7.65657 -0.474259 -0.851783 -0.300074 
5163 1 3.42371 21.9756 12.7095 -7.87332 1.63298 -0.510369 0.769865 
5201 1 8.82716 1.21501 2.28285 -7.93175 -1.29115 -0.659034 -0.341813 
5202 1 8.79655 1.09051 7.45301 -7.85114 -1.01803 0.411403 -0.0584173 
5203 1 8.73684 1.14209 12.7149 -7.86778 -0.365492 -0.460556 -0.377195 
5241 1 8.57627 6.3572 2.16007 -7.92852 0.0724631 0.128697 0.0839656 
5242 1 8.58044 6.2721 7.30765 -8.51814 1.54715 0.765901 1.08343 
5243 1 8.69565 6.33874 12.5887 -7.74188 -1.36514 0.995776 0.384333 
5281 1 8.59291 11.5274 2.37444 -7.78725 1.08064 0.145147 0.19689 
5282 1 8.67026 11.5011 7.59343 -8.37229 -0.158466 -0.113244 -1.47536 
5283 1 8.69828 11.5554 12.7585 -7.49374 0.376074 0.185013 -0.612362 
5321 1 8.7086 16.7712 2.29223 -8.04352 0.744902 0.749678 -0.560613 
5322 1 8.68203 16.9454 7.46071 -7.98064 0.672024 -1.01872 -1.04909 
5323 1 8.73305 16.7509 12.653 -7.94416 -0.855454 0.39741 0.0519618 
5361 1 8.77427 22.0276 2.26741 -7.60129 -0.208499 0.60769 0.629504 
5362 1 8.80587 22.0968 7.35261 -7.86756 -1.69809 -0.205761 1.6518 
5363 1 8.88814 22.0604 12.6874 -8.10984 -1.48527 0.471731 -1.11531 
6001 1 1.25164 3.88716 2.44543 -7.66277 -0.630929 0.692985 -0.111372 
6002 1 1.16052 3.63642 7.52957 -7.97001 0.577618 0.23484 -0.850547 
6003 1 1.0229 3.76817 12.8167 -7.64686 0.762398 -1.25936 -0.477287 
6041 1 0.890011 9.00878 2.46351 -8.39276 1.24454 -0.752001 -1.06894 
6042 1 1.22709 8.84521 7.64606 -7.84443 0.803892 0.405541 0.380269 
6043 1 1.17701 9.08068 12.8256 -7.8389 1.43943 -0.633222 0.3565 
6081 1 0.934761 14.121 2.21421 -7.92655 1.45351 -0.104384 0.0153137 
6082 1 1.08943 14.0439 7.4475 -7.45525 -0.886249 0.31959 0.68589 
6083 1 1.01146 14.285 12.94 -7.28076 -1.24801 1.10119 -0.595121 
6121 1 1.169 19.4121 2.19083 -7.84854 -0.492283 1.02323 -1.29717 
6122 1 1.08953 19.2934 7.4144 -7.77757 -0.17093 -0.355789 -0.332528 
6123 1 1.13551 19.3858 12.7365 -7.44634 -0.713963 -1.41287 0.518032 
6161 1 1.05488 24.9857 2.16941 -8.00844 -1.08475 -2.01471 1.69978 
6162 1 1.04684 24.5129 7.44769 -7.78567 -0.853933 0.122864 1.16908 
6163 1 1.05155 24.4827 12.7025 -7.45233 -0.498888 0.239206 -0.0335636 
6201 1 6.42247 3.8271 2.20742 -7.67621 0.48711 -0.446277 1.26199 
6202 1 6.48299 3.74713 7.28261 -7.96772 -0.269488 0.956598 -0.65866 
6203 1 6.40662 3.90124 12.3762 -7.51592 -0.530434 -1.38747 0.930228 
6241 1 6.4974 8.95139 2.26884 -7.60104 -1.11088 -0.688652 1.07177 
6242 1 6.64204 8.94505 7.49283 -7.71373 -0.804258 0.245823 -0.918111 
6243 1 6.48396 8.84821 12.5279 -7.71111 -0.854246 -0.659634 1.54437 
6281 1 6.37308 13.9926 2.3485 -7.56092 -0.772691 0.0981704 0.0203132 
6282 1 6.35946 14.3499 7.42409 -7.79559 -0.714961 -1.20756 0.0651344 
6283 1 6.13967 14.0937 12.7249 -7.65575 -0.146599 0.565796 -0.433023 
6321 1 6.51215 19.3684 2.17446 -7.93639 -1.41343 -1.13378 1.03641 
6322 1 6.36343 19.4328 7.39218 -7.78989 -0.0994751 0.518535 0.54748 
6323 1 6.39116 19.5482 12.6408 -7.71964 -0.134345 0.649645 0.30472 
6361 1 6.28061 24.697 2.20952 -7.81328 -0.0994153 -0.69488 -0.0365509 
6362 1 6.3137 24.7143 7.4049 -7.82247 -0.297312 -0.152089 -0.280573 
6363 1 6.30136 24.9518 12.673 -7.6051 0.0782312 0.0562886 -0.217332 
6401 1 11.7106 3.68684 2.20833 -7.30715 -0.0550056 0.600116 0.695983 
6402 1 11.7929 3.90922 7.53809 -7.73039 -1.40577 -1.32679 -0.176684 
6403 1 11.4945 3.72119 12.7731 -7.85872 1.08426 1.98914 -0.197137 
6441 1 11.6442 8.99515 2.15866 -8.46769 -0.652281 -0.806779 0.370226 
6442 1 11.7476 8.96757 7.46028 -7.87756 0.0587727 0.262992 0.15337 
6443 1 11.5512 9.05394 12.6452 -7.67543 0.38844 0.084816 0.265483 
6481 1 11.6671 14.2155 2.50589 -7.65479 -0.00535708 -0.481135 -1.05886 
6482 1 11.6331 14.2058 7.43943 -8.11548 -0.284746 0.132792 1.07633 
6483 1 11.3154 14.2801 12.5422 -7.77659 1.29371 0.32968 0.914972 
6521 1 11.7389 19.2876 2.29516 -7.43801 0.437972 0.761844 0.462773 
6522 1 11.5535 19.4105 7.60545 -7.49838 0.655311 0.419035 -0.619556 
6523 1 11.5694 19.5251 12.6844 -7.6567 -1.24969 -0.742818 0.882361 
6561 1 11.5556 24.534 2.3079 -8.20379 0.110451 0.413729 0.667229 
6562 1 11.5783 24.6563 7.57617 -7.64278 0.386013 -0.542446 -0.49054 
6563 1 11.5024 24.7695 12.6219 -7.68534 -0.674616 0.618022 -0.863671 
7001 1 0.94052 1.16626 -0.187723 -7.88664 0.0773284 -0.0584291 -1.17557 
7002 1 1.22921 1.09318 4.83946 -7.26696 0.0381117 0.0207464 -0.167494 
7003 1 1.02031 1.15614 9.82032 -7.48427 0.187194 -0.148842 1.59865 
7004 1 1.14072 1.1289 15.4318 -7.65472 0.570941 0.0543457 0.228217 
7041 1 1.12194 6.34898 -0.368434 -7.56793 0.278964 -0.644596 -0.366496 
7042 1 1.24463 6.23576 4.77032 -8.21499 -1.15866 -0.131075 -0.123621 
7043 1 1.17265 6.45732 10.0452 -8.0747 -0.395144 0.219305 0.422895 
7044 1 1.07218 6.24636 15.296 -7.16581 -0.654465 0.281838 -0.744296 
7081 1 0.901682 11.4415 -0.0935055 -8.02649 0.745585 -0.114663 -0.0110492 
7082 1 1.16662 11.4283 4.9708 -7.2828 0.210863 -1.02868 0.246017 
7083 1 1.02904 11.6031 10.0761 -7.90764 0.174489 -0.387716 0.814386 
7084 1 1.01084 11.455 15.4062 -7.82948 0.428488 -0.616276 0.255147 
7121 1 1.10736 16.7114 -0.562242 -7.8749 -0.319854 0.364609 0.293658 
7122 1 1.12612 16.7172 4.63491 -7.69311 -0.38796 -0.233546 0.714336 
7123 1 1.102 16.7952 10.0006 -7.73391 -0.378067 0.288903 -0.572078 
7124 1 1.10433 16.6087 15.3892 -8.2127 -0.484427 1.01258 -0.211746 
7161 1 0.800895 21.9479 -0.322988 -7.57244 2.35924 -0.810749 -0.345873 
7162 1 1.15335 21.9335 4.86318 -7.70921 -0.493355 0.0935436 -0.0195614 
7163 1 1.07917 21.9528 9.92577 -7.64643 -0.75856 1.48506 -0.408404 
7164 1 1.12633 21.9224 15.3607 -8.19729 -2.028 -0.30729 -0.766875 
7201 1 6.25502 1.23631 -0.359821 -8.10511 0.827455 -0.908023 0.327484 
7202 1 6.5202 1.26174 4.95245 -7.85847 -1.09287 -1.10785 -0.183066 
7203 1 6.10968 1.05984 10.177 -7.42524 0.590869 0.642417 -0.554848 
7204 1 6.38541 1.06275 15.3476 -8.04231 -0.676898 0.979206 -0.601829 
7241 1 6.40994 6.39141 -0.384186 -7.72755 -0.807974 -0.23828 0.692837 
7242 1 6.34758 6.4155 4.91138 -8.08984 0.0483246 -1.19794 0.601655 
7243 1 6.43345 6.41258 10.0105 -7.78462 0.309931 -0.552436 1.83704 
7244 1 6.36081 6.32609 15.423 -8.17678 0.0323439 -0.0258677 -0.449385 
7281 1 6.4383 11.4416 -0.0900303 -7.59219 -1.18952 1.48452 -1.45702 
7282 1 6.50784 11.6147 5.04955 -8.27483 -0.329295 0.560054 -0.619492 
7283 1 6.33188 11.5397 10.2698 -8.13062 0.731599 0.876403 -0.495351 
7284 1 6.28892 11.5769 15.4805 -7.40877 -0.717516 -0.63103 -0.312842 
7321 1 6.29937 16.7915 -0.405267 -7.71912 -0.441366 -0.736593 0.316873 
7322 1 6.42165 16.8852 4.83045 -7.71546 -0.388026 0.858183 0.426505 
7323 1 6.21382 16.8489 10.1436 -8.02981 1.48422 0.753517 -0.695035 
7324 1 6.42557 16.764 15.4093 -7.99922 -0.653024 1.30532 0.0878554 
7361 1 6.21689 22.0359 -0.502147 -8.1611 0.146889 1.61682 1.45173 
7362 1 6.50987 22.1757 4.99551 -7.91502 -0.0659903 0.0174558 -0.212551 
7363 1 6.25011 22.1872 10.2033 -8.08133 0.928986 -1.23132 0.14324 
7364 1 6.17769 22.0694 15.3791 -7.57631 -0.0836229 -0.27598 -0.496916 
7401 1 11.5711 0.958908 -0.414749 -7.64963 -1.02053 -0.148217 0.64427 
7402 1 11.7899 1.1554 4.86654 -7.886 -1.46852 -0.0872351 -0.140504 
7403 1 11.3013 1.07871 10.1896 -8.04077 -0.109053 1.07393 0.12007 
7404 1 11.6679 1.0039 15.475 -7.64077 -0.76779 0.203753 -0.624623 
7441 1 11.6251 6.36492 -0.192729 -7.7657 -1.83776 0.547722 -0.478532 
7442 1 11.441 6.43195 4.93034 -8.1108 0.98765 -1.23974 0.577765 
7443 1 11.5287 6.46401 10.0645 -7.5705 0.654486 0.626463 0.551067 
7444 1 11.4746 6.25227 15.2946 -7.90535 1.90965 0.425713 0.749541 
7481 1 11.6303 11.5331 -0.339749 -7.77958 -0.388842 0.834204 0.132791 
7482 1 11.6496 11.5681 4.92767 -7.71021 0.765693 -0.56658 -0.84765 
7483 1 11.5018 11.7495 10.0871 -7.32548 0.770334 0.708821 -0.733973 
7484 1 11.3626 11.464 15.1234 -8.08485 1.13383 1.75632 2.44826 
7521 1 11.5451 16.7105 -0.336701 -8.28296 1.27772 0.50429 0.146343 
7522 1 11.6405 16.8478 5.00698 -7.86648 -0.733947 -0.276915 -0.829175 
7523 1 11.5859 16.774 10.1537 -7.77994 -0.188502 0.882092 -0.286366 
7524 1 11.8556 16.7356 15.2732 -7.60696 -1.03256 0.167629 -0.148048 
7561 1 11.6186 21.9892 -0.453057 -7.6136 -1.10368 -1.27777 0.246707 
7562 1 11.7439 22.0335 4.90346 -7.4964 1.00389 -0.347149 -0.992174 
7563 1 11.6607 22.0337 9.98954 -8.16756 -1.38441 -0.188228 0.292114 
7564 1 11.5013 22.0342 15.3858 -8.14529 0.302142 0.0341865 -0.815022 
11364 2 7.53829 23.4153 14.0897 -29.1541 -1.09845 0.355309 -1.05341 
10401 3 12.8384 25.8338 0.995747 -25.3181 -0.528641 1.09937 -1.21963 
11363 3 7.52704 23.3873 8.80634 -25.1009 -0.066764 0.244452 -1.44215 
11362 2 7.67126 23.338 3.57304 -29.2496 -0.433897 -0.0582773 0.0273042 
11001 2 2.24723 2.45013 -1.45109 -28.5291 -0.364525 0.00376005 0.0223842 
11442 3 12.701 7.62617 3.51492 -24.7457 1.54834 -0.373803 0.55102 
11324 3 7.62233 18.1024 14.0811 -24.9821 -1.15317 0.871683 -0.338894 
11323 2 7.56653 18.1832 8.73218 -29.0594 -0.15675 0.18936 0.64326 
11404 2 12.7139 2.46021 14.0503 -29.4197 0.705097 -1.01842 0.318828 
11203 3 7.36572 2.38862 8.67473 -25.086 1.52931 -0.315091 1.38054 
11202 2 7.59527 2.47965 3.62665 -29.1213 -0.0407425 0.777931 -0.269008 
11322 2 7.60249 18.1183 3.55896 -29.0811 -0.449574 0.631365 -0.0670469 
11081 2 2.14338 12.7751 -1.61478 -29.0803 -0.087904 1.16724 0.150074 
11164 3 2.30017 23.2701 14.0988 -25.3497 -0.431788 0.724081 -0.721723 
10563 2 12.7041 20.6591 11.3969 -29.92 0.620652 0.353196 -0.574553 
11163 2 2.27039 23.3839 8.73358 -29.1921 0.021913 -1.08871 0.140487 
10442 3 12.8559 5.06468 6.05447 -25.1682 0.191589 0.579746 1.33035 
11162 3 2.2682 23.3955 3.58063 -25.1874 0.406836 -0.515942 -0.191157 
10523 2 12.6058 15.5195 11.3145 -29.4318 1.01613 0.0409034 1.11454 
10481 2 12.7163 10.2174 0.931461 -29.3579 0.346663 0.696981 -0.576955 
10522 2 12.7533 15.4082 6.08453 -29.3775 0.092303 0.831473 0.892889 
8202 2 5.026 -0.133279 3.62836 -28.8257 -1.38985 -0.335443 -0.315345 
8203 2 4.81873 25.8855 8.76859 -29.4149 0.809217 0.901067 0.136924 
8204 2 4.98173 -0.0637081 13.9536 -28.958 0.106833 -1.21634 0.154681 
11124 2 2.22931 18.038 13.9749 -29.4436 0.0229141 0.72254 0.817532 
8242 2 4.79059 5.1546 3.65777 -29.1936 0.790321 -0.456139 -0.0637915 
8243 2 4.95849 5.01085 8.67775 -29.5464 -0.87965 0.652159 0.953367 
8244 2 4.95923 4.96383 14.0154 -28.9575 -1.40984 1.33306 -0.72217 
11082 2 2.13972 12.7636 3.52768 -29.6701 -0.452493 -0.626145 0.918451 
8282 2 4.83947 10.0995 3.58838 -28.6136 0.127738 0.618386 -0.621354 
8283 2 5.0112 10.3051 8.91535 -29.3956 -0.983636 -1.62282 -1.52732 
8284 2 4.8723 10.2487 14.0501 -29.1873 -0.259306 0.570637 0.0373806 
10521 2 12.7528 15.4299 0.947515 -29.136 -0.622595 0.328588 1.1849 
8322 2 4.80287 15.3687 3.539 -29.0945 0.389032 0.540541 -0.041892 
8323 2 4.85982 15.5257 8.82991 -29.4081 -0.206464 -0.423314 -0.572046 
8324 3 4.72764 15.4851 14.051 -25.4209 1.1132 0.659366 -0.243303 
10483 2 12.6089 10.4256 11.2989 -29.6403 0.105771 -0.349837 0.455693 
8362 2 4.96782 20.6852 3.58493 -29.0348 -0.451896 0.913791 -0.973961 
8363 2 4.88994 20.7483 8.8449 -29.2619 -0.806685 0.262076 -0.56967 
8364 2 4.74605 20.7345 14.0811 -29.0888 0.443725 -0.290043 -0.717494 
11444 2 12.6191 7.6967 13.8827 -29.0678 -0.063 0.985248 0.893527 
8402 3 10.1816 -0.151537 3.52225 -25.1318 0.367051 -0.809103 1.06573 
8403 2 10.1728 -0.112983 8.85138 -29.4155 -0.700147 -0.727935 -1.24701 
8404 2 10.1938 -0.120861 14.053 -29.1429 -1.14372 0.634761 -0.826069 
11281 2 7.45001 12.7006 -1.61263 -29.1585 -0.122513 -0.0168637 0.650303 
8442 2 10.1074 5.03884 3.68658 -28.9529 -0.273899 -0.388587 -0.694204 
8443 2 10.12 5.0372 8.69609 -28.9438 1.20444 1.2561 1.7157 
8444 2 10.3347 4.98512 14.1638 -29.012 -1.90804 -0.13106 -1.07624 
11044 2 2.25625 7.66546 14.0139 -29.261 -0.0356809 -0.944869 0.749691 
8482 2 10.1377 10.1612 3.66453 -28.6342 0.694994 2.09195 0.449494 
8483 2 10.1767 10.3512 8.71955 -29.4674 -0.585786 -0.220207 0.917288 
8484 2 10.0222 10.3984 13.9873 -29.5419 0.630075 -1.29068 -0.626231 
11043 2 2.46768 7.56708 8.85663 -29.3192 -0.191595 0.477871 -0.639793 
8522 3 10.1396 15.4626 3.64934 -25.1515 1.11346 0.471303 -0.691191 
8523 2 10.178 15.581 8.71057 -29.0997 -0.500474 0.207391 0.585827 
8524 2 10.1584 15.5256 14.0496 -29.4188 -0.367052 -1.15175 -0.768501 
11563 2 12.7567 23.2407 8.74427 -29.3252 0.14502 0.792129 0.306216 
8562 2 10.1904 20.6047 3.61153 -29.3447 0.040513 1.42138 -0.385926 
8563 2 10.2182 20.7256 8.80298 -29.0646 -0.370062 -0.739945 -0.197088 
8564 3 10.1544 20.8499 13.9986 -25.1249 0.671277 -1.89039 0.689138 
11284 2 7.47232 12.8124 14.0554 -29.9251 0.384101 0.517228 -0.145809 
11283 3 7.5061 12.8988 8.75273 -24.9408 -0.466376 0.274248 0.773927 
11041 2 2.16318 7.69653 -1.66557 -29.2703 -0.624391 -0.368099 -0.269093 
11282 2 7.55067 12.9134 3.70947 -28.9246 0.133442 -0.663914 -1.06497 
11123 2 2.21663 17.9887 8.79331 -29.0907 0.642882 1.19405 0.0263733 
11004 2 2.40615 2.39204 14.0921 -28.8239 -1.58634 0.129558 -0.998158 
11122 2 2.26081 18.1578 3.53432 -29.2001 -0.643224 -0.483103 -0.234579 
8441 2 10.2206 5.04604 -1.64163 -28.9764 -0.570899 -0.328514 0.144044 
11042 2 2.0448 7.76655 3.64039 -28.4002 1.02124 -1.25118 0.0977521 
11244 2 7.63146 7.56417 14.0431 -28.8201 -0.3963 0.00774101 -0.628921 
11243 2 7.59207 7.66819 8.65068 -29.6054 -0.109392 -0.111278 2.12638 
11242 2 7.56762 7.66236 3.67039 -29.3109 -0.92633 -0.237271 -0.887008 
11083 2 2.19066 12.7944 8.84299 -29.8063 1.07323 0.331932 -1.22804 
11204 2 7.64937 2.51273 14.0293 -29.2331 -0.334258 -0.668627 -0.109966 
11084 2 2.09298 13.055 14.1386 -29.5796 0.462098 -1.77107 -0.350124 
9201 3 4.95232 2.48813 1.06124 -25.2774 -1.54635 0.0303914 -0.0382568 
9202 2 4.88431 2.3757 6.11638 -29.5141 -0.180284 0.709146 0.275327 
9203 2 4.96494 2.37381 11.3982 -29.8297 -1.41986 1.34022 -0.985679 
9241 2 4.82749 7.5769 0.96217 -28.9974 1.02978 1.02919 0.265098 
9242 2 5.03568 7.55728 6.24264 -29.3413 -1.58105 0.672097 0.150071 