# LAMMPS data file written by OVITO Basic 3.8.4

600 atoms
3 atom types

0.0 27.2000007629 xlo xhi
0.0 9.4673919678 ylo yhi
0.0 23.598110199 zlo zhi

Masses

1 6.941  # Li
2 28.0855  # Si
3 15.9994  # O

Atoms  # full

1 1 1 0.0 1.872622054 1.645120304 4.692715378
2 1 1 0.0 1.872622054 1.645120304 9.412337489
3 1 1 0.0 1.872622054 1.645120304 14.131959247
4 1 1 0.0 1.872622054 1.645120304 18.851581006
5 1 1 0.0 1.872622054 1.645120304 23.571204171
6 1 1 0.0 7.312622085 1.645120304 4.692715378
7 1 1 0.0 7.312622085 1.645120304 9.412337489
8 1 1 0.0 7.312622085 1.645120304 14.131959247
9 1 1 0.0 7.312622085 1.645120304 18.851581006
10 1 1 0.0 7.312622085 1.645120304 23.571204171
11 1 1 0.0 12.752622724 1.645120304 4.692715378
12 1 1 0.0 12.752622724 1.645120304 9.412337489
13 1 1 0.0 12.752622724 1.645120304 14.131959247
14 1 1 0.0 12.752622724 1.645120304 18.851581006
15 1 1 0.0 12.752622724 1.645120304 23.571204171
16 1 1 0.0 18.192621741 1.645120304 4.692715378
17 1 1 0.0 18.192621741 1.645120304 9.412337489
18 1 1 0.0 18.192621741 1.645120304 14.131959247
19 1 1 0.0 18.192621741 1.645120304 18.851581006
20 1 1 0.0 18.192621741 1.645120304 23.571204171
21 1 1 0.0 23.632623191 1.645120304 4.692715378
22 1 1 0.0 23.632623191 1.645120304 9.412337489
23 1 1 0.0 23.632623191 1.645120304 14.131959247
24 1 1 0.0 23.632623191 1.645120304 18.851581006
25 1 1 0.0 23.632623191 1.645120304 23.571204171
26 1 1 0.0 0.847377962 3.08857568 2.332904499
27 1 1 0.0 0.847377962 3.08857568 7.052526609
28 1 1 0.0 0.847377962 3.08857568 11.772148368
29 1 1 0.0 0.847377962 3.08857568 16.49177083
30 1 1 0.0 0.847377962 3.08857568 21.211392588
31 1 1 0.0 6.287378297 3.08857568 2.332904499
32 1 1 0.0 6.287378297 3.08857568 7.052526609
33 1 1 0.0 6.287378297 3.08857568 11.772148368
34 1 1 0.0 6.287378297 3.08857568 16.49177083
35 1 1 0.0 6.287378297 3.08857568 21.211392588
36 1 1 0.0 11.727378125 3.08857568 2.332904499
37 1 1 0.0 11.727378125 3.08857568 7.052526609
38 1 1 0.0 11.727378125 3.08857568 11.772148368
39 1 1 0.0 11.727378125 3.08857568 16.49177083
40 1 1 0.0 11.727378125 3.08857568 21.211392588
41 1 1 0.0 17.167377953 3.08857568 2.332904499
42 1 1 0.0 17.167377953 3.08857568 7.052526609
43 1 1 0.0 17.167377953 3.08857568 11.772148368
44 1 1 0.0 17.167377953 3.08857568 16.49177083
45 1 1 0.0 17.167377953 3.08857568 21.211392588
46 1 1 0.0 22.607377782 3.08857568 2.332904499
47 1 1 0.0 22.607377782 3.08857568 7.052526609
48 1 1 0.0 22.607377782 3.08857568 11.772148368
49 1 1 0.0 22.607377782 3.08857568 16.49177083
50 1 1 0.0 22.607377782 3.08857568 21.211392588
51 1 1 0.0 3.567377977 1.645120304 2.332904499
52 1 1 0.0 3.567377977 1.645120304 7.052526609
53 1 1 0.0 3.567377977 1.645120304 11.772148368
54 1 1 0.0 3.567377977 1.645120304 16.49177083
55 1 1 0.0 3.567377977 1.645120304 21.211392588
56 1 1 0.0 9.007378211 1.645120304 2.332904499
57 1 1 0.0 9.007378211 1.645120304 7.052526609
58 1 1 0.0 9.007378211 1.645120304 11.772148368
59 1 1 0.0 9.007378211 1.645120304 16.49177083
60 1 1 0.0 9.007378211 1.645120304 21.211392588
61 1 1 0.0 14.44737885 1.645120304 2.332904499
62 1 1 0.0 14.44737885 1.645120304 7.052526609
63 1 1 0.0 14.44737885 1.645120304 11.772148368
64 1 1 0.0 14.44737885 1.645120304 16.49177083
65 1 1 0.0 14.44737885 1.645120304 21.211392588
66 1 1 0.0 19.887378678 1.645120304 2.332904499
67 1 1 0.0 19.887378678 1.645120304 7.052526609
68 1 1 0.0 19.887378678 1.645120304 11.772148368
69 1 1 0.0 19.887378678 1.645120304 16.49177083
70 1 1 0.0 19.887378678 1.645120304 21.211392588
71 1 1 0.0 25.327378507 1.645120304 2.332904499
72 1 1 0.0 25.327378507 1.645120304 7.052526609
73 1 1 0.0 25.327378507 1.645120304 11.772148368
74 1 1 0.0 25.327378507 1.645120304 16.49177083
75 1 1 0.0 25.327378507 1.645120304 21.211392588
76 1 1 0.0 4.592622171 3.08857568 4.692715378
77 1 1 0.0 4.592622171 3.08857568 9.412337489
78 1 1 0.0 4.592622171 3.08857568 14.131959247
79 1 1 0.0 4.592622171 3.08857568 18.851581006
80 1 1 0.0 4.592622171 3.08857568 23.571204171
81 1 1 0.0 10.032621999 3.08857568 4.692715378
82 1 1 0.0 10.032621999 3.08857568 9.412337489
83 1 1 0.0 10.032621999 3.08857568 14.131959247
84 1 1 0.0 10.032621999 3.08857568 18.851581006
85 1 1 0.0 10.032621999 3.08857568 23.571204171
86 1 1 0.0 15.472622638 3.08857568 4.692715378
87 1 1 0.0 15.472622638 3.08857568 9.412337489
88 1 1 0.0 15.472622638 3.08857568 14.131959247
89 1 1 0.0 15.472622638 3.08857568 18.851581006
90 1 1 0.0 15.472622638 3.08857568 23.571204171
91 1 1 0.0 20.912622466 3.08857568 4.692715378
92 1 1 0.0 20.912622466 3.08857568 9.412337489
93 1 1 0.0 20.912622466 3.08857568 14.131959247
94 1 1 0.0 20.912622466 3.08857568 18.851581006
95 1 1 0.0 20.912622466 3.08857568 23.571204171
96 1 1 0.0 26.352622294 3.08857568 4.692715378
97 1 1 0.0 26.352622294 3.08857568 9.412337489
98 1 1 0.0 26.352622294 3.08857568 14.131959247
99 1 1 0.0 26.352622294 3.08857568 18.851581006
100 1 1 0.0 26.352622294 3.08857568 23.571204171
101 1 1 0.0 4.592622171 6.378816006 4.692715378
102 1 1 0.0 4.592622171 6.378816006 9.412337489
103 1 1 0.0 4.592622171 6.378816006 14.131959247
104 1 1 0.0 4.592622171 6.378816006 18.851581006
105 1 1 0.0 4.592622171 6.378816006 23.571204171
106 1 1 0.0 10.032621999 6.378816006 4.692715378
107 1 1 0.0 10.032621999 6.378816006 9.412337489
108 1 1 0.0 10.032621999 6.378816006 14.131959247
109 1 1 0.0 10.032621999 6.378816006 18.851581006
110 1 1 0.0 10.032621999 6.378816006 23.571204171
111 1 1 0.0 15.472622638 6.378816006 4.692715378
112 1 1 0.0 15.472622638 6.378816006 9.412337489
113 1 1 0.0 15.472622638 6.378816006 14.131959247
114 1 1 0.0 15.472622638 6.378816006 18.851581006
115 1 1 0.0 15.472622638 6.378816006 23.571204171
116 1 1 0.0 20.912622466 6.378816006 4.692715378
117 1 1 0.0 20.912622466 6.378816006 9.412337489
118 1 1 0.0 20.912622466 6.378816006 14.131959247
119 1 1 0.0 20.912622466 6.378816006 18.851581006
120 1 1 0.0 20.912622466 6.378816006 23.571204171
121 1 1 0.0 26.352622294 6.378816006 4.692715378
122 1 1 0.0 26.352622294 6.378816006 9.412337489
123 1 1 0.0 26.352622294 6.378816006 14.131959247
124 1 1 0.0 26.352622294 6.378816006 18.851581006
125 1 1 0.0 26.352622294 6.378816006 23.571204171
126 1 1 0.0 3.567377977 7.822271946 2.332904499
127 1 1 0.0 3.567377977 7.822271946 7.052526609
128 1 1 0.0 3.567377977 7.822271946 11.772148368
129 1 1 0.0 3.567377977 7.822271946 16.49177083
130 1 1 0.0 3.567377977 7.822271946 21.211392588
131 1 1 0.0 9.007378211 7.822271946 2.332904499
132 1 1 0.0 9.007378211 7.822271946 7.052526609
133 1 1 0.0 9.007378211 7.822271946 11.772148368
134 1 1 0.0 9.007378211 7.822271946 16.49177083
135 1 1 0.0 9.007378211 7.822271946 21.211392588
136 1 1 0.0 14.44737885 7.822271946 2.332904499
137 1 1 0.0 14.44737885 7.822271946 7.052526609
138 1 1 0.0 14.44737885 7.822271946 11.772148368
139 1 1 0.0 14.44737885 7.822271946 16.49177083
140 1 1 0.0 14.44737885 7.822271946 21.211392588
141 1 1 0.0 19.887378678 7.822271946 2.332904499
142 1 1 0.0 19.887378678 7.822271946 7.052526609
143 1 1 0.0 19.887378678 7.822271946 11.772148368
144 1 1 0.0 19.887378678 7.822271946 16.49177083
145 1 1 0.0 19.887378678 7.822271946 21.211392588
146 1 1 0.0 25.327378507 7.822271946 2.332904499
147 1 1 0.0 25.327378507 7.822271946 7.052526609
148 1 1 0.0 25.327378507 7.822271946 11.772148368
149 1 1 0.0 25.327378507 7.822271946 16.49177083
150 1 1 0.0 25.327378507 7.822271946 21.211392588
151 1 1 0.0 0.847377962 6.378816006 2.332904499
152 1 1 0.0 0.847377962 6.378816006 7.052526609
153 1 1 0.0 0.847377962 6.378816006 11.772148368
154 1 1 0.0 0.847377962 6.378816006 16.49177083
155 1 1 0.0 0.847377962 6.378816006 21.211392588
156 1 1 0.0 6.287378297 6.378816006 2.332904499
157 1 1 0.0 6.287378297 6.378816006 7.052526609
158 1 1 0.0 6.287378297 6.378816006 11.772148368
159 1 1 0.0 6.287378297 6.378816006 16.49177083
160 1 1 0.0 6.287378297 6.378816006 21.211392588
161 1 1 0.0 11.727378125 6.378816006 2.332904499
162 1 1 0.0 11.727378125 6.378816006 7.052526609
163 1 1 0.0 11.727378125 6.378816006 11.772148368
164 1 1 0.0 11.727378125 6.378816006 16.49177083
165 1 1 0.0 11.727378125 6.378816006 21.211392588
166 1 1 0.0 17.167377953 6.378816006 2.332904499
167 1 1 0.0 17.167377953 6.378816006 7.052526609
168 1 1 0.0 17.167377953 6.378816006 11.772148368
169 1 1 0.0 17.167377953 6.378816006 16.49177083
170 1 1 0.0 17.167377953 6.378816006 21.211392588
171 1 1 0.0 22.607377782 6.378816006 2.332904499
172 1 1 0.0 22.607377782 6.378816006 7.052526609
173 1 1 0.0 22.607377782 6.378816006 11.772148368
174 1 1 0.0 22.607377782 6.378816006 16.49177083
175 1 1 0.0 22.607377782 6.378816006 21.211392588
176 1 1 0.0 1.872622054 7.822271946 4.692715378
177 1 1 0.0 1.872622054 7.822271946 9.412337489
178 1 1 0.0 1.872622054 7.822271946 14.131959247
179 1 1 0.0 1.872622054 7.822271946 18.851581006
180 1 1 0.0 1.872622054 7.822271946 23.571204171
181 1 1 0.0 7.312622085 7.822271946 4.692715378
182 1 1 0.0 7.312622085 7.822271946 9.412337489
183 1 1 0.0 7.312622085 7.822271946 14.131959247
184 1 1 0.0 7.312622085 7.822271946 18.851581006
185 1 1 0.0 7.312622085 7.822271946 23.571204171
186 1 1 0.0 12.752622724 7.822271946 4.692715378
187 1 1 0.0 12.752622724 7.822271946 9.412337489
188 1 1 0.0 12.752622724 7.822271946 14.131959247
189 1 1 0.0 12.752622724 7.822271946 18.851581006
190 1 1 0.0 12.752622724 7.822271946 23.571204171
191 1 1 0.0 18.192621741 7.822271946 4.692715378
192 1 1 0.0 18.192621741 7.822271946 9.412337489
193 1 1 0.0 18.192621741 7.822271946 14.131959247
194 1 1 0.0 18.192621741 7.822271946 18.851581006
195 1 1 0.0 18.192621741 7.822271946 23.571204171
196 1 1 0.0 23.632623191 7.822271946 4.692715378
197 1 1 0.0 23.632623191 7.822271946 9.412337489
198 1 1 0.0 23.632623191 7.822271946 14.131959247
199 1 1 0.0 23.632623191 7.822271946 18.851581006
200 1 1 0.0 23.632623191 7.822271946 23.571204171
201 1 2 0.0 0.93417311 0.0 2.357625793
202 1 2 0.0 0.93417311 0.0 7.077247551
203 1 2 0.0 0.93417311 0.0 11.796870013
204 1 2 0.0 0.93417311 0.0 16.516492475
205 1 2 0.0 0.93417311 0.0 21.236114233
206 1 2 0.0 6.374173343 0.0 2.357625793
207 1 2 0.0 6.374173343 0.0 7.077247551
208 1 2 0.0 6.374173343 0.0 11.796870013
209 1 2 0.0 6.374173343 0.0 16.516492475
210 1 2 0.0 6.374173343 0.0 21.236114233
211 1 2 0.0 11.814173171 0.0 2.357625793
212 1 2 0.0 11.814173171 0.0 7.077247551
213 1 2 0.0 11.814173171 0.0 11.796870013
214 1 2 0.0 11.814173171 0.0 16.516492475
215 1 2 0.0 11.814173171 0.0 21.236114233
216 1 2 0.0 17.254173 0.0 2.357625793
217 1 2 0.0 17.254173 0.0 7.077247551
218 1 2 0.0 17.254173 0.0 11.796870013
219 1 2 0.0 17.254173 0.0 16.516492475
220 1 2 0.0 17.254173 0.0 21.236114233
221 1 2 0.0 22.694174449 0.0 2.357625793
222 1 2 0.0 22.694174449 0.0 7.077247551
223 1 2 0.0 22.694174449 0.0 11.796870013
224 1 2 0.0 22.694174449 0.0 16.516492475
225 1 2 0.0 22.694174449 0.0 21.236114233
226 1 2 0.0 4.505827124 0.0 4.717436672
227 1 2 0.0 4.505827124 0.0 9.437058431
228 1 2 0.0 4.505827124 0.0 14.156680892
229 1 2 0.0 4.505827124 0.0 18.876302651
230 1 2 0.0 4.505827124 0.0 23.595924409
231 1 2 0.0 9.945826952 0.0 4.717436672
232 1 2 0.0 9.945826952 0.0 9.437058431
233 1 2 0.0 9.945826952 0.0 14.156680892
234 1 2 0.0 9.945826952 0.0 18.876302651
235 1 2 0.0 9.945826952 0.0 23.595924409
236 1 2 0.0 15.385827591 0.0 4.717436672
237 1 2 0.0 15.385827591 0.0 9.437058431
238 1 2 0.0 15.385827591 0.0 14.156680892
239 1 2 0.0 15.385827591 0.0 18.876302651
240 1 2 0.0 15.385827591 0.0 23.595924409
241 1 2 0.0 20.82582742 0.0 4.717436672
242 1 2 0.0 20.82582742 0.0 9.437058431
243 1 2 0.0 20.82582742 0.0 14.156680892
244 1 2 0.0 20.82582742 0.0 18.876302651
245 1 2 0.0 20.82582742 0.0 23.595924409
246 1 2 0.0 26.265827248 0.0 4.717436672
247 1 2 0.0 26.265827248 0.0 9.437058431
248 1 2 0.0 26.265827248 0.0 14.156680892
249 1 2 0.0 26.265827248 0.0 18.876302651
250 1 2 0.0 26.265827248 0.0 23.595924409
251 1 2 0.0 3.654173429 4.733695984 2.357625793
252 1 2 0.0 3.654173429 4.733695984 7.077247551
253 1 2 0.0 3.654173429 4.733695984 11.796870013
254 1 2 0.0 3.654173429 4.733695984 16.516492475
255 1 2 0.0 3.654173429 4.733695984 21.236114233
256 1 2 0.0 9.094173257 4.733695984 2.357625793
257 1 2 0.0 9.094173257 4.733695984 7.077247551
258 1 2 0.0 9.094173257 4.733695984 11.796870013
259 1 2 0.0 9.094173257 4.733695984 16.516492475
260 1 2 0.0 9.094173257 4.733695984 21.236114233
261 1 2 0.0 14.534173896 4.733695984 2.357625793
262 1 2 0.0 14.534173896 4.733695984 7.077247551
263 1 2 0.0 14.534173896 4.733695984 11.796870013
264 1 2 0.0 14.534173896 4.733695984 16.516492475
265 1 2 0.0 14.534173896 4.733695984 21.236114233
266 1 2 0.0 19.974173725 4.733695984 2.357625793
267 1 2 0.0 19.974173725 4.733695984 7.077247551
268 1 2 0.0 19.974173725 4.733695984 11.796870013
269 1 2 0.0 19.974173725 4.733695984 16.516492475
270 1 2 0.0 19.974173725 4.733695984 21.236114233
271 1 2 0.0 25.414173553 4.733695984 2.357625793
272 1 2 0.0 25.414173553 4.733695984 7.077247551
273 1 2 0.0 25.414173553 4.733695984 11.796870013
274 1 2 0.0 25.414173553 4.733695984 16.516492475
275 1 2 0.0 25.414173553 4.733695984 21.236114233
276 1 2 0.0 1.785826805 4.733695984 4.717436672
277 1 2 0.0 1.785826805 4.733695984 9.437058431
278 1 2 0.0 1.785826805 4.733695984 14.156680892
279 1 2 0.0 1.785826805 4.733695984 18.876302651
280 1 2 0.0 1.785826805 4.733695984 23.595924409
281 1 2 0.0 7.225827038 4.733695984 4.717436672
282 1 2 0.0 7.225827038 4.733695984 9.437058431
283 1 2 0.0 7.225827038 4.733695984 14.156680892
284 1 2 0.0 7.225827038 4.733695984 18.876302651
285 1 2 0.0 7.225827038 4.733695984 23.595924409
286 1 2 0.0 12.665826867 4.733695984 4.717436672
287 1 2 0.0 12.665826867 4.733695984 9.437058431
288 1 2 0.0 12.665826867 4.733695984 14.156680892
289 1 2 0.0 12.665826867 4.733695984 18.876302651
290 1 2 0.0 12.665826867 4.733695984 23.595924409
291 1 2 0.0 18.105826695 4.733695984 4.717436672
292 1 2 0.0 18.105826695 4.733695984 9.437058431
293 1 2 0.0 18.105826695 4.733695984 14.156680892
294 1 2 0.0 18.105826695 4.733695984 18.876302651
295 1 2 0.0 18.105826695 4.733695984 23.595924409
296 1 2 0.0 23.545828145 4.733695984 4.717436672
297 1 2 0.0 23.545828145 4.733695984 9.437058431
298 1 2 0.0 23.545828145 4.733695984 14.156680892
299 1 2 0.0 23.545828145 4.733695984 18.876302651
300 1 2 0.0 23.545828145 4.733695984 23.595924409
301 1 3 0.0 0.624435863 0.0 0.686303807
302 1 3 0.0 0.624435863 0.0 5.405925917
303 1 3 0.0 0.624435863 0.0 10.125547675
304 1 3 0.0 0.624435863 0.0 14.845169434
305 1 3 0.0 0.624435863 0.0 19.564792599
306 1 3 0.0 6.064435843 0.0 0.686303807
307 1 3 0.0 6.064435843 0.0 5.405925917
308 1 3 0.0 6.064435843 0.0 10.125547675
309 1 3 0.0 6.064435843 0.0 14.845169434
310 1 3 0.0 6.064435843 0.0 19.564792599
311 1 3 0.0 11.504436482 0.0 0.686303807
312 1 3 0.0 11.504436482 0.0 5.405925917
313 1 3 0.0 11.504436482 0.0 10.125547675
314 1 3 0.0 11.504436482 0.0 14.845169434
315 1 3 0.0 11.504436482 0.0 19.564792599
316 1 3 0.0 16.944437121 0.0 0.686303807
317 1 3 0.0 16.944437121 0.0 5.405925917
318 1 3 0.0 16.944437121 0.0 10.125547675
319 1 3 0.0 16.944437121 0.0 14.845169434
320 1 3 0.0 16.944437121 0.0 19.564792599
321 1 3 0.0 22.384436949 0.0 0.686303807
322 1 3 0.0 22.384436949 0.0 5.405925917
323 1 3 0.0 22.384436949 0.0 10.125547675
324 1 3 0.0 22.384436949 0.0 14.845169434
325 1 3 0.0 22.384436949 0.0 19.564792599
326 1 3 0.0 4.403122787 3.359253153 2.741279153
327 1 3 0.0 4.403122787 3.359253153 7.460901439
328 1 3 0.0 4.403122787 3.359253153 12.180523197
329 1 3 0.0 4.403122787 3.359253153 16.900144956
330 1 3 0.0 4.403122787 3.359253153 21.619766714
331 1 3 0.0 9.843122615 3.359253153 2.741279153
332 1 3 0.0 9.843122615 3.359253153 7.460901439
333 1 3 0.0 9.843122615 3.359253153 12.180523197
334 1 3 0.0 9.843122615 3.359253153 16.900144956
335 1 3 0.0 9.843122615 3.359253153 21.619766714
336 1 3 0.0 15.283123254 3.359253153 2.741279153
337 1 3 0.0 15.283123254 3.359253153 7.460901439
338 1 3 0.0 15.283123254 3.359253153 12.180523197
339 1 3 0.0 15.283123254 3.359253153 16.900144956
340 1 3 0.0 15.283123254 3.359253153 21.619766714
341 1 3 0.0 20.723123083 3.359253153 2.741279153
342 1 3 0.0 20.723123083 3.359253153 7.460901439
343 1 3 0.0 20.723123083 3.359253153 12.180523197
344 1 3 0.0 20.723123083 3.359253153 16.900144956
345 1 3 0.0 20.723123083 3.359253153 21.619766714
346 1 3 0.0 26.163122911 3.359253153 2.741279153
347 1 3 0.0 26.163122911 3.359253153 7.460901439
348 1 3 0.0 26.163122911 3.359253153 12.180523197
349 1 3 0.0 26.163122911 3.359253153 16.900144956
350 1 3 0.0 26.163122911 3.359253153 21.619766714
351 1 3 0.0 1.683122366 1.374442831 2.741279153
352 1 3 0.0 1.683122366 1.374442831 7.460901439
353 1 3 0.0 1.683122366 1.374442831 12.180523197
354 1 3 0.0 1.683122366 1.374442831 16.900144956
355 1 3 0.0 1.683122366 1.374442831 21.619766714
356 1 3 0.0 7.123122701 1.374442831 2.741279153
357 1 3 0.0 7.123122701 1.374442831 7.460901439
358 1 3 0.0 7.123122701 1.374442831 12.180523197
359 1 3 0.0 7.123122701 1.374442831 16.900144956
360 1 3 0.0 7.123122701 1.374442831 21.619766714
361 1 3 0.0 12.56312253 1.374442831 2.741279153
362 1 3 0.0 12.56312253 1.374442831 7.460901439
363 1 3 0.0 12.56312253 1.374442831 12.180523197
364 1 3 0.0 12.56312253 1.374442831 16.900144956
365 1 3 0.0 12.56312253 1.374442831 21.619766714
366 1 3 0.0 18.003122358 1.374442831 2.741279153
367 1 3 0.0 18.003122358 1.374442831 7.460901439
368 1 3 0.0 18.003122358 1.374442831 12.180523197
369 1 3 0.0 18.003122358 1.374442831 16.900144956
370 1 3 0.0 18.003122358 1.374442831 21.619766714
371 1 3 0.0 23.443122186 1.374442831 2.741279153
372 1 3 0.0 23.443122186 1.374442831 7.460901439
373 1 3 0.0 23.443122186 1.374442831 12.180523197
374 1 3 0.0 23.443122186 1.374442831 16.900144956
375 1 3 0.0 23.443122186 1.374442831 21.619766714
376 1 3 0.0 4.815564219 0.0 3.046115038
377 1 3 0.0 4.815564219 0.0 7.765736796
378 1 3 0.0 4.815564219 0.0 12.485359258
379 1 3 0.0 4.815564219 0.0 17.204981016
380 1 3 0.0 4.815564219 0.0 21.924602775
381 1 3 0.0 10.255564453 0.0 3.046115038
382 1 3 0.0 10.255564453 0.0 7.765736796
383 1 3 0.0 10.255564453 0.0 12.485359258
384 1 3 0.0 10.255564453 0.0 17.204981016
385 1 3 0.0 10.255564453 0.0 21.924602775
386 1 3 0.0 15.695565092 0.0 3.046115038
387 1 3 0.0 15.695565092 0.0 7.765736796
388 1 3 0.0 15.695565092 0.0 12.485359258
389 1 3 0.0 15.695565092 0.0 17.204981016
390 1 3 0.0 15.695565092 0.0 21.924602775
391 1 3 0.0 21.13556492 0.0 3.046115038
392 1 3 0.0 21.13556492 0.0 7.765736796
393 1 3 0.0 21.13556492 0.0 12.485359258
394 1 3 0.0 21.13556492 0.0 17.204981016
395 1 3 0.0 21.13556492 0.0 21.924602775
396 1 3 0.0 26.575564748 0.0 3.046115038
397 1 3 0.0 26.575564748 0.0 7.765736796
398 1 3 0.0 26.575564748 0.0 12.485359258
399 1 3 0.0 26.575564748 0.0 17.204981016
400 1 3 0.0 26.575564748 0.0 21.924602775
401 1 3 0.0 1.036877649 3.359253153 0.381468186
402 1 3 0.0 1.036877649 3.359253153 5.101090208
403 1 3 0.0 1.036877649 3.359253153 9.820712318
404 1 3 0.0 1.036877649 3.359253153 14.54033478
405 1 3 0.0 1.036877649 3.359253153 19.259956538
406 1 3 0.0 6.47687768 3.359253153 0.381468186
407 1 3 0.0 6.47687768 3.359253153 5.101090208
408 1 3 0.0 6.47687768 3.359253153 9.820712318
409 1 3 0.0 6.47687768 3.359253153 14.54033478
410 1 3 0.0 6.47687768 3.359253153 19.259956538
411 1 3 0.0 11.916878319 3.359253153 0.381468186
412 1 3 0.0 11.916878319 3.359253153 5.101090208
413 1 3 0.0 11.916878319 3.359253153 9.820712318
414 1 3 0.0 11.916878319 3.359253153 14.54033478
415 1 3 0.0 11.916878319 3.359253153 19.259956538
416 1 3 0.0 17.356877337 3.359253153 0.381468186
417 1 3 0.0 17.356877337 3.359253153 5.101090208
418 1 3 0.0 17.356877337 3.359253153 9.820712318
419 1 3 0.0 17.356877337 3.359253153 14.54033478
420 1 3 0.0 17.356877337 3.359253153 19.259956538
421 1 3 0.0 22.796878787 3.359253153 0.381468186
422 1 3 0.0 22.796878787 3.359253153 5.101090208
423 1 3 0.0 22.796878787 3.359253153 9.820712318
424 1 3 0.0 22.796878787 3.359253153 14.54033478
425 1 3 0.0 22.796878787 3.359253153 19.259956538
426 1 3 0.0 3.756877766 1.374442831 0.381468186
427 1 3 0.0 3.756877766 1.374442831 5.101090208
428 1 3 0.0 3.756877766 1.374442831 9.820712318
429 1 3 0.0 3.756877766 1.374442831 14.54033478
430 1 3 0.0 3.756877766 1.374442831 19.259956538
431 1 3 0.0 9.196877594 1.374442831 0.381468186
432 1 3 0.0 9.196877594 1.374442831 5.101090208
433 1 3 0.0 9.196877594 1.374442831 9.820712318
434 1 3 0.0 9.196877594 1.374442831 14.54033478
435 1 3 0.0 9.196877594 1.374442831 19.259956538
436 1 3 0.0 14.636878233 1.374442831 0.381468186
437 1 3 0.0 14.636878233 1.374442831 5.101090208
438 1 3 0.0 14.636878233 1.374442831 9.820712318
439 1 3 0.0 14.636878233 1.374442831 14.54033478
440 1 3 0.0 14.636878233 1.374442831 19.259956538
441 1 3 0.0 20.076878062 1.374442831 0.381468186
442 1 3 0.0 20.076878062 1.374442831 5.101090208
443 1 3 0.0 20.076878062 1.374442831 9.820712318
444 1 3 0.0 20.076878062 1.374442831 14.54033478
445 1 3 0.0 20.076878062 1.374442831 19.259956538
446 1 3 0.0 25.51687789 1.374442831 0.381468186
447 1 3 0.0 25.51687789 1.374442831 5.101090208
448 1 3 0.0 25.51687789 1.374442831 9.820712318
449 1 3 0.0 25.51687789 1.374442831 14.54033478
450 1 3 0.0 25.51687789 1.374442831 19.259956538
451 1 3 0.0 3.344436131 4.733695984 0.686303807
452 1 3 0.0 3.344436131 4.733695984 5.405925917
453 1 3 0.0 3.344436131 4.733695984 10.125547675
454 1 3 0.0 3.344436131 4.733695984 14.845169434
455 1 3 0.0 3.344436131 4.733695984 19.564792599
456 1 3 0.0 8.784436568 4.733695984 0.686303807
457 1 3 0.0 8.784436568 4.733695984 5.405925917
458 1 3 0.0 8.784436568 4.733695984 10.125547675
459 1 3 0.0 8.784436568 4.733695984 14.845169434
460 1 3 0.0 8.784436568 4.733695984 19.564792599
461 1 3 0.0 14.224436396 4.733695984 0.686303807
462 1 3 0.0 14.224436396 4.733695984 5.405925917
463 1 3 0.0 14.224436396 4.733695984 10.125547675
464 1 3 0.0 14.224436396 4.733695984 14.845169434
465 1 3 0.0 14.224436396 4.733695984 19.564792599
466 1 3 0.0 19.664436224 4.733695984 0.686303807
467 1 3 0.0 19.664436224 4.733695984 5.405925917
468 1 3 0.0 19.664436224 4.733695984 10.125547675
469 1 3 0.0 19.664436224 4.733695984 14.845169434
470 1 3 0.0 19.664436224 4.733695984 19.564792599
471 1 3 0.0 25.104436053 4.733695984 0.686303807
472 1 3 0.0 25.104436053 4.733695984 5.405925917
473 1 3 0.0 25.104436053 4.733695984 10.125547675
474 1 3 0.0 25.104436053 4.733695984 14.845169434
475 1 3 0.0 25.104436053 4.733695984 19.564792599
476 1 3 0.0 1.683122366 8.092949419 2.741279153
477 1 3 0.0 1.683122366 8.092949419 7.460901439
478 1 3 0.0 1.683122366 8.092949419 12.180523197
479 1 3 0.0 1.683122366 8.092949419 16.900144956
480 1 3 0.0 1.683122366 8.092949419 21.619766714
481 1 3 0.0 7.123122701 8.092949419 2.741279153
482 1 3 0.0 7.123122701 8.092949419 7.460901439
483 1 3 0.0 7.123122701 8.092949419 12.180523197
484 1 3 0.0 7.123122701 8.092949419 16.900144956
485 1 3 0.0 7.123122701 8.092949419 21.619766714
486 1 3 0.0 12.56312253 8.092949419 2.741279153
487 1 3 0.0 12.56312253 8.092949419 7.460901439
488 1 3 0.0 12.56312253 8.092949419 12.180523197
489 1 3 0.0 12.56312253 8.092949419 16.900144956
490 1 3 0.0 12.56312253 8.092949419 21.619766714
491 1 3 0.0 18.003122358 8.092949419 2.741279153
492 1 3 0.0 18.003122358 8.092949419 7.460901439
493 1 3 0.0 18.003122358 8.092949419 12.180523197
494 1 3 0.0 18.003122358 8.092949419 16.900144956
495 1 3 0.0 18.003122358 8.092949419 21.619766714
496 1 3 0.0 23.443122186 8.092949419 2.741279153
497 1 3 0.0 23.443122186 8.092949419 7.460901439
498 1 3 0.0 23.443122186 8.092949419 12.180523197
499 1 3 0.0 23.443122186 8.092949419 16.900144956
500 1 3 0.0 23.443122186 8.092949419 21.619766714
501 1 3 0.0 4.403122787 6.108138533 2.741279153
502 1 3 0.0 4.403122787 6.108138533 7.460901439
503 1 3 0.0 4.403122787 6.108138533 12.180523197
504 1 3 0.0 4.403122787 6.108138533 16.900144956
505 1 3 0.0 4.403122787 6.108138533 21.619766714
506 1 3 0.0 9.843122615 6.108138533 2.741279153
507 1 3 0.0 9.843122615 6.108138533 7.460901439
508 1 3 0.0 9.843122615 6.108138533 12.180523197
509 1 3 0.0 9.843122615 6.108138533 16.900144956
510 1 3 0.0 9.843122615 6.108138533 21.619766714
511 1 3 0.0 15.283123254 6.108138533 2.741279153
512 1 3 0.0 15.283123254 6.108138533 7.460901439
513 1 3 0.0 15.283123254 6.108138533 12.180523197
514 1 3 0.0 15.283123254 6.108138533 16.900144956
515 1 3 0.0 15.283123254 6.108138533 21.619766714
516 1 3 0.0 20.723123083 6.108138533 2.741279153
517 1 3 0.0 20.723123083 6.108138533 7.460901439
518 1 3 0.0 20.723123083 6.108138533 12.180523197
519 1 3 0.0 20.723123083 6.108138533 16.900144956
520 1 3 0.0 20.723123083 6.108138533 21.619766714
521 1 3 0.0 26.163122911 6.108138533 2.741279153
522 1 3 0.0 26.163122911 6.108138533 7.460901439
523 1 3 0.0 26.163122911 6.108138533 12.180523197
524 1 3 0.0 26.163122911 6.108138533 16.900144956
525 1 3 0.0 26.163122911 6.108138533 21.619766714
526 1 3 0.0 2.095564305 4.733695984 3.046115038
527 1 3 0.0 2.095564305 4.733695984 7.765736796
528 1 3 0.0 2.095564305 4.733695984 12.485359258
529 1 3 0.0 2.095564305 4.733695984 17.204981016
530 1 3 0.0 2.095564305 4.733695984 21.924602775
531 1 3 0.0 7.535564539 4.733695984 3.046115038
532 1 3 0.0 7.535564539 4.733695984 7.765736796
533 1 3 0.0 7.535564539 4.733695984 12.485359258
534 1 3 0.0 7.535564539 4.733695984 17.204981016
535 1 3 0.0 7.535564539 4.733695984 21.924602775
536 1 3 0.0 12.975564367 4.733695984 3.046115038
537 1 3 0.0 12.975564367 4.733695984 7.765736796
538 1 3 0.0 12.975564367 4.733695984 12.485359258
539 1 3 0.0 12.975564367 4.733695984 17.204981016
540 1 3 0.0 12.975564367 4.733695984 21.924602775
541 1 3 0.0 18.415564195 4.733695984 3.046115038
542 1 3 0.0 18.415564195 4.733695984 7.765736796
543 1 3 0.0 18.415564195 4.733695984 12.485359258
544 1 3 0.0 18.415564195 4.733695984 17.204981016
545 1 3 0.0 18.415564195 4.733695984 21.924602775
546 1 3 0.0 23.855565645 4.733695984 3.046115038
547 1 3 0.0 23.855565645 4.733695984 7.765736796
548 1 3 0.0 23.855565645 4.733695984 12.485359258
549 1 3 0.0 23.855565645 4.733695984 17.204981016
550 1 3 0.0 23.855565645 4.733695984 21.924602775
551 1 3 0.0 3.756877766 8.092949419 0.381468186
552 1 3 0.0 3.756877766 8.092949419 5.101090208
553 1 3 0.0 3.756877766 8.092949419 9.820712318
554 1 3 0.0 3.756877766 8.092949419 14.54033478
555 1 3 0.0 3.756877766 8.092949419 19.259956538
556 1 3 0.0 9.196877594 8.092949419 0.381468186
557 1 3 0.0 9.196877594 8.092949419 5.101090208
558 1 3 0.0 9.196877594 8.092949419 9.820712318
559 1 3 0.0 9.196877594 8.092949419 14.54033478
560 1 3 0.0 9.196877594 8.092949419 19.259956538
561 1 3 0.0 14.636878233 8.092949419 0.381468186
562 1 3 0.0 14.636878233 8.092949419 5.101090208
563 1 3 0.0 14.636878233 8.092949419 9.820712318
564 1 3 0.0 14.636878233 8.092949419 14.54033478
565 1 3 0.0 14.636878233 8.092949419 19.259956538
566 1 3 0.0 20.076878062 8.092949419 0.381468186
567 1 3 0.0 20.076878062 8.092949419 5.101090208
568 1 3 0.0 20.076878062 8.092949419 9.820712318
569 1 3 0.0 20.076878062 8.092949419 14.54033478
570 1 3 0.0 20.076878062 8.092949419 19.259956538
571 1 3 0.0 25.51687789 8.092949419 0.381468186
572 1 3 0.0 25.51687789 8.092949419 5.101090208
573 1 3 0.0 25.51687789 8.092949419 9.820712318
574 1 3 0.0 25.51687789 8.092949419 14.54033478
575 1 3 0.0 25.51687789 8.092949419 19.259956538
576 1 3 0.0 1.036877649 6.108138533 0.381468186
577 1 3 0.0 1.036877649 6.108138533 5.101090208
578 1 3 0.0 1.036877649 6.108138533 9.820712318
579 1 3 0.0 1.036877649 6.108138533 14.54033478
580 1 3 0.0 1.036877649 6.108138533 19.259956538
581 1 3 0.0 6.47687768 6.108138533 0.381468186
582 1 3 0.0 6.47687768 6.108138533 5.101090208
583 1 3 0.0 6.47687768 6.108138533 9.820712318
584 1 3 0.0 6.47687768 6.108138533 14.54033478
585 1 3 0.0 6.47687768 6.108138533 19.259956538
586 1 3 0.0 11.916878319 6.108138533 0.381468186
587 1 3 0.0 11.916878319 6.108138533 5.101090208
588 1 3 0.0 11.916878319 6.108138533 9.820712318
589 1 3 0.0 11.916878319 6.108138533 14.54033478
590 1 3 0.0 11.916878319 6.108138533 19.259956538
591 1 3 0.0 17.356877337 6.108138533 0.381468186
592 1 3 0.0 17.356877337 6.108138533 5.101090208
593 1 3 0.0 17.356877337 6.108138533 9.820712318
594 1 3 0.0 17.356877337 6.108138533 14.54033478
595 1 3 0.0 17.356877337 6.108138533 19.259956538
596 1 3 0.0 22.796878787 6.108138533 0.381468186
597 1 3 0.0 22.796878787 6.108138533 5.101090208
598 1 3 0.0 22.796878787 6.108138533 9.820712318
599 1 3 0.0 22.796878787 6.108138533 14.54033478
600 1 3 0.0 22.796878787 6.108138533 19.259956538
