LAMMPS (22 Dec 2022)
  using 1 OpenMP thread(s) per MPI task
Loaded 1 plugins from C:\Program Files\LAMMPS 64-bit 23Jun2022\plugins
Loaded 0 plugins from C:\Program Files\LAMMPS 64-bit 23Jun2022-MPI\plugins
Loaded 1 plugins from C:\Program Files\LAMMPS 64-bit 22Dec2022-MSMPI\plugins
Loaded 1 plugins from C:\Program Files\LAMMPS 64-bit 28Mar2023-MPI\plugins
#------------------------------------------------------------------------------------------
# LAMMPS 64-bit 22Dec2022-MSMPI
#------------------------------------------------------------------------------------------
clear
  using 1 OpenMP thread(s) per MPI task
Loaded 1 plugins from C:\Program Files\LAMMPS 64-bit 23Jun2022\plugins
Loaded 0 plugins from C:\Program Files\LAMMPS 64-bit 23Jun2022-MPI\plugins
Loaded 1 plugins from C:\Program Files\LAMMPS 64-bit 22Dec2022-MSMPI\plugins
Loaded 1 plugins from C:\Program Files\LAMMPS 64-bit 28Mar2023-MPI\plugins
#echo both
# ---------- Initializing Simulation ---------------------------------
units metal
dimension 3
boundary p p p
atom_style atomic
atom_modify map array

read_data ./../../RePt3.data
Reading data file ...
  orthogonal box = (0 0 0) to (3.885 3.885 3.885)
  2 by 2 by 2 MPI processor grid
  reading atoms ...
  4 atoms
  read_data CPU = 0.001 seconds

replicate 1 1 1
Replication is creating a 1x1x1 = 1 times larger system...
  orthogonal box = (0 0 0) to (3.885 3.885 3.885)
  2 by 2 by 2 MPI processor grid
  4 atoms
  replicate CPU = 0.000 seconds

# ---------- Defining the Interatomic Potential ---------------------
pair_style meam
pair_coeff * * ./../../library.meam Re Pt ./../../RePt.meam Re Pt

# ---------- Running Minimization -------------------------------------
fix 1 all box/relax iso 0.0 vmax 0.001

thermo 10
thermo_style custom step pe etotal lx ly lz vol press pxx pyy pzz

min_style cg
minimize 1e-25 1e-25 5000 10000
Neighbor list info ...
  update: every = 1 steps, delay = 0 steps, check = yes
  max neighbors/atom: 2000, page size: 100000
  master list distance cutoff = 6
  ghost atom cutoff = 6
  binsize = 3, bins = 2 2 2
  2 neighbor lists, perpetual/occasional/extra = 2 0 0
  (1) pair meam, perpetual
      attributes: full, newton on
      pair build: full/bin/atomonly
      stencil: full/bin/3d
      bin: standard
  (2) pair meam, perpetual, half/full from (1)
      attributes: half, newton on
      pair build: halffull/newton
      stencil: none
      bin: none
WARNING: Proc sub-domain size < neighbor skin, could lead to lost atoms (src/domain.cpp:966)
Per MPI rank memory allocation (min/avg/max) = 9.653 | 9.653 | 9.653 Mbytes
   Step         PotEng         TotEng           Lx             Ly             Lz           Volume         Press           Pxx            Pyy            Pzz      
         0  -21.299269     -21.299269      3.885          3.885          3.885          58.637179      29009.355      29009.355      29009.355      29009.355    
         8  -21.304031     -21.304031      3.8966966      3.8966966      3.8966966      59.168392     -1.9004467e-10 -1.6992169e-10 -1.7023115e-10 -2.2998116e-10
Loop time of 0.00204175 on 8 procs for 8 steps with 4 atoms

0.0% CPU use with 8 MPI tasks x 1 OpenMP threads

Minimization stats:
  Stopping criterion = energy tolerance
  Energy initial, next-to-last, final = 
     -21.2992693654219  -21.3040313895566  -21.3040313895566
  Force two-norm initial, final = 3.1850925 2.7327621e-14
  Force max component initial, final = 3.1850925 2.0991853e-14
  Final line search alpha, max atom move = 1 2.0991853e-14
  Iterations, force evaluations = 8 13

MPI task timing breakdown:
Section |  min time  |  avg time  |  max time  |%varavg| %total
---------------------------------------------------------------
Pair    | 0.001217   | 0.0012417  | 0.00126    |   0.0 | 60.82
Neigh   | 0          | 0          | 0          |   0.0 |  0.00
Comm    | 0.000253   | 0.00027088 | 0.000296   |   0.0 | 13.27
Output  | 0          | 0          | 0          |   0.0 |  0.00
Modify  | 0          | 0          | 0          |   0.0 |  0.00
Other   |            | 0.0005291  |            |       | 25.92

Nlocal:            0.5 ave           1 max           0 min
Histogram: 4 0 0 0 0 0 0 0 0 4
Nghost:          255.5 ave         256 max         255 min
Histogram: 4 0 0 0 0 0 0 0 0 4
Neighs:           13.5 ave          27 max           0 min
Histogram: 4 0 0 0 0 0 0 0 0 4
FullNghs:           27 ave          54 max           0 min
Histogram: 4 0 0 0 0 0 0 0 0 4

Total # of neighbors = 216
Ave neighs/atom = 54
Neighbor list builds = 0
Dangerous builds = 0

variable  natoms equal "count(all)"
variable      x0 equal "lx"
variable      y0 equal "ly"
variable      z0 equal "lz"
variable      v0 equal "vol"
variable   etot0 equal "etotal"
variable   ecoh0 equal "pe/v_natoms"

unfix 1
write_data ./../step2_elastic/data.in
System init for write_data ...
WARNING: Proc sub-domain size < neighbor skin, could lead to lost atoms (src/domain.cpp:966)

# ---------- For Equation of States -------------------------------------
change_box all x scale 0.94 y scale 0.94 z scale 0.94 remap
Changing box ...
  orthogonal box = (0.11105261 -0.0058482858 -0.0058482858) to (3.7739474 3.8908483 3.8908483)
  orthogonal box = (0.11105261 0.11105261 -0.0058482858) to (3.7739474 3.7739474 3.8908483)
  orthogonal box = (0.11105261 0.11105261 0.11105261) to (3.7739474 3.7739474 3.7739474)
run 1
WARNING: No fixes with time integration, atoms won't move (src/verlet.cpp:60)
WARNING: Proc sub-domain size < neighbor skin, could lead to lost atoms (src/domain.cpp:966)
Per MPI rank memory allocation (min/avg/max) = 8.556 | 8.556 | 8.559 Mbytes
   Step         PotEng         TotEng           Lx             Ly             Lz           Volume         Press           Pxx            Pyy            Pzz      
         8  -18.825455     -18.825455      3.6628948      3.6628948      3.6628948      49.14432       963196.65      963196.65      963196.65      963196.65    
         9  -18.825455     -18.825455      3.6628948      3.6628948      3.6628948      49.14432       963196.65      963196.65      963196.65      963196.65    
Loop time of 0.00015825 on 8 procs for 1 steps with 4 atoms

Performance: 545.972 ns/day, 0.044 hours/ns, 6319.115 timesteps/s, 25.276 katom-step/s
0.0% CPU use with 8 MPI tasks x 1 OpenMP threads

MPI task timing breakdown:
Section |  min time  |  avg time  |  max time  |%varavg| %total
---------------------------------------------------------------
Pair    | 0.000119   | 0.00012012 | 0.000123   |   0.0 | 75.91
Neigh   | 0          | 0          | 0          |   0.0 |  0.00
Comm    | 1.2e-05    | 1.6125e-05 | 2.2e-05    |   0.0 | 10.19
Output  | 1.2e-05    | 1.7375e-05 | 2.2e-05    |   0.0 | 10.98
Modify  | 0          | 1.25e-07   | 1e-06      |   0.0 |  0.08
Other   |            | 4.5e-06    |            |       |  2.84

Nlocal:            0.5 ave           4 max           0 min
Histogram: 7 0 0 0 0 0 0 0 0 1
Nghost:          255.5 ave         256 max         252 min
Histogram: 1 0 0 0 0 0 0 0 0 7
Neighs:           19.5 ave         156 max           0 min
Histogram: 7 0 0 0 0 0 0 0 0 1
FullNghs:           39 ave         312 max           0 min
Histogram: 7 0 0 0 0 0 0 0 0 1

Total # of neighbors = 312
Ave neighs/atom = 78
Neighbor list builds = 0
Dangerous builds = 0
print "# Lattice constant (Angstroms), Volume (Angstrom), Total energy (eV), Cohesive energy (eV/atom)" file lattice_cohesive_energy.txt screen no


# Loop over lattice constants
variable i loop 49 # Number of steps
label loop

change_box all x scale 1.0025 y scale 1.0025 z scale 1.0025 remap
Changing box ...
  orthogonal box = (0.10647399 0.11105261 0.11105261) to (3.778526 3.7739474 3.7739474)
  orthogonal box = (0.10647399 0.10647399 0.11105261) to (3.778526 3.778526 3.7739474)
  orthogonal box = (0.10647399 0.10647399 0.10647399) to (3.778526 3.778526 3.778526)

run 1
WARNING: No fixes with time integration, atoms won't move (src/verlet.cpp:60)
WARNING: Proc sub-domain size < neighbor skin, could lead to lost atoms (src/domain.cpp:966)
Per MPI rank memory allocation (min/avg/max) = 8.556 | 8.556 | 8.559 Mbytes
   Step         PotEng         TotEng           Lx             Ly             Lz           Volume         Press           Pxx            Pyy            Pzz      
         9  -19.040976     -19.040976      3.672052       3.672052       3.672052       49.513824      906185.78      906185.78      906185.78      906185.78    
        10  -19.040976     -19.040976      3.672052       3.672052       3.672052       49.513824      906185.78      906185.78      906185.78      906185.78    
Loop time of 0.00015475 on 8 procs for 1 steps with 4 atoms

Performance: 558.320 ns/day, 0.043 hours/ns, 6462.036 timesteps/s, 25.848 katom-step/s
0.0% CPU use with 8 MPI tasks x 1 OpenMP threads

MPI task timing breakdown:
Section |  min time  |  avg time  |  max time  |%varavg| %total
---------------------------------------------------------------
Pair    | 0.000117   | 0.00011775 | 0.000121   |   0.0 | 76.09
Neigh   | 0          | 0          | 0          |   0.0 |  0.00
Comm    | 1.2e-05    | 1.5875e-05 | 2.1e-05    |   0.0 | 10.26
Output  | 1.1e-05    | 1.65e-05   | 2.1e-05    |   0.0 | 10.66
Modify  | 0          | 2.5e-07    | 1e-06      |   0.0 |  0.16
Other   |            | 4.375e-06  |            |       |  2.83

Nlocal:            0.5 ave           4 max           0 min
Histogram: 7 0 0 0 0 0 0 0 0 1
Nghost:          255.5 ave         256 max         252 min
Histogram: 1 0 0 0 0 0 0 0 0 7
Neighs:           19.5 ave         156 max           0 min
Histogram: 7 0 0 0 0 0 0 0 0 1
FullNghs:           39 ave         312 max           0 min
Histogram: 7 0 0 0 0 0 0 0 0 1

Total # of neighbors = 312
Ave neighs/atom = 78
Neighbor list builds = 0
Dangerous builds = 0
variable  natoms equal "count(all)"
variable xlength equal "lx"
variable  volume equal "vol"
variable  etotal equal "etotal"
variable    ecoh equal "pe/v_natoms"
print "${xlength}, ${volume}, ${etotal}, ${ecoh}" append lattice_cohesive_energy.txt screen no

next i
jump SELF loop

change_box all x scale 1.0025 y scale 1.0025 z scale 1.0025 remap
Changing box ...
  orthogonal box = (0.10188393 0.10647399 0.10647399) to (3.7831161 3.778526 3.778526)
  orthogonal box = (0.10188393 0.10188393 0.10647399) to (3.7831161 3.7831161 3.778526)
  orthogonal box = (0.10188393 0.10188393 0.10188393) to (3.7831161 3.7831161 3.7831161)

run 1
WARNING: No fixes with time integration, atoms won't move (src/verlet.cpp:60)
WARNING: Proc sub-domain size < neighbor skin, could lead to lost atoms (src/domain.cpp:966)
Per MPI rank memory allocation (min/avg/max) = 8.556 | 8.556 | 8.559 Mbytes
   Step         PotEng         TotEng           Lx             Ly             Lz           Volume         Press           Pxx            Pyy            Pzz      
        10  -19.245084     -19.245084      3.6812321      3.6812321      3.6812321      49.886107      851007.94      851007.94      851007.94      851007.94    
        11  -19.245084     -19.245084      3.6812321      3.6812321      3.6812321      49.886107      851007.94      851007.94      851007.94      851007.94    
Loop time of 0.0001545 on 8 procs for 1 steps with 4 atoms

Performance: 559.223 ns/day, 0.043 hours/ns, 6472.492 timesteps/s, 25.890 katom-step/s
0.0% CPU use with 8 MPI tasks x 1 OpenMP threads

MPI task timing breakdown:
Section |  min time  |  avg time  |  max time  |%varavg| %total
---------------------------------------------------------------
Pair    | 0.000116   | 0.00011787 | 0.000121   |   0.0 | 76.29
Neigh   | 0          | 0          | 0          |   0.0 |  0.00
Comm    | 1.2e-05    | 1.6125e-05 | 2.2e-05    |   0.0 | 10.44
Output  | 1.1e-05    | 1.6375e-05 | 2.1e-05    |   0.0 | 10.60
Modify  | 0          | 2.5e-07    | 1e-06      |   0.0 |  0.16
Other   |            | 3.875e-06  |            |       |  2.51

Nlocal:            0.5 ave           4 max           0 min
Histogram: 7 0 0 0 0 0 0 0 0 1
Nghost:          255.5 ave         256 max         252 min
Histogram: 1 0 0 0 0 0 0 0 0 7
Neighs:           19.5 ave         156 max           0 min
Histogram: 7 0 0 0 0 0 0 0 0 1
FullNghs:           39 ave         312 max           0 min
Histogram: 7 0 0 0 0 0 0 0 0 1

Total # of neighbors = 312
Ave neighs/atom = 78
Neighbor list builds = 0
Dangerous builds = 0
variable  natoms equal "count(all)"
variable xlength equal "lx"
variable  volume equal "vol"
variable  etotal equal "etotal"
variable    ecoh equal "pe/v_natoms"
print "${xlength}, ${volume}, ${etotal}, ${ecoh}" append lattice_cohesive_energy.txt screen no

next i
jump SELF loop

change_box all x scale 1.0025 y scale 1.0025 z scale 1.0025 remap
Changing box ...
  orthogonal box = (0.097282388 0.10188393 0.10188393) to (3.7877176 3.7831161 3.7831161)
  orthogonal box = (0.097282388 0.097282388 0.10188393) to (3.7877176 3.7877176 3.7831161)
  orthogonal box = (0.097282388 0.097282388 0.097282388) to (3.7877176 3.7877176 3.7877176)

run 1
WARNING: No fixes with time integration, atoms won't move (src/verlet.cpp:60)
WARNING: Proc sub-domain size < neighbor skin, could lead to lost atoms (src/domain.cpp:966)
Per MPI rank memory allocation (min/avg/max) = 8.556 | 8.556 | 8.559 Mbytes
   Step         PotEng         TotEng           Lx             Ly             Lz           Volume         Press           Pxx            Pyy            Pzz      
        11  -19.43802      -19.43802       3.6904352      3.6904352      3.6904352      50.261189      797618.34      797618.34      797618.34      797618.34    
        12  -19.43802      -19.43802       3.6904352      3.6904352      3.6904352      50.261189      797618.34      797618.34      797618.34      797618.34    
Loop time of 0.000154 on 8 procs for 1 steps with 4 atoms

Performance: 561.039 ns/day, 0.043 hours/ns, 6493.506 timesteps/s, 25.974 katom-step/s
0.0% CPU use with 8 MPI tasks x 1 OpenMP threads

MPI task timing breakdown:
Section |  min time  |  avg time  |  max time  |%varavg| %total
---------------------------------------------------------------
Pair    | 0.000117   | 0.00011812 | 0.000121   |   0.0 | 76.70
Neigh   | 0          | 0          | 0          |   0.0 |  0.00
Comm    | 1.1e-05    | 1.5e-05    | 2.1e-05    |   0.0 |  9.74
Output  | 1.1e-05    | 1.6e-05    | 2e-05      |   0.0 | 10.39
Modify  | 0          | 5e-07      | 2e-06      |   0.0 |  0.32
Other   |            | 4.375e-06  |            |       |  2.84

Nlocal:            0.5 ave           4 max           0 min
Histogram: 7 0 0 0 0 0 0 0 0 1
Nghost:          255.5 ave         256 max         252 min
Histogram: 1 0 0 0 0 0 0 0 0 7
Neighs:           19.5 ave         156 max           0 min
Histogram: 7 0 0 0 0 0 0 0 0 1
FullNghs:           39 ave         312 max           0 min
Histogram: 7 0 0 0 0 0 0 0 0 1

Total # of neighbors = 312
Ave neighs/atom = 78
Neighbor list builds = 0
Dangerous builds = 0
variable  natoms equal "count(all)"
variable xlength equal "lx"
variable  volume equal "vol"
variable  etotal equal "etotal"
variable    ecoh equal "pe/v_natoms"
print "${xlength}, ${volume}, ${etotal}, ${ecoh}" append lattice_cohesive_energy.txt screen no

next i
jump SELF loop

change_box all x scale 1.0025 y scale 1.0025 z scale 1.0025 remap
Changing box ...
  orthogonal box = (0.092669344 0.097282388 0.097282388) to (3.7923307 3.7877176 3.7877176)
  orthogonal box = (0.092669344 0.092669344 0.097282388) to (3.7923307 3.7923307 3.7877176)
  orthogonal box = (0.092669344 0.092669344 0.092669344) to (3.7923307 3.7923307 3.7923307)

run 1
WARNING: No fixes with time integration, atoms won't move (src/verlet.cpp:60)
WARNING: Proc sub-domain size < neighbor skin, could lead to lost atoms (src/domain.cpp:966)
Per MPI rank memory allocation (min/avg/max) = 8.556 | 8.556 | 8.559 Mbytes
   Step         PotEng         TotEng           Lx             Ly             Lz           Volume         Press           Pxx            Pyy            Pzz      
        12  -19.62002      -19.62002       3.6996613      3.6996613      3.6996613      50.639091      745972.57      745972.57      745972.57      745972.57    
        13  -19.62002      -19.62002       3.6996613      3.6996613      3.6996613      50.639091      745972.57      745972.57      745972.57      745972.57    
Loop time of 0.000155 on 8 procs for 1 steps with 4 atoms

Performance: 557.419 ns/day, 0.043 hours/ns, 6451.613 timesteps/s, 25.806 katom-step/s
0.0% CPU use with 8 MPI tasks x 1 OpenMP threads

MPI task timing breakdown:
Section |  min time  |  avg time  |  max time  |%varavg| %total
---------------------------------------------------------------
Pair    | 0.000116   | 0.00011737 | 0.000121   |   0.0 | 75.73
Neigh   | 0          | 0          | 0          |   0.0 |  0.00
Comm    | 1.2e-05    | 1.5875e-05 | 2.2e-05    |   0.0 | 10.24
Output  | 1.2e-05    | 1.8e-05    | 2.3e-05    |   0.0 | 11.61
Modify  | 0          | 1.25e-07   | 1e-06      |   0.0 |  0.08
Other   |            | 3.625e-06  |            |       |  2.34

Nlocal:            0.5 ave           4 max           0 min
Histogram: 7 0 0 0 0 0 0 0 0 1
Nghost:          255.5 ave         256 max         252 min
Histogram: 1 0 0 0 0 0 0 0 0 7
Neighs:           19.5 ave         156 max           0 min
Histogram: 7 0 0 0 0 0 0 0 0 1
FullNghs:           39 ave         312 max           0 min
Histogram: 7 0 0 0 0 0 0 0 0 1

Total # of neighbors = 312
Ave neighs/atom = 78
Neighbor list builds = 0
Dangerous builds = 0
variable  natoms equal "count(all)"
variable xlength equal "lx"
variable  volume equal "vol"
variable  etotal equal "etotal"
variable    ecoh equal "pe/v_natoms"
print "${xlength}, ${volume}, ${etotal}, ${ecoh}" append lattice_cohesive_energy.txt screen no

next i
jump SELF loop

change_box all x scale 1.0025 y scale 1.0025 z scale 1.0025 remap
Changing box ...
  orthogonal box = (0.088044767 0.092669344 0.092669344) to (3.7969552 3.7923307 3.7923307)
  orthogonal box = (0.088044767 0.088044767 0.092669344) to (3.7969552 3.7969552 3.7923307)
  orthogonal box = (0.088044767 0.088044767 0.088044767) to (3.7969552 3.7969552 3.7969552)

run 1
WARNING: No fixes with time integration, atoms won't move (src/verlet.cpp:60)
WARNING: Proc sub-domain size < neighbor skin, could lead to lost atoms (src/domain.cpp:966)
Per MPI rank memory allocation (min/avg/max) = 8.556 | 8.556 | 8.559 Mbytes
   Step         PotEng         TotEng           Lx             Ly             Lz           Volume         Press           Pxx            Pyy            Pzz      
        13  -19.791319     -19.791319      3.7089105      3.7089105      3.7089105      51.019835      696027.54      696027.54      696027.54      696027.54    
        14  -19.791319     -19.791319      3.7089105      3.7089105      3.7089105      51.019835      696027.54      696027.54      696027.54      696027.54    
Loop time of 0.000155625 on 8 procs for 1 steps with 4 atoms

Performance: 555.181 ns/day, 0.043 hours/ns, 6425.703 timesteps/s, 25.703 katom-step/s
0.0% CPU use with 8 MPI tasks x 1 OpenMP threads

MPI task timing breakdown:
Section |  min time  |  avg time  |  max time  |%varavg| %total
---------------------------------------------------------------
Pair    | 0.000116   | 0.00011738 | 0.00012    |   0.0 | 75.42
Neigh   | 0          | 0          | 0          |   0.0 |  0.00
Comm    | 1.2e-05    | 1.5375e-05 | 2.1e-05    |   0.0 |  9.88
Output  | 1.2e-05    | 1.7625e-05 | 2.3e-05    |   0.0 | 11.33
Modify  | 0          | 1.25e-07   | 1e-06      |   0.0 |  0.08
Other   |            | 5.125e-06  |            |       |  3.29

Nlocal:            0.5 ave           4 max           0 min
Histogram: 7 0 0 0 0 0 0 0 0 1
Nghost:          255.5 ave         256 max         252 min
Histogram: 1 0 0 0 0 0 0 0 0 7
Neighs:           19.5 ave         156 max           0 min
Histogram: 7 0 0 0 0 0 0 0 0 1
FullNghs:           39 ave         312 max           0 min
Histogram: 7 0 0 0 0 0 0 0 0 1

Total # of neighbors = 312
Ave neighs/atom = 78
Neighbor list builds = 0
Dangerous builds = 0
variable  natoms equal "count(all)"
variable xlength equal "lx"
variable  volume equal "vol"
variable  etotal equal "etotal"
variable    ecoh equal "pe/v_natoms"
print "${xlength}, ${volume}, ${etotal}, ${ecoh}" append lattice_cohesive_energy.txt screen no

next i
jump SELF loop

change_box all x scale 1.0025 y scale 1.0025 z scale 1.0025 remap
Changing box ...
  orthogonal box = (0.083408629 0.088044767 0.088044767) to (3.8015914 3.7969552 3.7969552)
  orthogonal box = (0.083408629 0.083408629 0.088044767) to (3.8015914 3.8015914 3.7969552)
  orthogonal box = (0.083408629 0.083408629 0.083408629) to (3.8015914 3.8015914 3.8015914)

run 1
WARNING: No fixes with time integration, atoms won't move (src/verlet.cpp:60)
WARNING: Proc sub-domain size < neighbor skin, could lead to lost atoms (src/domain.cpp:966)
Per MPI rank memory allocation (min/avg/max) = 8.556 | 8.556 | 8.559 Mbytes
   Step         PotEng         TotEng           Lx             Ly             Lz           Volume         Press           Pxx            Pyy            Pzz      
        14  -19.952147     -19.952147      3.7181827      3.7181827      3.7181827      51.403441      647740.68      647740.68      647740.68      647740.68    
        15  -19.952147     -19.952147      3.7181827      3.7181827      3.7181827      51.403441      647740.68      647740.68      647740.68      647740.68    
Loop time of 0.000162 on 8 procs for 1 steps with 4 atoms

Performance: 533.333 ns/day, 0.045 hours/ns, 6172.840 timesteps/s, 24.691 katom-step/s
0.0% CPU use with 8 MPI tasks x 1 OpenMP threads

MPI task timing breakdown:
Section |  min time  |  avg time  |  max time  |%varavg| %total
---------------------------------------------------------------
Pair    | 0.000123   | 0.000124   | 0.000127   |   0.0 | 76.54
Neigh   | 0          | 0          | 0          |   0.0 |  0.00
Comm    | 1.1e-05    | 1.55e-05   | 2.2e-05    |   0.0 |  9.57
Output  | 1.2e-05    | 1.7875e-05 | 2.3e-05    |   0.0 | 11.03
Modify  | 0          | 0          | 0          |   0.0 |  0.00
Other   |            | 4.625e-06  |            |       |  2.85

Nlocal:            0.5 ave           4 max           0 min
Histogram: 7 0 0 0 0 0 0 0 0 1
Nghost:          255.5 ave         256 max         252 min
Histogram: 1 0 0 0 0 0 0 0 0 7
Neighs:           19.5 ave         156 max           0 min
Histogram: 7 0 0 0 0 0 0 0 0 1
FullNghs:           39 ave         312 max           0 min
Histogram: 7 0 0 0 0 0 0 0 0 1

Total # of neighbors = 312
Ave neighs/atom = 78
Neighbor list builds = 0
Dangerous builds = 0
variable  natoms equal "count(all)"
variable xlength equal "lx"
variable  volume equal "vol"
variable  etotal equal "etotal"
variable    ecoh equal "pe/v_natoms"
print "${xlength}, ${volume}, ${etotal}, ${ecoh}" append lattice_cohesive_energy.txt screen no

next i
jump SELF loop

change_box all x scale 1.0025 y scale 1.0025 z scale 1.0025 remap
Changing box ...
  orthogonal box = (0.0787609 0.083408629 0.083408629) to (3.8062391 3.8015914 3.8015914)
  orthogonal box = (0.0787609 0.0787609 0.083408629) to (3.8062391 3.8062391 3.8015914)
  orthogonal box = (0.0787609 0.0787609 0.0787609) to (3.8062391 3.8062391 3.8062391)

run 1
WARNING: No fixes with time integration, atoms won't move (src/verlet.cpp:60)
WARNING: Proc sub-domain size < neighbor skin, could lead to lost atoms (src/domain.cpp:966)
Per MPI rank memory allocation (min/avg/max) = 8.556 | 8.556 | 8.559 Mbytes
   Step         PotEng         TotEng           Lx             Ly             Lz           Volume         Press           Pxx            Pyy            Pzz      
        15  -20.102732     -20.102732      3.7274782      3.7274782      3.7274782      51.789931      601070.57      601070.57      601070.57      601070.57    
        16  -20.102732     -20.102732      3.7274782      3.7274782      3.7274782      51.789931      601070.57      601070.57      601070.57      601070.57    
Loop time of 0.000153875 on 8 procs for 1 steps with 4 atoms

Performance: 561.495 ns/day, 0.043 hours/ns, 6498.781 timesteps/s, 25.995 katom-step/s
0.0% CPU use with 8 MPI tasks x 1 OpenMP threads

MPI task timing breakdown:
Section |  min time  |  avg time  |  max time  |%varavg| %total
---------------------------------------------------------------
Pair    | 0.000116   | 0.00011787 | 0.000121   |   0.0 | 76.60
Neigh   | 0          | 0          | 0          |   0.0 |  0.00
Comm    | 1.1e-05    | 1.5375e-05 | 2.1e-05    |   0.0 |  9.99
Output  | 1.1e-05    | 1.6625e-05 | 2.2e-05    |   0.0 | 10.80
Modify  | 0          | 2.5e-07    | 1e-06      |   0.0 |  0.16
Other   |            | 3.75e-06   |            |       |  2.44

Nlocal:            0.5 ave           4 max           0 min
Histogram: 7 0 0 0 0 0 0 0 0 1
Nghost:          255.5 ave         256 max         252 min
Histogram: 1 0 0 0 0 0 0 0 0 7
Neighs:           19.5 ave         156 max           0 min
Histogram: 7 0 0 0 0 0 0 0 0 1
FullNghs:           39 ave         312 max           0 min
Histogram: 7 0 0 0 0 0 0 0 0 1

Total # of neighbors = 312
Ave neighs/atom = 78
Neighbor list builds = 0
Dangerous builds = 0
variable  natoms equal "count(all)"
variable xlength equal "lx"
variable  volume equal "vol"
variable  etotal equal "etotal"
variable    ecoh equal "pe/v_natoms"
print "${xlength}, ${volume}, ${etotal}, ${ecoh}" append lattice_cohesive_energy.txt screen no

next i
jump SELF loop

change_box all x scale 1.0025 y scale 1.0025 z scale 1.0025 remap
Changing box ...
  orthogonal box = (0.074101553 0.0787609 0.0787609) to (3.8108984 3.8062391 3.8062391)
  orthogonal box = (0.074101553 0.074101553 0.0787609) to (3.8108984 3.8108984 3.8062391)
  orthogonal box = (0.074101553 0.074101553 0.074101553) to (3.8108984 3.8108984 3.8108984)

run 1
WARNING: No fixes with time integration, atoms won't move (src/verlet.cpp:60)
WARNING: Proc sub-domain size < neighbor skin, could lead to lost atoms (src/domain.cpp:966)
Per MPI rank memory allocation (min/avg/max) = 8.556 | 8.556 | 8.559 Mbytes
   Step         PotEng         TotEng           Lx             Ly             Lz           Volume         Press           Pxx            Pyy            Pzz      
        16  -20.243299     -20.243299      3.7367969      3.7367969      3.7367969      52.179328      555976.4       555976.4       555976.4       555976.4     
        17  -20.243299     -20.243299      3.7367969      3.7367969      3.7367969      52.179328      555976.4       555976.4       555976.4       555976.4     
Loop time of 0.000152 on 8 procs for 1 steps with 4 atoms

Performance: 568.421 ns/day, 0.042 hours/ns, 6578.947 timesteps/s, 26.316 katom-step/s
0.0% CPU use with 8 MPI tasks x 1 OpenMP threads

MPI task timing breakdown:
Section |  min time  |  avg time  |  max time  |%varavg| %total
---------------------------------------------------------------
Pair    | 0.000116   | 0.00011675 | 0.00012    |   0.0 | 76.81
Neigh   | 0          | 0          | 0          |   0.0 |  0.00
Comm    | 1.1e-05    | 1.5e-05    | 2.1e-05    |   0.0 |  9.87
Output  | 1.1e-05    | 1.6125e-05 | 2e-05      |   0.0 | 10.61
Modify  | 0          | 1.25e-07   | 1e-06      |   0.0 |  0.08
Other   |            | 4e-06      |            |       |  2.63

Nlocal:            0.5 ave           4 max           0 min
Histogram: 7 0 0 0 0 0 0 0 0 1
Nghost:          255.5 ave         256 max         252 min
Histogram: 1 0 0 0 0 0 0 0 0 7
Neighs:           19.5 ave         156 max           0 min
Histogram: 7 0 0 0 0 0 0 0 0 1
FullNghs:           39 ave         312 max           0 min
Histogram: 7 0 0 0 0 0 0 0 0 1

Total # of neighbors = 312
Ave neighs/atom = 78
Neighbor list builds = 0
Dangerous builds = 0
variable  natoms equal "count(all)"
variable xlength equal "lx"
variable  volume equal "vol"
variable  etotal equal "etotal"
variable    ecoh equal "pe/v_natoms"
print "${xlength}, ${volume}, ${etotal}, ${ecoh}" append lattice_cohesive_energy.txt screen no

next i
jump SELF loop

change_box all x scale 1.0025 y scale 1.0025 z scale 1.0025 remap
Changing box ...
  orthogonal box = (0.069430557 0.074101553 0.074101553) to (3.8155694 3.8108984 3.8108984)
  orthogonal box = (0.069430557 0.069430557 0.074101553) to (3.8155694 3.8155694 3.8108984)
  orthogonal box = (0.069430557 0.069430557 0.069430557) to (3.8155694 3.8155694 3.8155694)

run 1
WARNING: No fixes with time integration, atoms won't move (src/verlet.cpp:60)
WARNING: Proc sub-domain size < neighbor skin, could lead to lost atoms (src/domain.cpp:966)
Per MPI rank memory allocation (min/avg/max) = 8.556 | 8.556 | 8.559 Mbytes
   Step         PotEng         TotEng           Lx             Ly             Lz           Volume         Press           Pxx            Pyy            Pzz      
        17  -20.37407      -20.37407       3.7461389      3.7461389      3.7461389      52.571652      512418.37      512418.37      512418.37      512418.37    
        18  -20.37407      -20.37407       3.7461389      3.7461389      3.7461389      52.571652      512418.37      512418.37      512418.37      512418.37    
Loop time of 0.0001545 on 8 procs for 1 steps with 4 atoms

Performance: 559.223 ns/day, 0.043 hours/ns, 6472.492 timesteps/s, 25.890 katom-step/s
0.0% CPU use with 8 MPI tasks x 1 OpenMP threads

MPI task timing breakdown:
Section |  min time  |  avg time  |  max time  |%varavg| %total
---------------------------------------------------------------
Pair    | 0.000117   | 0.000118   | 0.000121   |   0.0 | 76.38
Neigh   | 0          | 0          | 0          |   0.0 |  0.00
Comm    | 1.2e-05    | 1.5625e-05 | 2.2e-05    |   0.0 | 10.11
Output  | 1.1e-05    | 1.6375e-05 | 2.1e-05    |   0.0 | 10.60
Modify  | 0          | 5e-07      | 1e-06      |   0.0 |  0.32
Other   |            | 4e-06      |            |       |  2.59

Nlocal:            0.5 ave           4 max           0 min
Histogram: 7 0 0 0 0 0 0 0 0 1
Nghost:          255.5 ave         256 max         252 min
Histogram: 1 0 0 0 0 0 0 0 0 7
Neighs:           19.5 ave         156 max           0 min
Histogram: 7 0 0 0 0 0 0 0 0 1
FullNghs:           39 ave         312 max           0 min
Histogram: 7 0 0 0 0 0 0 0 0 1

Total # of neighbors = 312
Ave neighs/atom = 78
Neighbor list builds = 0
Dangerous builds = 0
variable  natoms equal "count(all)"
variable xlength equal "lx"
variable  volume equal "vol"
variable  etotal equal "etotal"
variable    ecoh equal "pe/v_natoms"
print "${xlength}, ${volume}, ${etotal}, ${ecoh}" append lattice_cohesive_energy.txt screen no

next i
jump SELF loop

change_box all x scale 1.0025 y scale 1.0025 z scale 1.0025 remap
Changing box ...
  orthogonal box = (0.064747883 0.069430557 0.069430557) to (3.8202521 3.8155694 3.8155694)
  orthogonal box = (0.064747883 0.064747883 0.069430557) to (3.8202521 3.8202521 3.8155694)
  orthogonal box = (0.064747883 0.064747883 0.064747883) to (3.8202521 3.8202521 3.8202521)

run 1
WARNING: No fixes with time integration, atoms won't move (src/verlet.cpp:60)
WARNING: Proc sub-domain size < neighbor skin, could lead to lost atoms (src/domain.cpp:966)
Per MPI rank memory allocation (min/avg/max) = 8.556 | 8.556 | 8.559 Mbytes
   Step         PotEng         TotEng           Lx             Ly             Lz           Volume         Press           Pxx            Pyy            Pzz      
        18  -20.495264     -20.495264      3.7555042      3.7555042      3.7555042      52.966926      470357.37      470357.37      470357.37      470357.37    
        19  -20.495264     -20.495264      3.7555042      3.7555042      3.7555042      52.966926      470357.37      470357.37      470357.37      470357.37    
Loop time of 0.000153875 on 8 procs for 1 steps with 4 atoms

Performance: 561.495 ns/day, 0.043 hours/ns, 6498.781 timesteps/s, 25.995 katom-step/s
0.0% CPU use with 8 MPI tasks x 1 OpenMP threads

MPI task timing breakdown:
Section |  min time  |  avg time  |  max time  |%varavg| %total
---------------------------------------------------------------
Pair    | 0.000117   | 0.00011775 | 0.000121   |   0.0 | 76.52
Neigh   | 0          | 0          | 0          |   0.0 |  0.00
Comm    | 1.2e-05    | 1.5375e-05 | 2.1e-05    |   0.0 |  9.99
Output  | 1.1e-05    | 1.6625e-05 | 2.1e-05    |   0.0 | 10.80
Modify  | 0          | 1.25e-07   | 1e-06      |   0.0 |  0.08
Other   |            | 4e-06      |            |       |  2.60

Nlocal:            0.5 ave           4 max           0 min
Histogram: 7 0 0 0 0 0 0 0 0 1
Nghost:          255.5 ave         256 max         252 min
Histogram: 1 0 0 0 0 0 0 0 0 7
Neighs:           19.5 ave         156 max           0 min
Histogram: 7 0 0 0 0 0 0 0 0 1
FullNghs:           39 ave         312 max           0 min
Histogram: 7 0 0 0 0 0 0 0 0 1

Total # of neighbors = 312
Ave neighs/atom = 78
Neighbor list builds = 0
Dangerous builds = 0
variable  natoms equal "count(all)"
variable xlength equal "lx"
variable  volume equal "vol"
variable  etotal equal "etotal"
variable    ecoh equal "pe/v_natoms"
print "${xlength}, ${volume}, ${etotal}, ${ecoh}" append lattice_cohesive_energy.txt screen no

next i
jump SELF loop

change_box all x scale 1.0025 y scale 1.0025 z scale 1.0025 remap
Changing box ...
  orthogonal box = (0.060053503 0.064747883 0.064747883) to (3.8249465 3.8202521 3.8202521)
  orthogonal box = (0.060053503 0.060053503 0.064747883) to (3.8249465 3.8249465 3.8202521)
  orthogonal box = (0.060053503 0.060053503 0.060053503) to (3.8249465 3.8249465 3.8249465)

run 1
WARNING: No fixes with time integration, atoms won't move (src/verlet.cpp:60)
WARNING: Proc sub-domain size < neighbor skin, could lead to lost atoms (src/domain.cpp:966)
Per MPI rank memory allocation (min/avg/max) = 8.556 | 8.556 | 8.559 Mbytes
   Step         PotEng         TotEng           Lx             Ly             Lz           Volume         Press           Pxx            Pyy            Pzz      
        19  -20.607097     -20.607097      3.764893       3.764893       3.764893       53.365172      429755.21      429755.21      429755.21      429755.21    
        20  -20.607097     -20.607097      3.764893       3.764893       3.764893       53.365172      429755.21      429755.21      429755.21      429755.21    
Loop time of 0.0001535 on 8 procs for 1 steps with 4 atoms

Performance: 562.866 ns/day, 0.043 hours/ns, 6514.658 timesteps/s, 26.059 katom-step/s
0.0% CPU use with 8 MPI tasks x 1 OpenMP threads

MPI task timing breakdown:
Section |  min time  |  avg time  |  max time  |%varavg| %total
---------------------------------------------------------------
Pair    | 0.000115   | 0.0001165  | 0.000119   |   0.0 | 75.90
Neigh   | 0          | 0          | 0          |   0.0 |  0.00
Comm    | 1.1e-05    | 1.5e-05    | 2.1e-05    |   0.0 |  9.77
Output  | 1.2e-05    | 1.75e-05   | 2.2e-05    |   0.0 | 11.40
Modify  | 0          | 1.25e-07   | 1e-06      |   0.0 |  0.08
Other   |            | 4.375e-06  |            |       |  2.85

Nlocal:            0.5 ave           4 max           0 min
Histogram: 7 0 0 0 0 0 0 0 0 1
Nghost:          255.5 ave         256 max         252 min
Histogram: 1 0 0 0 0 0 0 0 0 7
Neighs:           19.5 ave         156 max           0 min
Histogram: 7 0 0 0 0 0 0 0 0 1
FullNghs:           39 ave         312 max           0 min
Histogram: 7 0 0 0 0 0 0 0 0 1

Total # of neighbors = 312
Ave neighs/atom = 78
Neighbor list builds = 0
Dangerous builds = 0
variable  natoms equal "count(all)"
variable xlength equal "lx"
variable  volume equal "vol"
variable  etotal equal "etotal"
variable    ecoh equal "pe/v_natoms"
print "${xlength}, ${volume}, ${etotal}, ${ecoh}" append lattice_cohesive_energy.txt screen no

next i
jump SELF loop

change_box all x scale 1.0025 y scale 1.0025 z scale 1.0025 remap
Changing box ...
  orthogonal box = (0.055347386 0.060053503 0.060053503) to (3.8296526 3.8249465 3.8249465)
  orthogonal box = (0.055347386 0.055347386 0.060053503) to (3.8296526 3.8296526 3.8249465)
  orthogonal box = (0.055347386 0.055347386 0.055347386) to (3.8296526 3.8296526 3.8296526)

run 1
WARNING: No fixes with time integration, atoms won't move (src/verlet.cpp:60)
WARNING: Proc sub-domain size < neighbor skin, could lead to lost atoms (src/domain.cpp:966)
Per MPI rank memory allocation (min/avg/max) = 8.556 | 8.556 | 8.559 Mbytes
   Step         PotEng         TotEng           Lx             Ly             Lz           Volume         Press           Pxx            Pyy            Pzz      
        20  -20.709781     -20.709781      3.7743052      3.7743052      3.7743052      53.766412      390574.34      390574.34      390574.34      390574.34    
        21  -20.709781     -20.709781      3.7743052      3.7743052      3.7743052      53.766412      390574.34      390574.34      390574.34      390574.34    
Loop time of 0.00017125 on 8 procs for 1 steps with 4 atoms

Performance: 504.526 ns/day, 0.048 hours/ns, 5839.416 timesteps/s, 23.358 katom-step/s
0.0% CPU use with 8 MPI tasks x 1 OpenMP threads

MPI task timing breakdown:
Section |  min time  |  avg time  |  max time  |%varavg| %total
---------------------------------------------------------------
Pair    | 0.000123   | 0.0001245  | 0.00013    |   0.0 | 72.70
Neigh   | 0          | 0          | 0          |   0.0 |  0.00
Comm    | 1.1e-05    | 1.625e-05  | 2.3e-05    |   0.0 |  9.49
Output  | 1.1e-05    | 1.9375e-05 | 2.5e-05    |   0.0 | 11.31
Modify  | 0          | 1.25e-07   | 1e-06      |   0.0 |  0.07
Other   |            | 1.1e-05    |            |       |  6.42

Nlocal:            0.5 ave           4 max           0 min
Histogram: 7 0 0 0 0 0 0 0 0 1
Nghost:          255.5 ave         256 max         252 min
Histogram: 1 0 0 0 0 0 0 0 0 7
Neighs:           19.5 ave         156 max           0 min
Histogram: 7 0 0 0 0 0 0 0 0 1
FullNghs:           39 ave         312 max           0 min
Histogram: 7 0 0 0 0 0 0 0 0 1

Total # of neighbors = 312
Ave neighs/atom = 78
Neighbor list builds = 0
Dangerous builds = 0
variable  natoms equal "count(all)"
variable xlength equal "lx"
variable  volume equal "vol"
variable  etotal equal "etotal"
variable    ecoh equal "pe/v_natoms"
print "${xlength}, ${volume}, ${etotal}, ${ecoh}" append lattice_cohesive_energy.txt screen no

next i
jump SELF loop

change_box all x scale 1.0025 y scale 1.0025 z scale 1.0025 remap
Changing box ...
  orthogonal box = (0.050629505 0.055347386 0.055347386) to (3.8343705 3.8296526 3.8296526)
  orthogonal box = (0.050629505 0.050629505 0.055347386) to (3.8343705 3.8343705 3.8296526)
  orthogonal box = (0.050629505 0.050629505 0.050629505) to (3.8343705 3.8343705 3.8343705)

run 1
WARNING: No fixes with time integration, atoms won't move (src/verlet.cpp:60)
WARNING: Proc sub-domain size < neighbor skin, could lead to lost atoms (src/domain.cpp:966)
Per MPI rank memory allocation (min/avg/max) = 8.556 | 8.556 | 8.559 Mbytes
   Step         PotEng         TotEng           Lx             Ly             Lz           Volume         Press           Pxx            Pyy            Pzz      
        21  -20.803526     -20.803526      3.783741       3.783741       3.783741       54.170669      352778.19      352778.19      352778.19      352778.19    
        22  -20.803526     -20.803526      3.783741       3.783741       3.783741       54.170669      352778.19      352778.19      352778.19      352778.19    
Loop time of 0.000156125 on 8 procs for 1 steps with 4 atoms

Performance: 553.403 ns/day, 0.043 hours/ns, 6405.124 timesteps/s, 25.620 katom-step/s
0.0% CPU use with 8 MPI tasks x 1 OpenMP threads

MPI task timing breakdown:
Section |  min time  |  avg time  |  max time  |%varavg| %total
---------------------------------------------------------------
Pair    | 0.000118   | 0.00011938 | 0.000123   |   0.0 | 76.46
Neigh   | 0          | 0          | 0          |   0.0 |  0.00
Comm    | 1e-05      | 1.5625e-05 | 2.2e-05    |   0.0 | 10.01
Output  | 1.1e-05    | 1.7e-05    | 2.2e-05    |   0.0 | 10.89
Modify  | 0          | 2.5e-07    | 1e-06      |   0.0 |  0.16
Other   |            | 3.875e-06  |            |       |  2.48

Nlocal:            0.5 ave           4 max           0 min
Histogram: 7 0 0 0 0 0 0 0 0 1
Nghost:          255.5 ave         256 max         252 min
Histogram: 1 0 0 0 0 0 0 0 0 7
Neighs:           19.5 ave         156 max           0 min
Histogram: 7 0 0 0 0 0 0 0 0 1
FullNghs:           39 ave         312 max           0 min
Histogram: 7 0 0 0 0 0 0 0 0 1

Total # of neighbors = 312
Ave neighs/atom = 78
Neighbor list builds = 0
Dangerous builds = 0
variable  natoms equal "count(all)"
variable xlength equal "lx"
variable  volume equal "vol"
variable  etotal equal "etotal"
variable    ecoh equal "pe/v_natoms"
print "${xlength}, ${volume}, ${etotal}, ${ecoh}" append lattice_cohesive_energy.txt screen no

next i
jump SELF loop

change_box all x scale 1.0025 y scale 1.0025 z scale 1.0025 remap
Changing box ...
  orthogonal box = (0.045899829 0.050629505 0.050629505) to (3.8391002 3.8343705 3.8343705)
  orthogonal box = (0.045899829 0.045899829 0.050629505) to (3.8391002 3.8391002 3.8343705)
  orthogonal box = (0.045899829 0.045899829 0.045899829) to (3.8391002 3.8391002 3.8391002)

run 1
WARNING: No fixes with time integration, atoms won't move (src/verlet.cpp:60)
WARNING: Proc sub-domain size < neighbor skin, could lead to lost atoms (src/domain.cpp:966)
Per MPI rank memory allocation (min/avg/max) = 8.556 | 8.556 | 8.559 Mbytes
   Step         PotEng         TotEng           Lx             Ly             Lz           Volume         Press           Pxx            Pyy            Pzz      
        22  -20.888541     -20.888541      3.7932003      3.7932003      3.7932003      54.577966      316330.7       316330.7       316330.7       316330.7     
        23  -20.888541     -20.888541      3.7932003      3.7932003      3.7932003      54.577966      316330.7       316330.7       316330.7       316330.7     
Loop time of 0.000158375 on 8 procs for 1 steps with 4 atoms

Performance: 545.541 ns/day, 0.044 hours/ns, 6314.128 timesteps/s, 25.257 katom-step/s
0.0% CPU use with 8 MPI tasks x 1 OpenMP threads

MPI task timing breakdown:
Section |  min time  |  avg time  |  max time  |%varavg| %total
---------------------------------------------------------------
Pair    | 0.000118   | 0.00011987 | 0.000123   |   0.0 | 75.69
Neigh   | 0          | 0          | 0          |   0.0 |  0.00
Comm    | 1.2e-05    | 1.575e-05  | 2.3e-05    |   0.0 |  9.94
Output  | 1.1e-05    | 1.7375e-05 | 2.2e-05    |   0.0 | 10.97
Modify  | 0          | 2.5e-07    | 1e-06      |   0.0 |  0.16
Other   |            | 5.125e-06  |            |       |  3.24

Nlocal:            0.5 ave           4 max           0 min
Histogram: 7 0 0 0 0 0 0 0 0 1
Nghost:          255.5 ave         256 max         252 min
Histogram: 1 0 0 0 0 0 0 0 0 7
Neighs:           19.5 ave         156 max           0 min
Histogram: 7 0 0 0 0 0 0 0 0 1
FullNghs:           39 ave         312 max           0 min
Histogram: 7 0 0 0 0 0 0 0 0 1

Total # of neighbors = 312
Ave neighs/atom = 78
Neighbor list builds = 0
Dangerous builds = 0
variable  natoms equal "count(all)"
variable xlength equal "lx"
variable  volume equal "vol"
variable  etotal equal "etotal"
variable    ecoh equal "pe/v_natoms"
print "${xlength}, ${volume}, ${etotal}, ${ecoh}" append lattice_cohesive_energy.txt screen no

next i
jump SELF loop

change_box all x scale 1.0025 y scale 1.0025 z scale 1.0025 remap
Changing box ...
  orthogonal box = (0.041158328 0.045899829 0.045899829) to (3.8438417 3.8391002 3.8391002)
  orthogonal box = (0.041158328 0.041158328 0.045899829) to (3.8438417 3.8438417 3.8391002)
  orthogonal box = (0.041158328 0.041158328 0.041158328) to (3.8438417 3.8438417 3.8438417)

run 1
WARNING: No fixes with time integration, atoms won't move (src/verlet.cpp:60)
WARNING: Proc sub-domain size < neighbor skin, could lead to lost atoms (src/domain.cpp:966)
Per MPI rank memory allocation (min/avg/max) = 8.556 | 8.556 | 8.559 Mbytes
   Step         PotEng         TotEng           Lx             Ly             Lz           Volume         Press           Pxx            Pyy            Pzz      
        23  -20.965029     -20.965029      3.8026833      3.8026833      3.8026833      54.988325      281196.88      281196.88      281196.88      281196.88    
        24  -20.965029     -20.965029      3.8026833      3.8026833      3.8026833      54.988325      281196.88      281196.88      281196.88      281196.88    
Loop time of 0.0002145 on 8 procs for 1 steps with 4 atoms

Performance: 402.797 ns/day, 0.060 hours/ns, 4662.005 timesteps/s, 18.648 katom-step/s
0.0% CPU use with 8 MPI tasks x 1 OpenMP threads

MPI task timing breakdown:
Section |  min time  |  avg time  |  max time  |%varavg| %total
---------------------------------------------------------------
Pair    | 0.000132   | 0.00014475 | 0.000167   |   0.0 | 67.48
Neigh   | 0          | 0          | 0          |   0.0 |  0.00
Comm    | 1.4e-05    | 2.4e-05    | 5.3e-05    |   0.0 | 11.19
Output  | 1.5e-05    | 3.6e-05    | 5.9e-05    |   0.0 | 16.78
Modify  | 0          | 1.25e-07   | 1e-06      |   0.0 |  0.06
Other   |            | 9.625e-06  |            |       |  4.49

Nlocal:            0.5 ave           4 max           0 min
Histogram: 7 0 0 0 0 0 0 0 0 1
Nghost:          255.5 ave         256 max         252 min
Histogram: 1 0 0 0 0 0 0 0 0 7
Neighs:           13.5 ave         108 max           0 min
Histogram: 7 0 0 0 0 0 0 0 0 1
FullNghs:           27 ave         216 max           0 min
Histogram: 7 0 0 0 0 0 0 0 0 1

Total # of neighbors = 216
Ave neighs/atom = 54
Neighbor list builds = 0
Dangerous builds = 0
variable  natoms equal "count(all)"
variable xlength equal "lx"
variable  volume equal "vol"
variable  etotal equal "etotal"
variable    ecoh equal "pe/v_natoms"
print "${xlength}, ${volume}, ${etotal}, ${ecoh}" append lattice_cohesive_energy.txt screen no

next i
jump SELF loop

change_box all x scale 1.0025 y scale 1.0025 z scale 1.0025 remap
Changing box ...
  orthogonal box = (0.036404974 0.041158328 0.041158328) to (3.848595 3.8438417 3.8438417)
  orthogonal box = (0.036404974 0.036404974 0.041158328) to (3.848595 3.848595 3.8438417)
  orthogonal box = (0.036404974 0.036404974 0.036404974) to (3.848595 3.848595 3.848595)

run 1
WARNING: No fixes with time integration, atoms won't move (src/verlet.cpp:60)
WARNING: Proc sub-domain size < neighbor skin, could lead to lost atoms (src/domain.cpp:966)
Per MPI rank memory allocation (min/avg/max) = 8.556 | 8.556 | 8.559 Mbytes
   Step         PotEng         TotEng           Lx             Ly             Lz           Volume         Press           Pxx            Pyy            Pzz      
        24  -21.033191     -21.033191      3.8121901      3.8121901      3.8121901      55.401769      247342.08      247342.08      247342.08      247342.08    
        25  -21.033191     -21.033191      3.8121901      3.8121901      3.8121901      55.401769      247342.08      247342.08      247342.08      247342.08    
Loop time of 0.000210625 on 8 procs for 1 steps with 4 atoms

Performance: 410.208 ns/day, 0.059 hours/ns, 4747.774 timesteps/s, 18.991 katom-step/s
0.0% CPU use with 8 MPI tasks x 1 OpenMP threads

MPI task timing breakdown:
Section |  min time  |  avg time  |  max time  |%varavg| %total
---------------------------------------------------------------
Pair    | 0.00013    | 0.00014225 | 0.000164   |   0.0 | 67.54
Neigh   | 0          | 0          | 0          |   0.0 |  0.00
Comm    | 1.3e-05    | 2.3625e-05 | 5.1e-05    |   0.0 | 11.22
Output  | 1.4e-05    | 3.425e-05  | 5.7e-05    |   0.0 | 16.26
Modify  | 0          | 1.25e-07   | 1e-06      |   0.0 |  0.06
Other   |            | 1.038e-05  |            |       |  4.93

Nlocal:            0.5 ave           4 max           0 min
Histogram: 7 0 0 0 0 0 0 0 0 1
Nghost:          255.5 ave         256 max         252 min
Histogram: 1 0 0 0 0 0 0 0 0 7
Neighs:           13.5 ave         108 max           0 min
Histogram: 7 0 0 0 0 0 0 0 0 1
FullNghs:           27 ave         216 max           0 min
Histogram: 7 0 0 0 0 0 0 0 0 1

Total # of neighbors = 216
Ave neighs/atom = 54
Neighbor list builds = 0
Dangerous builds = 0
variable  natoms equal "count(all)"
variable xlength equal "lx"
variable  volume equal "vol"
variable  etotal equal "etotal"
variable    ecoh equal "pe/v_natoms"
print "${xlength}, ${volume}, ${etotal}, ${ecoh}" append lattice_cohesive_energy.txt screen no

next i
jump SELF loop

change_box all x scale 1.0025 y scale 1.0025 z scale 1.0025 remap
Changing box ...
  orthogonal box = (0.031639737 0.036404974 0.036404974) to (3.8533603 3.848595 3.848595)
  orthogonal box = (0.031639737 0.031639737 0.036404974) to (3.8533603 3.8533603 3.848595)
  orthogonal box = (0.031639737 0.031639737 0.031639737) to (3.8533603 3.8533603 3.8533603)

run 1
WARNING: No fixes with time integration, atoms won't move (src/verlet.cpp:60)
WARNING: Proc sub-domain size < neighbor skin, could lead to lost atoms (src/domain.cpp:966)
Per MPI rank memory allocation (min/avg/max) = 8.556 | 8.556 | 8.559 Mbytes
   Step         PotEng         TotEng           Lx             Ly             Lz           Volume         Press           Pxx            Pyy            Pzz      
        25  -21.093227     -21.093227      3.8217205      3.8217205      3.8217205      55.818322      214732.84      214732.84      214732.84      214732.84    
        26  -21.093227     -21.093227      3.8217205      3.8217205      3.8217205      55.818322      214732.84      214732.84      214732.84      214732.84    
Loop time of 0.0002065 on 8 procs for 1 steps with 4 atoms

Performance: 418.402 ns/day, 0.057 hours/ns, 4842.615 timesteps/s, 19.370 katom-step/s
0.0% CPU use with 8 MPI tasks x 1 OpenMP threads

MPI task timing breakdown:
Section |  min time  |  avg time  |  max time  |%varavg| %total
---------------------------------------------------------------
Pair    | 0.000129   | 0.00014125 | 0.000164   |   0.0 | 68.40
Neigh   | 0          | 0          | 0          |   0.0 |  0.00
Comm    | 1.3e-05    | 2.3375e-05 | 5.1e-05    |   0.0 | 11.32
Output  | 1.4e-05    | 3.35e-05   | 5.6e-05    |   0.0 | 16.22
Modify  | 0          | 1.25e-07   | 1e-06      |   0.0 |  0.06
Other   |            | 8.25e-06   |            |       |  4.00

Nlocal:            0.5 ave           4 max           0 min
Histogram: 7 0 0 0 0 0 0 0 0 1
Nghost:          255.5 ave         256 max         252 min
Histogram: 1 0 0 0 0 0 0 0 0 7
Neighs:           13.5 ave         108 max           0 min
Histogram: 7 0 0 0 0 0 0 0 0 1
FullNghs:           27 ave         216 max           0 min
Histogram: 7 0 0 0 0 0 0 0 0 1

Total # of neighbors = 216
Ave neighs/atom = 54
Neighbor list builds = 0
Dangerous builds = 0
variable  natoms equal "count(all)"
variable xlength equal "lx"
variable  volume equal "vol"
variable  etotal equal "etotal"
variable    ecoh equal "pe/v_natoms"
print "${xlength}, ${volume}, ${etotal}, ${ecoh}" append lattice_cohesive_energy.txt screen no

next i
jump SELF loop

change_box all x scale 1.0025 y scale 1.0025 z scale 1.0025 remap
Changing box ...
  orthogonal box = (0.026862586 0.031639737 0.031639737) to (3.8581374 3.8533603 3.8533603)
  orthogonal box = (0.026862586 0.026862586 0.031639737) to (3.8581374 3.8581374 3.8533603)
  orthogonal box = (0.026862586 0.026862586 0.026862586) to (3.8581374 3.8581374 3.8581374)

run 1
WARNING: No fixes with time integration, atoms won't move (src/verlet.cpp:60)
WARNING: Proc sub-domain size < neighbor skin, could lead to lost atoms (src/domain.cpp:966)
Per MPI rank memory allocation (min/avg/max) = 8.556 | 8.556 | 8.559 Mbytes
   Step         PotEng         TotEng           Lx             Ly             Lz           Volume         Press           Pxx            Pyy            Pzz      
        26  -21.145332     -21.145332      3.8312748      3.8312748      3.8312748      56.238007      183335.91      183335.91      183335.91      183335.91    
        27  -21.145332     -21.145332      3.8312748      3.8312748      3.8312748      56.238007      183335.91      183335.91      183335.91      183335.91    
Loop time of 0.000207375 on 8 procs for 1 steps with 4 atoms

Performance: 416.637 ns/day, 0.058 hours/ns, 4822.182 timesteps/s, 19.289 katom-step/s
0.0% CPU use with 8 MPI tasks x 1 OpenMP threads

MPI task timing breakdown:
Section |  min time  |  avg time  |  max time  |%varavg| %total
---------------------------------------------------------------
Pair    | 0.000129   | 0.00014187 | 0.000164   |   0.0 | 68.41
Neigh   | 0          | 0          | 0          |   0.0 |  0.00
Comm    | 1.3e-05    | 2.3125e-05 | 5.1e-05    |   0.0 | 11.15
Output  | 1.4e-05    | 3.325e-05  | 5.6e-05    |   0.0 | 16.03
Modify  | 0          | 3.75e-07   | 1e-06      |   0.0 |  0.18
Other   |            | 8.75e-06   |            |       |  4.22

Nlocal:            0.5 ave           4 max           0 min
Histogram: 7 0 0 0 0 0 0 0 0 1
Nghost:          255.5 ave         256 max         252 min
Histogram: 1 0 0 0 0 0 0 0 0 7
Neighs:           13.5 ave         108 max           0 min
Histogram: 7 0 0 0 0 0 0 0 0 1
FullNghs:           27 ave         216 max           0 min
Histogram: 7 0 0 0 0 0 0 0 0 1

Total # of neighbors = 216
Ave neighs/atom = 54
Neighbor list builds = 0
Dangerous builds = 0
variable  natoms equal "count(all)"
variable xlength equal "lx"
variable  volume equal "vol"
variable  etotal equal "etotal"
variable    ecoh equal "pe/v_natoms"
print "${xlength}, ${volume}, ${etotal}, ${ecoh}" append lattice_cohesive_energy.txt screen no

next i
jump SELF loop

change_box all x scale 1.0025 y scale 1.0025 z scale 1.0025 remap
Changing box ...
  orthogonal box = (0.022073492 0.026862586 0.026862586) to (3.8629265 3.8581374 3.8581374)
  orthogonal box = (0.022073492 0.022073492 0.026862586) to (3.8629265 3.8629265 3.8581374)
  orthogonal box = (0.022073492 0.022073492 0.022073492) to (3.8629265 3.8629265 3.8629265)

run 1
WARNING: No fixes with time integration, atoms won't move (src/verlet.cpp:60)
WARNING: Proc sub-domain size < neighbor skin, could lead to lost atoms (src/domain.cpp:966)
Per MPI rank memory allocation (min/avg/max) = 8.556 | 8.556 | 8.559 Mbytes
   Step         PotEng         TotEng           Lx             Ly             Lz           Volume         Press           Pxx            Pyy            Pzz      
        27  -21.1897       -21.1897        3.840853       3.840853       3.840853       56.660847      153119.27      153119.27      153119.27      153119.27    
        28  -21.1897       -21.1897        3.840853       3.840853       3.840853       56.660847      153119.27      153119.27      153119.27      153119.27    
Loop time of 0.000205625 on 8 procs for 1 steps with 4 atoms

Performance: 420.182 ns/day, 0.057 hours/ns, 4863.222 timesteps/s, 19.453 katom-step/s
949.8% CPU use with 8 MPI tasks x 1 OpenMP threads

MPI task timing breakdown:
Section |  min time  |  avg time  |  max time  |%varavg| %total
---------------------------------------------------------------
Pair    | 0.000129   | 0.0001415  | 0.000162   |   0.0 | 68.81
Neigh   | 0          | 0          | 0          |   0.0 |  0.00
Comm    | 1.3e-05    | 2.275e-05  | 4.9e-05    |   0.0 | 11.06
Output  | 1.4e-05    | 3.325e-05  | 5.6e-05    |   0.0 | 16.17
Modify  | 0          | 3.75e-07   | 1e-06      |   0.0 |  0.18
Other   |            | 7.75e-06   |            |       |  3.77

Nlocal:            0.5 ave           4 max           0 min
Histogram: 7 0 0 0 0 0 0 0 0 1
Nghost:          255.5 ave         256 max         252 min
Histogram: 1 0 0 0 0 0 0 0 0 7
Neighs:           13.5 ave         108 max           0 min
Histogram: 7 0 0 0 0 0 0 0 0 1
FullNghs:           27 ave         216 max           0 min
Histogram: 7 0 0 0 0 0 0 0 0 1

Total # of neighbors = 216
Ave neighs/atom = 54
Neighbor list builds = 0
Dangerous builds = 0
variable  natoms equal "count(all)"
variable xlength equal "lx"
variable  volume equal "vol"
variable  etotal equal "etotal"
variable    ecoh equal "pe/v_natoms"
print "${xlength}, ${volume}, ${etotal}, ${ecoh}" append lattice_cohesive_energy.txt screen no

next i
jump SELF loop

change_box all x scale 1.0025 y scale 1.0025 z scale 1.0025 remap
Changing box ...
  orthogonal box = (0.017272426 0.022073492 0.022073492) to (3.8677276 3.8629265 3.8629265)
  orthogonal box = (0.017272426 0.017272426 0.022073492) to (3.8677276 3.8677276 3.8629265)
  orthogonal box = (0.017272426 0.017272426 0.017272426) to (3.8677276 3.8677276 3.8677276)

run 1
WARNING: No fixes with time integration, atoms won't move (src/verlet.cpp:60)
WARNING: Proc sub-domain size < neighbor skin, could lead to lost atoms (src/domain.cpp:966)
Per MPI rank memory allocation (min/avg/max) = 8.556 | 8.556 | 8.559 Mbytes
   Step         PotEng         TotEng           Lx             Ly             Lz           Volume         Press           Pxx            Pyy            Pzz      
        28  -21.22652      -21.22652       3.8504551      3.8504551      3.8504551      57.086867      124051.03      124051.03      124051.03      124051.03    
        29  -21.22652      -21.22652       3.8504551      3.8504551      3.8504551      57.086867      124051.03      124051.03      124051.03      124051.03    
Loop time of 0.000206875 on 8 procs for 1 steps with 4 atoms

Performance: 417.644 ns/day, 0.057 hours/ns, 4833.837 timesteps/s, 19.335 katom-step/s
0.0% CPU use with 8 MPI tasks x 1 OpenMP threads

MPI task timing breakdown:
Section |  min time  |  avg time  |  max time  |%varavg| %total
---------------------------------------------------------------
Pair    | 0.000129   | 0.0001415  | 0.000164   |   0.0 | 68.40
Neigh   | 0          | 0          | 0          |   0.0 |  0.00
Comm    | 1.3e-05    | 2.3625e-05 | 5.2e-05    |   0.0 | 11.42
Output  | 1.4e-05    | 3.4e-05    | 5.7e-05    |   0.0 | 16.44
Modify  | 0          | 1.25e-07   | 1e-06      |   0.0 |  0.06
Other   |            | 7.625e-06  |            |       |  3.69

Nlocal:            0.5 ave           4 max           0 min
Histogram: 7 0 0 0 0 0 0 0 0 1
Nghost:          255.5 ave         256 max         252 min
Histogram: 1 0 0 0 0 0 0 0 0 7
Neighs:           13.5 ave         108 max           0 min
Histogram: 7 0 0 0 0 0 0 0 0 1
FullNghs:           27 ave         216 max           0 min
Histogram: 7 0 0 0 0 0 0 0 0 1

Total # of neighbors = 216
Ave neighs/atom = 54
Neighbor list builds = 0
Dangerous builds = 0
variable  natoms equal "count(all)"
variable xlength equal "lx"
variable  volume equal "vol"
variable  etotal equal "etotal"
variable    ecoh equal "pe/v_natoms"
print "${xlength}, ${volume}, ${etotal}, ${ecoh}" append lattice_cohesive_energy.txt screen no

next i
jump SELF loop

change_box all x scale 1.0025 y scale 1.0025 z scale 1.0025 remap
Changing box ...
  orthogonal box = (0.012459357 0.017272426 0.017272426) to (3.8725406 3.8677276 3.8677276)
  orthogonal box = (0.012459357 0.012459357 0.017272426) to (3.8725406 3.8725406 3.8677276)
  orthogonal box = (0.012459357 0.012459357 0.012459357) to (3.8725406 3.8725406 3.8725406)

run 1
WARNING: No fixes with time integration, atoms won't move (src/verlet.cpp:60)
WARNING: Proc sub-domain size < neighbor skin, could lead to lost atoms (src/domain.cpp:966)
Per MPI rank memory allocation (min/avg/max) = 8.556 | 8.556 | 8.559 Mbytes
   Step         PotEng         TotEng           Lx             Ly             Lz           Volume         Press           Pxx            Pyy            Pzz      
        29  -21.25598      -21.25598       3.8600813      3.8600813      3.8600813      57.516089      96100.562      96100.562      96100.562      96100.562    
        30  -21.25598      -21.25598       3.8600813      3.8600813      3.8600813      57.516089      96100.562      96100.562      96100.562      96100.562    
Loop time of 0.00020725 on 8 procs for 1 steps with 4 atoms

Performance: 416.888 ns/day, 0.058 hours/ns, 4825.090 timesteps/s, 19.300 katom-step/s
0.0% CPU use with 8 MPI tasks x 1 OpenMP threads

MPI task timing breakdown:
Section |  min time  |  avg time  |  max time  |%varavg| %total
---------------------------------------------------------------
Pair    | 0.000129   | 0.00014187 | 0.000164   |   0.0 | 68.46
Neigh   | 0          | 0          | 0          |   0.0 |  0.00
Comm    | 1.2e-05    | 2.275e-05  | 5.1e-05    |   0.0 | 10.98
Output  | 1.4e-05    | 3.4e-05    | 5.6e-05    |   0.0 | 16.41
Modify  | 0          | 2.5e-07    | 1e-06      |   0.0 |  0.12
Other   |            | 8.375e-06  |            |       |  4.04

Nlocal:            0.5 ave           4 max           0 min
Histogram: 7 0 0 0 0 0 0 0 0 1
Nghost:          255.5 ave         256 max         252 min
Histogram: 1 0 0 0 0 0 0 0 0 7
Neighs:           13.5 ave         108 max           0 min
Histogram: 7 0 0 0 0 0 0 0 0 1
FullNghs:           27 ave         216 max           0 min
Histogram: 7 0 0 0 0 0 0 0 0 1

Total # of neighbors = 216
Ave neighs/atom = 54
Neighbor list builds = 0
Dangerous builds = 0
variable  natoms equal "count(all)"
variable xlength equal "lx"
variable  volume equal "vol"
variable  etotal equal "etotal"
variable    ecoh equal "pe/v_natoms"
print "${xlength}, ${volume}, ${etotal}, ${ecoh}" append lattice_cohesive_energy.txt screen no

next i
jump SELF loop

change_box all x scale 1.0025 y scale 1.0025 z scale 1.0025 remap
Changing box ...
  orthogonal box = (0.0076342555 0.012459357 0.012459357) to (3.8773657 3.8725406 3.8725406)
  orthogonal box = (0.0076342555 0.0076342555 0.012459357) to (3.8773657 3.8773657 3.8725406)
  orthogonal box = (0.0076342555 0.0076342555 0.0076342555) to (3.8773657 3.8773657 3.8773657)

run 1
WARNING: No fixes with time integration, atoms won't move (src/verlet.cpp:60)
WARNING: Proc sub-domain size < neighbor skin, could lead to lost atoms (src/domain.cpp:966)
Per MPI rank memory allocation (min/avg/max) = 8.556 | 8.556 | 8.559 Mbytes
   Step         PotEng         TotEng           Lx             Ly             Lz           Volume         Press           Pxx            Pyy            Pzz      
        30  -21.278265     -21.278265      3.8697315      3.8697315      3.8697315      57.948539      69237.334      69237.334      69237.334      69237.334    
        31  -21.278265     -21.278265      3.8697315      3.8697315      3.8697315      57.948539      69237.334      69237.334      69237.334      69237.334    
Loop time of 0.0002055 on 8 procs for 1 steps with 4 atoms

Performance: 420.438 ns/day, 0.057 hours/ns, 4866.180 timesteps/s, 19.465 katom-step/s
0.0% CPU use with 8 MPI tasks x 1 OpenMP threads

MPI task timing breakdown:
Section |  min time  |  avg time  |  max time  |%varavg| %total
---------------------------------------------------------------
Pair    | 0.000129   | 0.00014163 | 0.000163   |   0.0 | 68.92
Neigh   | 0          | 0          | 0          |   0.0 |  0.00
Comm    | 1.2e-05    | 2.2875e-05 | 5e-05      |   0.0 | 11.13
Output  | 1.4e-05    | 3.3e-05    | 5.5e-05    |   0.0 | 16.06
Modify  | 0          | 0          | 0          |   0.0 |  0.00
Other   |            | 8e-06      |            |       |  3.89

Nlocal:            0.5 ave           4 max           0 min
Histogram: 7 0 0 0 0 0 0 0 0 1
Nghost:          255.5 ave         256 max         252 min
Histogram: 1 0 0 0 0 0 0 0 0 7
Neighs:           13.5 ave         108 max           0 min
Histogram: 7 0 0 0 0 0 0 0 0 1
FullNghs:           27 ave         216 max           0 min
Histogram: 7 0 0 0 0 0 0 0 0 1

Total # of neighbors = 216
Ave neighs/atom = 54
Neighbor list builds = 0
Dangerous builds = 0
variable  natoms equal "count(all)"
variable xlength equal "lx"
variable  volume equal "vol"
variable  etotal equal "etotal"
variable    ecoh equal "pe/v_natoms"
print "${xlength}, ${volume}, ${etotal}, ${ecoh}" append lattice_cohesive_energy.txt screen no

next i
jump SELF loop

change_box all x scale 1.0025 y scale 1.0025 z scale 1.0025 remap
Changing box ...
  orthogonal box = (0.0027970912 0.0076342555 0.0076342555) to (3.8822029 3.8773657 3.8773657)
  orthogonal box = (0.0027970912 0.0027970912 0.0076342555) to (3.8822029 3.8822029 3.8773657)
  orthogonal box = (0.0027970912 0.0027970912 0.0027970912) to (3.8822029 3.8822029 3.8822029)

run 1
WARNING: No fixes with time integration, atoms won't move (src/verlet.cpp:60)
WARNING: Proc sub-domain size < neighbor skin, could lead to lost atoms (src/domain.cpp:966)
Per MPI rank memory allocation (min/avg/max) = 8.556 | 8.556 | 8.559 Mbytes
   Step         PotEng         TotEng           Lx             Ly             Lz           Volume         Press           Pxx            Pyy            Pzz      
        31  -21.293556     -21.293556      3.8794058      3.8794058      3.8794058      58.384241      43431.958      43431.958      43431.958      43431.958    
        32  -21.293556     -21.293556      3.8794058      3.8794058      3.8794058      58.384241      43431.958      43431.958      43431.958      43431.958    
Loop time of 0.000207125 on 8 procs for 1 steps with 4 atoms

Performance: 417.139 ns/day, 0.058 hours/ns, 4828.002 timesteps/s, 19.312 katom-step/s
0.0% CPU use with 8 MPI tasks x 1 OpenMP threads

MPI task timing breakdown:
Section |  min time  |  avg time  |  max time  |%varavg| %total
---------------------------------------------------------------
Pair    | 0.00013    | 0.00014263 | 0.000164   |   0.0 | 68.86
Neigh   | 0          | 0          | 0          |   0.0 |  0.00
Comm    | 1.2e-05    | 2.3e-05    | 5.1e-05    |   0.0 | 11.10
Output  | 1.3e-05    | 3.3375e-05 | 5.6e-05    |   0.0 | 16.11
Modify  | 0          | 2.5e-07    | 1e-06      |   0.0 |  0.12
Other   |            | 7.875e-06  |            |       |  3.80

Nlocal:            0.5 ave           4 max           0 min
Histogram: 7 0 0 0 0 0 0 0 0 1
Nghost:          255.5 ave         256 max         252 min
Histogram: 1 0 0 0 0 0 0 0 0 7
Neighs:           13.5 ave         108 max           0 min
Histogram: 7 0 0 0 0 0 0 0 0 1
FullNghs:           27 ave         216 max           0 min
Histogram: 7 0 0 0 0 0 0 0 0 1

Total # of neighbors = 216
Ave neighs/atom = 54
Neighbor list builds = 0
Dangerous builds = 0
variable  natoms equal "count(all)"
variable xlength equal "lx"
variable  volume equal "vol"
variable  etotal equal "etotal"
variable    ecoh equal "pe/v_natoms"
print "${xlength}, ${volume}, ${etotal}, ${ecoh}" append lattice_cohesive_energy.txt screen no

next i
jump SELF loop

change_box all x scale 1.0025 y scale 1.0025 z scale 1.0025 remap
Changing box ...
  orthogonal box = (-0.0020521661 0.0027970912 0.0027970912) to (3.8870522 3.8822029 3.8822029)
  orthogonal box = (-0.0020521661 -0.0020521661 0.0027970912) to (3.8870522 3.8870522 3.8822029)
  orthogonal box = (-0.0020521661 -0.0020521661 -0.0020521661) to (3.8870522 3.8870522 3.8870522)

run 1
WARNING: No fixes with time integration, atoms won't move (src/verlet.cpp:60)
WARNING: Proc sub-domain size < neighbor skin, could lead to lost atoms (src/domain.cpp:966)
Per MPI rank memory allocation (min/avg/max) = 8.556 | 8.556 | 8.559 Mbytes
   Step         PotEng         TotEng           Lx             Ly             Lz           Volume         Press           Pxx            Pyy            Pzz      
        32  -21.302035     -21.302035      3.8891043      3.8891043      3.8891043      58.823218      18655.323      18655.323      18655.323      18655.323    
        33  -21.302035     -21.302035      3.8891043      3.8891043      3.8891043      58.823218      18655.323      18655.323      18655.323      18655.323    
Loop time of 0.000206875 on 8 procs for 1 steps with 4 atoms

Performance: 417.644 ns/day, 0.057 hours/ns, 4833.837 timesteps/s, 19.335 katom-step/s
0.0% CPU use with 8 MPI tasks x 1 OpenMP threads

MPI task timing breakdown:
Section |  min time  |  avg time  |  max time  |%varavg| %total
---------------------------------------------------------------
Pair    | 0.000128   | 0.00014162 | 0.000163   |   0.0 | 68.46
Neigh   | 0          | 0          | 0          |   0.0 |  0.00
Comm    | 1.3e-05    | 2.325e-05  | 5.1e-05    |   0.0 | 11.24
Output  | 1.5e-05    | 3.4125e-05 | 5.7e-05    |   0.0 | 16.50
Modify  | 0          | 1.25e-07   | 1e-06      |   0.0 |  0.06
Other   |            | 7.75e-06   |            |       |  3.75

Nlocal:            0.5 ave           4 max           0 min
Histogram: 7 0 0 0 0 0 0 0 0 1
Nghost:          255.5 ave         256 max         252 min
Histogram: 1 0 0 0 0 0 0 0 0 7
Neighs:           13.5 ave         108 max           0 min
Histogram: 7 0 0 0 0 0 0 0 0 1
FullNghs:           27 ave         216 max           0 min
Histogram: 7 0 0 0 0 0 0 0 0 1

Total # of neighbors = 216
Ave neighs/atom = 54
Neighbor list builds = 0
Dangerous builds = 0
variable  natoms equal "count(all)"
variable xlength equal "lx"
variable  volume equal "vol"
variable  etotal equal "etotal"
variable    ecoh equal "pe/v_natoms"
print "${xlength}, ${volume}, ${etotal}, ${ecoh}" append lattice_cohesive_energy.txt screen no

next i
jump SELF loop

change_box all x scale 1.0025 y scale 1.0025 z scale 1.0025 remap
Changing box ...
  orthogonal box = (-0.0069135465 -0.0020521661 -0.0020521661) to (3.8919135 3.8870522 3.8870522)
  orthogonal box = (-0.0069135465 -0.0069135465 -0.0020521661) to (3.8919135 3.8919135 3.8870522)
  orthogonal box = (-0.0069135465 -0.0069135465 -0.0069135465) to (3.8919135 3.8919135 3.8919135)

run 1
WARNING: No fixes with time integration, atoms won't move (src/verlet.cpp:60)
WARNING: Proc sub-domain size < neighbor skin, could lead to lost atoms (src/domain.cpp:966)
Per MPI rank memory allocation (min/avg/max) = 8.556 | 8.556 | 8.559 Mbytes
   Step         PotEng         TotEng           Lx             Ly             Lz           Volume         Press           Pxx            Pyy            Pzz      
        33  -21.303876     -21.303876      3.8988271      3.8988271      3.8988271      59.265496     -5120.8504     -5120.8504     -5120.8504     -5120.8504    
        34  -21.303876     -21.303876      3.8988271      3.8988271      3.8988271      59.265496     -5120.8504     -5120.8504     -5120.8504     -5120.8504    
Loop time of 0.000205 on 8 procs for 1 steps with 4 atoms

Performance: 421.463 ns/day, 0.057 hours/ns, 4878.049 timesteps/s, 19.512 katom-step/s
0.0% CPU use with 8 MPI tasks x 1 OpenMP threads

MPI task timing breakdown:
Section |  min time  |  avg time  |  max time  |%varavg| %total
---------------------------------------------------------------
Pair    | 0.000129   | 0.00014125 | 0.000163   |   0.0 | 68.90
Neigh   | 0          | 0          | 0          |   0.0 |  0.00
Comm    | 1.2e-05    | 2.275e-05  | 4.9e-05    |   0.0 | 11.10
Output  | 1.4e-05    | 3.325e-05  | 5.6e-05    |   0.0 | 16.22
Modify  | 0          | 1.25e-07   | 1e-06      |   0.0 |  0.06
Other   |            | 7.625e-06  |            |       |  3.72

Nlocal:            0.5 ave           4 max           0 min
Histogram: 7 0 0 0 0 0 0 0 0 1
Nghost:          255.5 ave         256 max         252 min
Histogram: 1 0 0 0 0 0 0 0 0 7
Neighs:           13.5 ave         108 max           0 min
Histogram: 7 0 0 0 0 0 0 0 0 1
FullNghs:           27 ave         216 max           0 min
Histogram: 7 0 0 0 0 0 0 0 0 1

Total # of neighbors = 216
Ave neighs/atom = 54
Neighbor list builds = 0
Dangerous builds = 0
variable  natoms equal "count(all)"
variable xlength equal "lx"
variable  volume equal "vol"
variable  etotal equal "etotal"
variable    ecoh equal "pe/v_natoms"
print "${xlength}, ${volume}, ${etotal}, ${ecoh}" append lattice_cohesive_energy.txt screen no

next i
jump SELF loop

change_box all x scale 1.0025 y scale 1.0025 z scale 1.0025 remap
Changing box ...
  orthogonal box = (-0.01178708 -0.0069135465 -0.0069135465) to (3.8967871 3.8919135 3.8919135)
  orthogonal box = (-0.01178708 -0.01178708 -0.0069135465) to (3.8967871 3.8967871 3.8919135)
  orthogonal box = (-0.01178708 -0.01178708 -0.01178708) to (3.8967871 3.8967871 3.8967871)

run 1
WARNING: No fixes with time integration, atoms won't move (src/verlet.cpp:60)
WARNING: Proc sub-domain size < neighbor skin, could lead to lost atoms (src/domain.cpp:966)
Per MPI rank memory allocation (min/avg/max) = 8.556 | 8.556 | 8.559 Mbytes
   Step         PotEng         TotEng           Lx             Ly             Lz           Volume         Press           Pxx            Pyy            Pzz      
        34  -21.299254     -21.299254      3.9085742      3.9085742      3.9085742      59.7111       -27924.238     -27924.238     -27924.238     -27924.238    
        35  -21.299254     -21.299254      3.9085742      3.9085742      3.9085742      59.7111       -27924.238     -27924.238     -27924.238     -27924.238    
Loop time of 0.00020575 on 8 procs for 1 steps with 4 atoms

Performance: 419.927 ns/day, 0.057 hours/ns, 4860.267 timesteps/s, 19.441 katom-step/s
0.0% CPU use with 8 MPI tasks x 1 OpenMP threads

MPI task timing breakdown:
Section |  min time  |  avg time  |  max time  |%varavg| %total
---------------------------------------------------------------
Pair    | 0.000127   | 0.00014087 | 0.000164   |   0.0 | 68.47
Neigh   | 0          | 0          | 0          |   0.0 |  0.00
Comm    | 1.2e-05    | 2.2875e-05 | 5.1e-05    |   0.0 | 11.12
Output  | 1.4e-05    | 3.375e-05  | 5.7e-05    |   0.0 | 16.40
Modify  | 0          | 1.25e-07   | 1e-06      |   0.0 |  0.06
Other   |            | 8.125e-06  |            |       |  3.95

Nlocal:            0.5 ave           4 max           0 min
Histogram: 7 0 0 0 0 0 0 0 0 1
Nghost:          255.5 ave         256 max         252 min
Histogram: 1 0 0 0 0 0 0 0 0 7
Neighs:           13.5 ave         108 max           0 min
Histogram: 7 0 0 0 0 0 0 0 0 1
FullNghs:           27 ave         216 max           0 min
Histogram: 7 0 0 0 0 0 0 0 0 1

Total # of neighbors = 216
Ave neighs/atom = 54
Neighbor list builds = 0
Dangerous builds = 0
variable  natoms equal "count(all)"
variable xlength equal "lx"
variable  volume equal "vol"
variable  etotal equal "etotal"
variable    ecoh equal "pe/v_natoms"
print "${xlength}, ${volume}, ${etotal}, ${ecoh}" append lattice_cohesive_energy.txt screen no

next i
jump SELF loop

change_box all x scale 1.0025 y scale 1.0025 z scale 1.0025 remap
Changing box ...
  orthogonal box = (-0.016672798 -0.01178708 -0.01178708) to (3.9016728 3.8967871 3.8967871)
  orthogonal box = (-0.016672798 -0.016672798 -0.01178708) to (3.9016728 3.9016728 3.8967871)
  orthogonal box = (-0.016672798 -0.016672798 -0.016672798) to (3.9016728 3.9016728 3.9016728)

run 1
WARNING: No fixes with time integration, atoms won't move (src/verlet.cpp:60)
WARNING: Proc sub-domain size < neighbor skin, could lead to lost atoms (src/domain.cpp:966)
Per MPI rank memory allocation (min/avg/max) = 8.556 | 8.556 | 8.559 Mbytes
   Step         PotEng         TotEng           Lx             Ly             Lz           Volume         Press           Pxx            Pyy            Pzz      
        35  -21.288342     -21.288342      3.9183456      3.9183456      3.9183456      60.160053     -49782.076     -49782.076     -49782.076     -49782.076    
        36  -21.288342     -21.288342      3.9183456      3.9183456      3.9183456      60.160053     -49782.076     -49782.076     -49782.076     -49782.076    
Loop time of 0.000204875 on 8 procs for 1 steps with 4 atoms

Performance: 421.721 ns/day, 0.057 hours/ns, 4881.025 timesteps/s, 19.524 katom-step/s
0.0% CPU use with 8 MPI tasks x 1 OpenMP threads

MPI task timing breakdown:
Section |  min time  |  avg time  |  max time  |%varavg| %total
---------------------------------------------------------------
Pair    | 0.000128   | 0.000141   | 0.000162   |   0.0 | 68.82
Neigh   | 0          | 0          | 0          |   0.0 |  0.00
Comm    | 1.2e-05    | 2.2625e-05 | 5e-05      |   0.0 | 11.04
Output  | 1.4e-05    | 3.325e-05  | 5.6e-05    |   0.0 | 16.23
Modify  | 0          | 2.5e-07    | 1e-06      |   0.0 |  0.12
Other   |            | 7.75e-06   |            |       |  3.78

Nlocal:            0.5 ave           4 max           0 min
Histogram: 7 0 0 0 0 0 0 0 0 1
Nghost:          255.5 ave         256 max         252 min
Histogram: 1 0 0 0 0 0 0 0 0 7
Neighs:           13.5 ave         108 max           0 min
Histogram: 7 0 0 0 0 0 0 0 0 1
FullNghs:           27 ave         216 max           0 min
Histogram: 7 0 0 0 0 0 0 0 0 1

Total # of neighbors = 216
Ave neighs/atom = 54
Neighbor list builds = 0
Dangerous builds = 0
variable  natoms equal "count(all)"
variable xlength equal "lx"
variable  volume equal "vol"
variable  etotal equal "etotal"
variable    ecoh equal "pe/v_natoms"
print "${xlength}, ${volume}, ${etotal}, ${ecoh}" append lattice_cohesive_energy.txt screen no

next i
jump SELF loop

change_box all x scale 1.0025 y scale 1.0025 z scale 1.0025 remap
Changing box ...
  orthogonal box = (-0.02157073 -0.016672798 -0.016672798) to (3.9065707 3.9016728 3.9016728)
  orthogonal box = (-0.02157073 -0.02157073 -0.016672798) to (3.9065707 3.9065707 3.9016728)
  orthogonal box = (-0.02157073 -0.02157073 -0.02157073) to (3.9065707 3.9065707 3.9065707)

run 1
WARNING: No fixes with time integration, atoms won't move (src/verlet.cpp:60)
WARNING: Proc sub-domain size < neighbor skin, could lead to lost atoms (src/domain.cpp:966)
Per MPI rank memory allocation (min/avg/max) = 8.556 | 8.556 | 8.559 Mbytes
   Step         PotEng         TotEng           Lx             Ly             Lz           Volume         Press           Pxx            Pyy            Pzz      
        36  -21.271306     -21.271306      3.9281415      3.9281415      3.9281415      60.612383     -70720.684     -70720.684     -70720.684     -70720.684    
        37  -21.271306     -21.271306      3.9281415      3.9281415      3.9281415      60.612383     -70720.684     -70720.684     -70720.684     -70720.684    
Loop time of 0.000210625 on 8 procs for 1 steps with 4 atoms

Performance: 410.208 ns/day, 0.059 hours/ns, 4747.774 timesteps/s, 18.991 katom-step/s
0.0% CPU use with 8 MPI tasks x 1 OpenMP threads

MPI task timing breakdown:
Section |  min time  |  avg time  |  max time  |%varavg| %total
---------------------------------------------------------------
Pair    | 0.000129   | 0.00014125 | 0.000162   |   0.0 | 67.06
Neigh   | 0          | 0          | 0          |   0.0 |  0.00
[...]
Pair    | 7.4e-05    | 8.1e-05    | 9.3e-05    |   0.0 | 63.22
Neigh   | 0          | 0          | 0          |   0.0 |  0.00
Comm    | 9e-06      | 1.45e-05   | 3e-05      |   0.0 | 11.32
Output  | 1.5e-05    | 2.4e-05    | 3.6e-05    |   0.0 | 18.73
Modify  | 0          | 1.25e-07   | 1e-06      |   0.0 |  0.10
Other   |            | 8.5e-06    |            |       |  6.63

Nlocal:            0.5 ave           4 max           0 min
Histogram: 7 0 0 0 0 0 0 0 0 1
Nghost:          107.5 ave         108 max         104 min
Histogram: 1 0 0 0 0 0 0 0 0 7
Neighs:           13.5 ave         108 max           0 min
Histogram: 7 0 0 0 0 0 0 0 0 1
FullNghs:           27 ave         216 max           0 min
Histogram: 7 0 0 0 0 0 0 0 0 1

Total # of neighbors = 216
Ave neighs/atom = 54
Neighbor list builds = 0
Dangerous builds = 0
variable  natoms equal "count(all)"
variable xlength equal "lx"
variable  volume equal "vol"
variable  etotal equal "etotal"
variable    ecoh equal "pe/v_natoms"
print "${xlength}, ${volume}, ${etotal}, ${ecoh}" append lattice_cohesive_energy.txt screen no

next i
jump SELF loop

change_box all x scale 1.0025 y scale 1.0025 z scale 1.0025 remap
Changing box ...
  orthogonal box = (-0.096526372 -0.091441519 -0.091441519) to (3.9815264 3.9764415 3.9764415)
  orthogonal box = (-0.096526372 -0.096526372 -0.091441519) to (3.9815264 3.9815264 3.9764415)
  orthogonal box = (-0.096526372 -0.096526372 -0.096526372) to (3.9815264 3.9815264 3.9815264)

run 1
WARNING: No fixes with time integration, atoms won't move (src/verlet.cpp:60)
Per MPI rank memory allocation (min/avg/max) = 8.532 | 8.533 | 8.535 Mbytes
   Step         PotEng         TotEng           Lx             Ly             Lz           Volume         Press           Pxx            Pyy            Pzz      
        51  -20.388191     -20.388191      4.0780527      4.0780527      4.0780527      67.820114     -290823.88     -290823.88     -290823.88     -290823.88    
        52  -20.388191     -20.388191      4.0780527      4.0780527      4.0780527      67.820114     -290823.88     -290823.88     -290823.88     -290823.88    
Loop time of 0.000131875 on 8 procs for 1 steps with 4 atoms

Performance: 655.166 ns/day, 0.037 hours/ns, 7582.938 timesteps/s, 30.332 katom-step/s
0.0% CPU use with 8 MPI tasks x 1 OpenMP threads

MPI task timing breakdown:
Section |  min time  |  avg time  |  max time  |%varavg| %total
---------------------------------------------------------------
Pair    | 7.5e-05    | 8.225e-05  | 9.5e-05    |   0.0 | 62.37
Neigh   | 0          | 0          | 0          |   0.0 |  0.00
Comm    | 9e-06      | 1.625e-05  | 3.3e-05    |   0.0 | 12.32
Output  | 1.6e-05    | 2.6e-05    | 4e-05      |   0.0 | 19.72
Modify  | 0          | 1.25e-07   | 1e-06      |   0.0 |  0.09
Other   |            | 7.25e-06   |            |       |  5.50

Nlocal:            0.5 ave           4 max           0 min
Histogram: 7 0 0 0 0 0 0 0 0 1
Nghost:          107.5 ave         108 max         104 min
Histogram: 1 0 0 0 0 0 0 0 0 7
Neighs:           13.5 ave         108 max           0 min
Histogram: 7 0 0 0 0 0 0 0 0 1
FullNghs:           27 ave         216 max           0 min
Histogram: 7 0 0 0 0 0 0 0 0 1

Total # of neighbors = 216
Ave neighs/atom = 54
Neighbor list builds = 0
Dangerous builds = 0
variable  natoms equal "count(all)"
variable xlength equal "lx"
variable  volume equal "vol"
variable  etotal equal "etotal"
variable    ecoh equal "pe/v_natoms"
print "${xlength}, ${volume}, ${etotal}, ${ecoh}" append lattice_cohesive_energy.txt screen no

next i
jump SELF loop

change_box all x scale 1.0025 y scale 1.0025 z scale 1.0025 remap
Changing box ...
  orthogonal box = (-0.10162394 -0.096526372 -0.096526372) to (3.9866239 3.9815264 3.9815264)
  orthogonal box = (-0.10162394 -0.10162394 -0.096526372) to (3.9866239 3.9866239 3.9815264)
  orthogonal box = (-0.10162394 -0.10162394 -0.10162394) to (3.9866239 3.9866239 3.9866239)

run 1
WARNING: No fixes with time integration, atoms won't move (src/verlet.cpp:60)
Per MPI rank memory allocation (min/avg/max) = 8.532 | 8.533 | 8.535 Mbytes
   Step         PotEng         TotEng           Lx             Ly             Lz           Volume         Press           Pxx            Pyy            Pzz      
        52  -20.294119     -20.294119      4.0882479      4.0882479      4.0882479      68.330038     -300214.01     -300214.01     -300214.01     -300214.01    
        53  -20.294119     -20.294119      4.0882479      4.0882479      4.0882479      68.330038     -300214.01     -300214.01     -300214.01     -300214.01    
Loop time of 0.000128375 on 8 procs for 1 steps with 4 atoms

Performance: 673.028 ns/day, 0.036 hours/ns, 7789.679 timesteps/s, 31.159 katom-step/s
0.0% CPU use with 8 MPI tasks x 1 OpenMP threads

MPI task timing breakdown:
Section |  min time  |  avg time  |  max time  |%varavg| %total
---------------------------------------------------------------
Pair    | 7.4e-05    | 8.1375e-05 | 9.3e-05    |   0.0 | 63.39
Neigh   | 0          | 0          | 0          |   0.0 |  0.00
Comm    | 8e-06      | 1.4625e-05 | 2.8e-05    |   0.0 | 11.39
Output  | 1.6e-05    | 2.475e-05  | 3.6e-05    |   0.0 | 19.28
Modify  | 0          | 0          | 0          |   0.0 |  0.00
Other   |            | 7.625e-06  |            |       |  5.94

Nlocal:            0.5 ave           4 max           0 min
Histogram: 7 0 0 0 0 0 0 0 0 1
Nghost:          107.5 ave         108 max         104 min
Histogram: 1 0 0 0 0 0 0 0 0 7
Neighs:           13.5 ave         108 max           0 min
Histogram: 7 0 0 0 0 0 0 0 0 1
FullNghs:           27 ave         216 max           0 min
Histogram: 7 0 0 0 0 0 0 0 0 1

Total # of neighbors = 216
Ave neighs/atom = 54
Neighbor list builds = 0
Dangerous builds = 0
variable  natoms equal "count(all)"
variable xlength equal "lx"
variable  volume equal "vol"
variable  etotal equal "etotal"
variable    ecoh equal "pe/v_natoms"
print "${xlength}, ${volume}, ${etotal}, ${ecoh}" append lattice_cohesive_energy.txt screen no

next i
jump SELF loop

change_box all x scale 1.0025 y scale 1.0025 z scale 1.0025 remap
Changing box ...
  orthogonal box = (-0.10673425 -0.10162394 -0.10162394) to (3.9917342 3.9866239 3.9866239)
  orthogonal box = (-0.10673425 -0.10673425 -0.10162394) to (3.9917342 3.9917342 3.9866239)
  orthogonal box = (-0.10673425 -0.10673425 -0.10673425) to (3.9917342 3.9917342 3.9917342)

run 1
WARNING: No fixes with time integration, atoms won't move (src/verlet.cpp:60)
Per MPI rank memory allocation (min/avg/max) = 8.532 | 8.533 | 8.535 Mbytes
   Step         PotEng         TotEng           Lx             Ly             Lz           Volume         Press           Pxx            Pyy            Pzz      
        53  -20.196418     -20.196418      4.0984685      4.0984685      4.0984685      68.843795     -309054.06     -309054.06     -309054.06     -309054.06    
        54  -20.196418     -20.196418      4.0984685      4.0984685      4.0984685      68.843795     -309054.06     -309054.06     -309054.06     -309054.06    
Loop time of 0.00012775 on 8 procs for 1 steps with 4 atoms

Performance: 676.321 ns/day, 0.035 hours/ns, 7827.789 timesteps/s, 31.311 katom-step/s
0.0% CPU use with 8 MPI tasks x 1 OpenMP threads

MPI task timing breakdown:
Section |  min time  |  avg time  |  max time  |%varavg| %total
---------------------------------------------------------------
Pair    | 7.5e-05    | 8.125e-05  | 9.3e-05    |   0.0 | 63.60
Neigh   | 0          | 0          | 0          |   0.0 |  0.00
Comm    | 8e-06      | 1.45e-05   | 2.9e-05    |   0.0 | 11.35
Output  | 1.4e-05    | 2.375e-05  | 3.5e-05    |   0.0 | 18.59
Modify  | 0          | 2.5e-07    | 1e-06      |   0.0 |  0.20
Other   |            | 8e-06      |            |       |  6.26

Nlocal:            0.5 ave           4 max           0 min
Histogram: 7 0 0 0 0 0 0 0 0 1
Nghost:          107.5 ave         108 max         104 min
Histogram: 1 0 0 0 0 0 0 0 0 7
Neighs:           13.5 ave         108 max           0 min
Histogram: 7 0 0 0 0 0 0 0 0 1
FullNghs:           27 ave         216 max           0 min
Histogram: 7 0 0 0 0 0 0 0 0 1

Total # of neighbors = 216
Ave neighs/atom = 54
Neighbor list builds = 0
Dangerous builds = 0
variable  natoms equal "count(all)"
variable xlength equal "lx"
variable  volume equal "vol"
variable  etotal equal "etotal"
variable    ecoh equal "pe/v_natoms"
print "${xlength}, ${volume}, ${etotal}, ${ecoh}" append lattice_cohesive_energy.txt screen no

next i
jump SELF loop

change_box all x scale 1.0025 y scale 1.0025 z scale 1.0025 remap
Changing box ...
  orthogonal box = (-0.11185733 -0.10673425 -0.10673425) to (3.9968573 3.9917342 3.9917342)
  orthogonal box = (-0.11185733 -0.11185733 -0.10673425) to (3.9968573 3.9968573 3.9917342)
  orthogonal box = (-0.11185733 -0.11185733 -0.11185733) to (3.9968573 3.9968573 3.9968573)

run 1
WARNING: No fixes with time integration, atoms won't move (src/verlet.cpp:60)
Per MPI rank memory allocation (min/avg/max) = 8.532 | 8.533 | 8.535 Mbytes
   Step         PotEng         TotEng           Lx             Ly             Lz           Volume         Press           Pxx            Pyy            Pzz      
        54  -20.095214     -20.095214      4.1087147      4.1087147      4.1087147      69.361415     -317361.44     -317361.44     -317361.44     -317361.44    
        55  -20.095214     -20.095214      4.1087147      4.1087147      4.1087147      69.361415     -317361.44     -317361.44     -317361.44     -317361.44    
Loop time of 0.000127875 on 8 procs for 1 steps with 4 atoms

Performance: 675.660 ns/day, 0.036 hours/ns, 7820.137 timesteps/s, 31.281 katom-step/s
0.0% CPU use with 8 MPI tasks x 1 OpenMP threads

MPI task timing breakdown:
Section |  min time  |  avg time  |  max time  |%varavg| %total
---------------------------------------------------------------
Pair    | 7.5e-05    | 8.1375e-05 | 9.3e-05    |   0.0 | 63.64
Neigh   | 0          | 0          | 0          |   0.0 |  0.00
Comm    | 8e-06      | 1.475e-05  | 3e-05      |   0.0 | 11.53
Output  | 1.5e-05    | 2.4125e-05 | 3.6e-05    |   0.0 | 18.87
Modify  | 0          | 1.25e-07   | 1e-06      |   0.0 |  0.10
Other   |            | 7.5e-06    |            |       |  5.87

Nlocal:            0.5 ave           4 max           0 min
Histogram: 7 0 0 0 0 0 0 0 0 1
Nghost:          107.5 ave         108 max         104 min
Histogram: 1 0 0 0 0 0 0 0 0 7
Neighs:           13.5 ave         108 max           0 min
Histogram: 7 0 0 0 0 0 0 0 0 1
FullNghs:           27 ave         216 max           0 min
Histogram: 7 0 0 0 0 0 0 0 0 1

Total # of neighbors = 216
Ave neighs/atom = 54
Neighbor list builds = 0
Dangerous builds = 0
variable  natoms equal "count(all)"
variable xlength equal "lx"
variable  volume equal "vol"
variable  etotal equal "etotal"
variable    ecoh equal "pe/v_natoms"
print "${xlength}, ${volume}, ${etotal}, ${ecoh}" append lattice_cohesive_energy.txt screen no

next i
jump SELF loop

change_box all x scale 1.0025 y scale 1.0025 z scale 1.0025 remap
Changing box ...
  orthogonal box = (-0.11699323 -0.11185733 -0.11185733) to (4.0019932 3.9968573 3.9968573)
  orthogonal box = (-0.11699323 -0.11699323 -0.11185733) to (4.0019932 4.0019932 3.9968573)
  orthogonal box = (-0.11699323 -0.11699323 -0.11699323) to (4.0019932 4.0019932 4.0019932)

run 1
WARNING: No fixes with time integration, atoms won't move (src/verlet.cpp:60)
Per MPI rank memory allocation (min/avg/max) = 8.532 | 8.533 | 8.535 Mbytes
   Step         PotEng         TotEng           Lx             Ly             Lz           Volume         Press           Pxx            Pyy            Pzz      
        55  -19.990628     -19.990628      4.1189865      4.1189865      4.1189865      69.882928     -325153.25     -325153.25     -325153.25     -325153.25    
        56  -19.990628     -19.990628      4.1189865      4.1189865      4.1189865      69.882928     -325153.25     -325153.25     -325153.25     -325153.25    
Loop time of 0.00012775 on 8 procs for 1 steps with 4 atoms

Performance: 676.321 ns/day, 0.035 hours/ns, 7827.789 timesteps/s, 31.311 katom-step/s
0.0% CPU use with 8 MPI tasks x 1 OpenMP threads

MPI task timing breakdown:
Section |  min time  |  avg time  |  max time  |%varavg| %total
---------------------------------------------------------------
Pair    | 7.4e-05    | 8.075e-05  | 9.3e-05    |   0.0 | 63.21
Neigh   | 0          | 0          | 0          |   0.0 |  0.00
Comm    | 9e-06      | 1.45e-05   | 2.9e-05    |   0.0 | 11.35
Output  | 1.5e-05    | 2.4125e-05 | 3.6e-05    |   0.0 | 18.88
Modify  | 0          | 0          | 0          |   0.0 |  0.00
Other   |            | 8.375e-06  |            |       |  6.56

Nlocal:            0.5 ave           4 max           0 min
Histogram: 7 0 0 0 0 0 0 0 0 1
Nghost:          107.5 ave         108 max         104 min
Histogram: 1 0 0 0 0 0 0 0 0 7
Neighs:           13.5 ave         108 max           0 min
Histogram: 7 0 0 0 0 0 0 0 0 1
FullNghs:           27 ave         216 max           0 min
Histogram: 7 0 0 0 0 0 0 0 0 1

Total # of neighbors = 216
Ave neighs/atom = 54
Neighbor list builds = 0
Dangerous builds = 0
variable  natoms equal "count(all)"
variable xlength equal "lx"
variable  volume equal "vol"
variable  etotal equal "etotal"
variable    ecoh equal "pe/v_natoms"
print "${xlength}, ${volume}, ${etotal}, ${ecoh}" append lattice_cohesive_energy.txt screen no

next i
jump SELF loop

change_box all x scale 1.0025 y scale 1.0025 z scale 1.0025 remap
Changing box ...
  orthogonal box = (-0.12214196 -0.11699323 -0.11699323) to (4.007142 4.0019932 4.0019932)
  orthogonal box = (-0.12214196 -0.12214196 -0.11699323) to (4.007142 4.007142 4.0019932)
  orthogonal box = (-0.12214196 -0.12214196 -0.12214196) to (4.007142 4.007142 4.007142)

run 1
WARNING: No fixes with time integration, atoms won't move (src/verlet.cpp:60)
Per MPI rank memory allocation (min/avg/max) = 8.532 | 8.533 | 8.535 Mbytes
   Step         PotEng         TotEng           Lx             Ly             Lz           Volume         Press           Pxx            Pyy            Pzz      
        56  -19.882784     -19.882784      4.1292839      4.1292839      4.1292839      70.408361     -332446.04     -332446.04     -332446.04     -332446.04    
        57  -19.882784     -19.882784      4.1292839      4.1292839      4.1292839      70.408361     -332446.04     -332446.04     -332446.04     -332446.04    
Loop time of 0.00013325 on 8 procs for 1 steps with 4 atoms

Performance: 648.405 ns/day, 0.037 hours/ns, 7504.690 timesteps/s, 30.019 katom-step/s
0.0% CPU use with 8 MPI tasks x 1 OpenMP threads

MPI task timing breakdown:
Section |  min time  |  avg time  |  max time  |%varavg| %total
---------------------------------------------------------------
Pair    | 7.4e-05    | 8.075e-05  | 9.3e-05    |   0.0 | 60.60
Neigh   | 0          | 0          | 0          |   0.0 |  0.00
Comm    | 7e-06      | 1.45e-05   | 3e-05      |   0.0 | 10.88
Output  | 1.5e-05    | 2.525e-05  | 3.7e-05    |   0.0 | 18.95
Modify  | 0          | 2.5e-07    | 1e-06      |   0.0 |  0.19
Other   |            | 1.25e-05   |            |       |  9.38

Nlocal:            0.5 ave           4 max           0 min
Histogram: 7 0 0 0 0 0 0 0 0 1
Nghost:          107.5 ave         108 max         104 min
Histogram: 1 0 0 0 0 0 0 0 0 7
Neighs:           13.5 ave         108 max           0 min
Histogram: 7 0 0 0 0 0 0 0 0 1
FullNghs:           27 ave         216 max           0 min
Histogram: 7 0 0 0 0 0 0 0 0 1

Total # of neighbors = 216
Ave neighs/atom = 54
Neighbor list builds = 0
Dangerous builds = 0
variable  natoms equal "count(all)"
variable xlength equal "lx"
variable  volume equal "vol"
variable  etotal equal "etotal"
variable    ecoh equal "pe/v_natoms"
print "${xlength}, ${volume}, ${etotal}, ${ecoh}" append lattice_cohesive_energy.txt screen no

next i
jump SELF loop

change_box all x scale 1.0025 y scale 1.0025 z scale 1.0025 remap
Changing box ...
  orthogonal box = (-0.12730357 -0.12214196 -0.12214196) to (4.0123036 4.007142 4.007142)
  orthogonal box = (-0.12730357 -0.12730357 -0.12214196) to (4.0123036 4.0123036 4.007142)
  orthogonal box = (-0.12730357 -0.12730357 -0.12730357) to (4.0123036 4.0123036 4.0123036)

run 1
WARNING: No fixes with time integration, atoms won't move (src/verlet.cpp:60)
Per MPI rank memory allocation (min/avg/max) = 8.532 | 8.533 | 8.535 Mbytes
   Step         PotEng         TotEng           Lx             Ly             Lz           Volume         Press           Pxx            Pyy            Pzz      
        57  -19.771799     -19.771799      4.1396071      4.1396071      4.1396071      70.937745     -339256.02     -339256.02     -339256.02     -339256.02    
        58  -19.771799     -19.771799      4.1396071      4.1396071      4.1396071      70.937745     -339256.02     -339256.02     -339256.02     -339256.02    
Loop time of 0.000128125 on 8 procs for 1 steps with 4 atoms

Performance: 674.341 ns/day, 0.036 hours/ns, 7804.878 timesteps/s, 31.220 katom-step/s
0.0% CPU use with 8 MPI tasks x 1 OpenMP threads

MPI task timing breakdown:
Section |  min time  |  avg time  |  max time  |%varavg| %total
---------------------------------------------------------------
Pair    | 7.3e-05    | 8.0625e-05 | 9.2e-05    |   0.0 | 62.93
Neigh   | 0          | 0          | 0          |   0.0 |  0.00
Comm    | 7e-06      | 1.4625e-05 | 3.1e-05    |   0.0 | 11.41
Output  | 1.5e-05    | 2.475e-05  | 3.7e-05    |   0.0 | 19.32
Modify  | 0          | 1.25e-07   | 1e-06      |   0.0 |  0.10
Other   |            | 8e-06      |            |       |  6.24

Nlocal:            0.5 ave           4 max           0 min
Histogram: 7 0 0 0 0 0 0 0 0 1
Nghost:          107.5 ave         108 max         104 min
Histogram: 1 0 0 0 0 0 0 0 0 7
Neighs:           13.5 ave         108 max           0 min
Histogram: 7 0 0 0 0 0 0 0 0 1
FullNghs:           27 ave         216 max           0 min
Histogram: 7 0 0 0 0 0 0 0 0 1

Total # of neighbors = 216
Ave neighs/atom = 54
Neighbor list builds = 0
Dangerous builds = 0
variable  natoms equal "count(all)"
variable xlength equal "lx"
variable  volume equal "vol"
variable  etotal equal "etotal"
variable    ecoh equal "pe/v_natoms"
print "${xlength}, ${volume}, ${etotal}, ${ecoh}" append lattice_cohesive_energy.txt screen no

next i
jump SELF loop

print "-------------------------------------------------------------"
-------------------------------------------------------------
print "Show results of 1st step (Running Minimization)"
Show results of 1st step (Running Minimization)
print "The number of atoms = ${natoms};"
The number of atoms = 4;
print "The lattice constant, x (Angstoms) = ${x0};"
The lattice constant, x (Angstoms) = 4.13960713037692;
print "The lattice constant, y (Angstoms) = ${y0};"
The lattice constant, y (Angstoms) = 4.13960713037692;
print "The lattice constant, z (Angstoms) = ${z0};"
The lattice constant, z (Angstoms) = 4.13960713037692;
print "The volume (Angstoms^3) = ${v0};"
The volume (Angstoms^3) = 70.9377450323482;
print "The total energy (eV) = ${etot0};"
The total energy (eV) = -19.7717987633557;
print "The cohesive energy (eV/atom) = ${ecoh0};"
The cohesive energy (eV/atom) = -4.94294969083892;
print "-------------------------------------------------------------"
-------------------------------------------------------------
print "Simulations completed !"
Simulations completed !
Total wall time: 0:00:00
