LAMMPS data file via write_data, version 22 Dec 2022, timestep = 3

8 atoms
2 atom types

0.00014694364091171573 5.528853056359088 xlo xhi
0.00014694364091171573 5.528853056359088 ylo yhi
0.00014694364091171573 5.528853056359088 zlo zhi

Masses

1 72.63
2 28.085

Atoms # atomic

1 1 0.00014694364091205614 0.00014694364091205614 0.00014694364091205614 0 0 0
5 2 1.3823234718204556 1.3823234718204556 1.3823234718204556 0 0 0
2 1 0.00014694364091205614 2.7644999999999995 2.7644999999999995 0 0 0
6 2 1.3823234718204556 4.146676528179543 4.146676528179543 0 0 0
3 1 2.7644999999999995 0.00014694364091205614 2.7644999999999995 0 0 0
7 2 4.146676528179543 1.3823234718204556 4.146676528179543 0 0 0
4 1 2.7644999999999995 2.7644999999999995 0.00014694364091205614 0 0 0
8 2 4.146676528179543 4.146676528179543 1.3823234718204556 0 0 0

Velocities

1 0 0 0
5 0 0 0
2 0 0 0
6 0 0 0
3 0 0 0
7 0 0 0
4 0 0 0
8 0 0 0
