LAMMPS (22 Dec 2022)
  using 1 OpenMP thread(s) per MPI task
Loaded 1 plugins from C:\Program Files\LAMMPS 64-bit 23Jun2022\plugins
Loaded 0 plugins from C:\Program Files\LAMMPS 64-bit 23Jun2022-MPI\plugins
Loaded 1 plugins from C:\Program Files\LAMMPS 64-bit 22Dec2022-MSMPI\plugins
Loaded 1 plugins from C:\Program Files\LAMMPS 64-bit 28Mar2023-MPI\plugins
# Compute elastic constant tensor for a crystal
#
# Written by Aidan Thompson (Sandia, athomps@sandia.gov)
#
#  This script uses the following three include files.
#
#   init.mod      (must be modified for different crystal structures)
# 	       	  Define units, deformation parameters and initial
#		  configuration of the atoms and simulation cell.
#
#
#   potential.mod    (must be modified for different pair styles)
# 		     Define pair style and other attributes
#		     not stored in restart file
#
#
#   displace.mod    (displace.mod should not need to be modified)
# 		    Perform positive and negative box displacements
# 		    in direction ${dir} and size ${up}.
# 		    It uses the resultant changes
#		    in stress to compute one
# 		    row of the elastic stiffness tensor
#
#		    Inputs variables:
#		    	   dir = the Voigt deformation component
#		    		    (1,2,3,4,5,6)
#		    Global constants:
#       	    	   up = the deformation magnitude (strain units)
#       		   cfac = conversion from LAMMPS pressure units to
#               	   output units for elastic constants
#
#
#  To run this on a different system, it should only be necessary to
#  modify the files init.mod and potential.mod. In order to calculate
#  the elastic constants correctly, care must be taken to specify
#  the correct units in init.mod (units, cfac and cunits). It is also
#  important to verify that the minimization of energy w.r.t atom
#  positions in the deformed cell is fully converged.
#  One indication of this is that the elastic constants are insensitive
#  to the choice of the variable ${up} in init.mod. Another is to check
#  the final max and two-norm forces reported in the log file. If you know
#  that minimization is not required, you can set maxiter = 0.0 in
#  init.mod.
#

include init.mod
# NOTE: This script can be modified for different atomic structures,
# units, etc. See in.elastic for more info.
#

# Define the finite deformation size. Try several values of this
# variable to verify that results do not depend on it.
variable up equal 1.0e-6

# Define the amount of random jiggle for atoms
# This prevents atoms from staying on saddle points
variable atomjiggle equal 1.0e-5

# Uncomment one of these blocks, depending on what units
# you are using in LAMMPS and for output

# metal units, elastic constants in eV/A^3
#units		metal
#variable cfac equal 6.2414e-7
#variable cunits string eV/A^3

# metal units, elastic constants in GPa
units		metal
variable cfac equal 1.0e-4
variable cunits string GPa

# real units, elastic constants in GPa
#units		real
#variable cfac equal 1.01325e-4
#variable cunits string GPa

# Define minimization parameters
variable etol equal 0.0
variable ftol equal 1.0e-10
variable maxiter equal 100
variable maxeval equal 1000
variable dmax equal 1.0e-2

# generate the box and atom positions using a diamond lattice

dimension    3
boundary     p p p
read_data    data.in
Reading data file ...
  orthogonal box = (0.00014694364 0.00014694364 0.00014694364) to (5.5288531 5.5288531 5.5288531)
  1 by 2 by 2 MPI processor grid
  reading atoms ...
  8 atoms
  reading velocities ...
  8 velocities
  read_data CPU = 0.001 seconds
replicate    2 3 4
Replication is creating a 2x3x4 = 24 times larger system...
  orthogonal box = (0.00014694364 0.00014694364 0.00014694364) to (11.057559 16.586265 22.114971)
  1 by 2 by 2 MPI processor grid
  192 atoms
  replicate CPU = 0.000 seconds
change_box   all triclinic
Changing box ...
  triclinic box = (0.00014694364 0.00014694364 0.00014694364) to (11.057559 16.586265 22.114971) with tilt (0 0 0)

# Need to set mass to something, just to satisfy LAMMPS
mass 1 1.0e-20

include potential.mod
# NOTE: This script can be modified for different pair styles
# See in.elastic for more info.

# Choose potential
#-----------------------
#pair_style	sw
#pair_coeff * * Si.sw Si
#-----------------------
#pair_style morse	2.83994742	# D0[eV] a[1/A] r0[A] rc[A], 1NN for BCC
#pair_coeff 1 1	2.1173	1.0202	2.4595	2.6497	#	Fe-Fe
#-----------------------
#pair_style smatb # R0(A)   p       q     A(eV)   xi(eV)  Rcs(A)   Rc(A), 4NN: Rcs=4NN, Rc=(4NN+5NN)/2
#pair_coeff 1 1	2.4802	7.0149	2.3779	0.3144	3.0551	4.033	4.176	#	Co	Co
#-----------------------
#pair_style eam/alloy
#pair_coeff * * AlCrFeCoNi_Zhou04.eam.alloy Fe
#-----------------------
pair_style meam
pair_coeff * * ./../../library.meam Ge Si ./../../GeSi.meam Ge Si
#-----------------------

# Setup neighbor style
neighbor 1.0 nsq
neigh_modify once no every 1 delay 0 check yes

# Setup minimization style
min_style	     cg
min_modify	     dmax ${dmax} line quadratic
min_modify	     dmax 0.01 line quadratic

# Setup output
thermo		1
thermo_style custom step temp pe press pxx pyy pzz pxy pxz pyz lx ly lz vol
thermo_modify norm no

# Compute initial state
fix 3 all box/relax  aniso 0.0
minimize ${etol} ${ftol} ${maxiter} ${maxeval}
minimize 0 ${ftol} ${maxiter} ${maxeval}
minimize 0 1e-10 ${maxiter} ${maxeval}
minimize 0 1e-10 100 ${maxeval}
minimize 0 1e-10 100 1000
Neighbor list info ...
  update: every = 1 steps, delay = 0 steps, check = yes
  max neighbors/atom: 2000, page size: 100000
  master list distance cutoff = 5.5
  ghost atom cutoff = 5.5
  2 neighbor lists, perpetual/occasional/extra = 2 0 0
  (1) pair meam, perpetual
      attributes: full, newton on
      pair build: full/nsq
      stencil: none
      bin: none
  (2) pair meam, perpetual, half/full from (1)
      attributes: half, newton on
      pair build: halffull/newton
      stencil: none
      bin: none
Per MPI rank memory allocation (min/avg/max) = 9.77 | 9.77 | 9.77 Mbytes
   Step          Temp          PotEng         Press           Pxx            Pyy            Pzz            Pxy            Pxz            Pyz             Lx             Ly             Lz           Volume    
         0   0             -812.16        -3.1367848e-10 -3.4418959e-10 -3.2018482e-10 -2.7666102e-10  1.8161184e-10  2.5265626e-10  3.0357546e-10  11.057412      16.586118      22.114824      4055.8488    
         1   0             -812.16        -6.7063828e-11 -1.2329722e-10 -2.2853025e-11 -5.5041238e-11  2.9454336e-10 -2.8005564e-11  1.1408327e-10  11.057412      16.586118      22.114824      4055.8488    
Loop time of 0.00048 on 4 procs for 1 steps with 192 atoms

0.0% CPU use with 4 MPI tasks x 1 OpenMP threads

Minimization stats:
  Stopping criterion = force tolerance
  Energy initial, next-to-last, final = 
     -812.160000183035  -812.160000183035  -812.160000183035
  Force two-norm initial, final = 1.4373417e-12 5.5182917e-13
  Force max component initial, final = 8.7130284e-13 3.1212222e-13
  Final line search alpha, max atom move = 1 3.1212222e-13
  Iterations, force evaluations = 1 2

MPI task timing breakdown:
Section |  min time  |  avg time  |  max time  |%varavg| %total
---------------------------------------------------------------
Pair    | 0.000343   | 0.0003445  | 0.000346   |   0.0 | 71.77
Neigh   | 0          | 0          | 0          |   0.0 |  0.00
Comm    | 4e-05      | 4.125e-05  | 4.3e-05    |   0.0 |  8.59
Output  | 0          | 0          | 0          |   0.0 |  0.00
Modify  | 0          | 0          | 0          |   0.0 |  0.00
Other   |            | 9.425e-05  |            |       | 19.64

Nlocal:             48 ave          48 max          48 min
Histogram: 4 0 0 0 0 0 0 0 0 0
Nghost:            323 ave         323 max         323 min
Histogram: 4 0 0 0 0 0 0 0 0 0
Neighs:            672 ave         672 max         672 min
Histogram: 4 0 0 0 0 0 0 0 0 0
FullNghs:         1344 ave        1344 max        1344 min
Histogram: 4 0 0 0 0 0 0 0 0 0

Total # of neighbors = 5376
Ave neighs/atom = 28
Neighbor list builds = 0
Dangerous builds = 0

variable tmp equal pxx
variable pxx0 equal ${tmp}
variable pxx0 equal -1.23297222357304e-10
variable tmp equal pyy
variable pyy0 equal ${tmp}
variable pyy0 equal -2.28530249895313e-11
variable tmp equal pzz
variable pzz0 equal ${tmp}
variable pzz0 equal -5.50412379058192e-11
variable tmp equal pyz
variable pyz0 equal ${tmp}
variable pyz0 equal 1.14083270637387e-10
variable tmp equal pxz
variable pxz0 equal ${tmp}
variable pxz0 equal -2.80055637802726e-11
variable tmp equal pxy
variable pxy0 equal ${tmp}
variable pxy0 equal 2.94543364520226e-10

variable tmp equal lx
variable lx0 equal ${tmp}
variable lx0 equal 11.0574122254364
variable tmp equal ly
variable ly0 equal ${tmp}
variable ly0 equal 16.5861183381545
variable tmp equal lz
variable lz0 equal ${tmp}
variable lz0 equal 22.1148244508727

# These formulas define the derivatives w.r.t. strain components
# Constants uses $, variables use v_
variable d1 equal -(v_pxx1-${pxx0})/(v_delta/v_len0)*${cfac}
variable d1 equal -(v_pxx1--1.23297222357304e-10)/(v_delta/v_len0)*${cfac}
variable d1 equal -(v_pxx1--1.23297222357304e-10)/(v_delta/v_len0)*0.0001
variable d2 equal -(v_pyy1-${pyy0})/(v_delta/v_len0)*${cfac}
variable d2 equal -(v_pyy1--2.28530249895313e-11)/(v_delta/v_len0)*${cfac}
variable d2 equal -(v_pyy1--2.28530249895313e-11)/(v_delta/v_len0)*0.0001
variable d3 equal -(v_pzz1-${pzz0})/(v_delta/v_len0)*${cfac}
variable d3 equal -(v_pzz1--5.50412379058192e-11)/(v_delta/v_len0)*${cfac}
variable d3 equal -(v_pzz1--5.50412379058192e-11)/(v_delta/v_len0)*0.0001
variable d4 equal -(v_pyz1-${pyz0})/(v_delta/v_len0)*${cfac}
variable d4 equal -(v_pyz1-1.14083270637387e-10)/(v_delta/v_len0)*${cfac}
variable d4 equal -(v_pyz1-1.14083270637387e-10)/(v_delta/v_len0)*0.0001
variable d5 equal -(v_pxz1-${pxz0})/(v_delta/v_len0)*${cfac}
variable d5 equal -(v_pxz1--2.80055637802726e-11)/(v_delta/v_len0)*${cfac}
variable d5 equal -(v_pxz1--2.80055637802726e-11)/(v_delta/v_len0)*0.0001
variable d6 equal -(v_pxy1-${pxy0})/(v_delta/v_len0)*${cfac}
variable d6 equal -(v_pxy1-2.94543364520226e-10)/(v_delta/v_len0)*${cfac}
variable d6 equal -(v_pxy1-2.94543364520226e-10)/(v_delta/v_len0)*0.0001

displace_atoms all random ${atomjiggle} ${atomjiggle} ${atomjiggle} 87287 units box
displace_atoms all random 1e-05 ${atomjiggle} ${atomjiggle} 87287 units box
displace_atoms all random 1e-05 1e-05 ${atomjiggle} 87287 units box
displace_atoms all random 1e-05 1e-05 1e-05 87287 units box
Displacing atoms ...

# Write restart
unfix 3
write_restart restart.equil
System init for write_restart ...

# uxx Perturbation

variable dir equal 1
include displace.mod
# NOTE: This script should not need to be
# modified. See in.elastic for more info.
#
# Find which reference length to use

if "${dir} == 1" then    "variable len0 equal ${lx0}"
variable len0 equal ${lx0}
variable len0 equal 11.0574122254364
if "${dir} == 2" then    "variable len0 equal ${ly0}"
if "${dir} == 3" then    "variable len0 equal ${lz0}"
if "${dir} == 4" then    "variable len0 equal ${lz0}"
if "${dir} == 5" then    "variable len0 equal ${lz0}"
if "${dir} == 6" then    "variable len0 equal ${ly0}"

# Reset box and simulation parameters

clear
  using 1 OpenMP thread(s) per MPI task
Loaded 1 plugins from C:\Program Files\LAMMPS 64-bit 23Jun2022\plugins
Loaded 0 plugins from C:\Program Files\LAMMPS 64-bit 23Jun2022-MPI\plugins
Loaded 1 plugins from C:\Program Files\LAMMPS 64-bit 22Dec2022-MSMPI\plugins
Loaded 1 plugins from C:\Program Files\LAMMPS 64-bit 28Mar2023-MPI\plugins
box tilt large

The 'box' command has been removed and will be ignored

read_restart restart.equil
Reading restart file ...
  restart file = 22 Dec 2022, LAMMPS = 22 Dec 2022
  restoring atom style atomic from restart
  triclinic box = (0.00014694364 0.00014694364 0.00014694364) to (11.057559 16.586265 22.114971) with tilt (0 0 0)
  1 by 2 by 2 MPI processor grid
  pair style meam stores no restart info
  192 atoms
  read_restart CPU = 0.000 seconds
include potential.mod
# NOTE: This script can be modified for different pair styles
# See in.elastic for more info.

# Choose potential
#-----------------------
#pair_style	sw
#pair_coeff * * Si.sw Si
#-----------------------
#pair_style morse	2.83994742	# D0[eV] a[1/A] r0[A] rc[A], 1NN for BCC
#pair_coeff 1 1	2.1173	1.0202	2.4595	2.6497	#	Fe-Fe
#-----------------------
#pair_style smatb # R0(A)   p       q     A(eV)   xi(eV)  Rcs(A)   Rc(A), 4NN: Rcs=4NN, Rc=(4NN+5NN)/2
#pair_coeff 1 1	2.4802	7.0149	2.3779	0.3144	3.0551	4.033	4.176	#	Co	Co
#-----------------------
#pair_style eam/alloy
#pair_coeff * * AlCrFeCoNi_Zhou04.eam.alloy Fe
#-----------------------
pair_style meam
pair_coeff * * ./../../library.meam Ge Si ./../../GeSi.meam Ge Si
#-----------------------

# Setup neighbor style
neighbor 1.0 nsq
neigh_modify once no every 1 delay 0 check yes

# Setup minimization style
min_style	     cg
min_modify	     dmax ${dmax} line quadratic
min_modify	     dmax 0.01 line quadratic

# Setup output
thermo		1
thermo_style custom step temp pe press pxx pyy pzz pxy pxz pyz lx ly lz vol
thermo_modify norm no

# Negative deformation

variable delta equal -${up}*${len0}
variable delta equal -1e-06*${len0}
variable delta equal -1e-06*11.0574122254364
variable deltaxy equal -${up}*xy
variable deltaxy equal -1e-06*xy
variable deltaxz equal -${up}*xz
variable deltaxz equal -1e-06*xz
variable deltayz equal -${up}*yz
variable deltayz equal -1e-06*yz
if "${dir} == 1" then    "change_box all x delta 0 ${delta} xy delta ${deltaxy} xz delta ${deltaxz} remap units box"
change_box all x delta 0 ${delta} xy delta ${deltaxy} xz delta ${deltaxz} remap units box
change_box all x delta 0 -1.10574122254364e-05 xy delta ${deltaxy} xz delta ${deltaxz} remap units box
change_box all x delta 0 -1.10574122254364e-05 xy delta -0 xz delta ${deltaxz} remap units box
change_box all x delta 0 -1.10574122254364e-05 xy delta -0 xz delta -0 remap units box
Changing box ...
  triclinic box = (0.00014694364 0.00014694364 0.00014694364) to (11.057548 16.586265 22.114971) with tilt (0 0 0)
  triclinic box = (0.00014694364 0.00014694364 0.00014694364) to (11.057548 16.586265 22.114971) with tilt (0 0 0)
  triclinic box = (0.00014694364 0.00014694364 0.00014694364) to (11.057548 16.586265 22.114971) with tilt (0 0 0)
if "${dir} == 2" then    "change_box all y delta 0 ${delta} yz delta ${deltayz} remap units box"
if "${dir} == 3" then    "change_box all z delta 0 ${delta} remap units box"
if "${dir} == 4" then    "change_box all yz delta ${delta} remap units box"
if "${dir} == 5" then    "change_box all xz delta ${delta} remap units box"
if "${dir} == 6" then    "change_box all xy delta ${delta} remap units box"

# Relax atoms positions

minimize ${etol} ${ftol} ${maxiter} ${maxeval}
minimize 0 ${ftol} ${maxiter} ${maxeval}
minimize 0 1e-10 ${maxiter} ${maxeval}
minimize 0 1e-10 100 ${maxeval}
minimize 0 1e-10 100 1000
Neighbor list info ...
  update: every = 1 steps, delay = 0 steps, check = yes
  max neighbors/atom: 2000, page size: 100000
  master list distance cutoff = 5.5
  ghost atom cutoff = 5.5
  2 neighbor lists, perpetual/occasional/extra = 2 0 0
  (1) pair meam, perpetual
      attributes: full, newton on
      pair build: full/nsq
      stencil: none
      bin: none
  (2) pair meam, perpetual, half/full from (1)
      attributes: half, newton on
      pair build: halffull/newton
      stencil: none
      bin: none
Per MPI rank memory allocation (min/avg/max) = 9.76 | 9.762 | 9.763 Mbytes
   Step          Temp          PotEng         Press           Pxx            Pyy            Pzz            Pxy            Pxz            Pyz             Lx             Ly             Lz           Volume    
         1   0             -812.16         0.88032317     1.3116658      0.66465041     0.66465332    -0.23689696     0.14166141    -0.96575096     11.057401      16.586118      22.114824      4055.8447    
         2   0             -812.16         0.88017475     1.3115186      0.66450269     0.66450299     0.029316905   -0.017532371    0.11949644     11.057401      16.586118      22.114824      4055.8447    
         3   0             -812.16         0.8801694      1.3115135      0.66449746     0.66449729    -0.015353802    0.0091826232  -0.062562836    11.057401      16.586118      22.114824      4055.8447    
         4   0             -812.16         0.88016892     1.3115132      0.66449676     0.66449682     0.015995844   -0.0095671456   0.065166948    11.057401      16.586118      22.114824      4055.8447    
         5   0             -812.16         0.88016884     1.3115131      0.66449666     0.66449673    -0.014354446    0.0085861745  -0.058476438    11.057401      16.586118      22.114824      4055.8447    
         6   0             -812.16         0.8801687      1.311513       0.66449652     0.66449657     0.0093788197  -0.0056100619   0.038205259    11.057401      16.586118      22.114824      4055.8447    
         7   0             -812.16         0.88016866     1.311513       0.66449649     0.6644965     -0.0060430711   0.0036147532  -0.02461557     11.057401      16.586118      22.114824      4055.8447    
         8   0             -812.16         0.88016866     1.311513       0.66449649     0.6644965      0.0048242552  -0.0028856528   0.019650082    11.057401      16.586118      22.114824      4055.8447    
         9   0             -812.16         0.88016865     1.311513       0.66449649     0.66449649    -0.0028671319   0.0017149675  -0.011677773    11.057401      16.586118      22.114824      4055.8447    
        10   0             -812.16         0.88016865     1.311513       0.66449649     0.66449649     0.0024843252  -0.0014859695   0.010118175    11.057401      16.586118      22.114824      4055.8447    
        11   0             -812.16         0.88016865     1.311513       0.66449649     0.66449648    -0.0023616648   0.0014125915  -0.0096183232   11.057401      16.586118      22.114824      4055.8447    
        12   0             -812.16         0.88016865     1.311513       0.66449649     0.66449649     0.0021130271  -0.0012638654   0.0086055544   11.057401      16.586118      22.114824      4055.8447    
        13   0             -812.16         0.88016865     1.311513       0.66449649     0.66449649    -0.0013580948   0.00081231164 -0.0055308773   11.057401      16.586118      22.114824      4055.8447    
        14   0             -812.16         0.88016865     1.311513       0.66449649     0.66449649     0.0010218762  -0.00061120605  0.0041615109   11.057401      16.586118      22.114824      4055.8447    
        15   0             -812.16         0.88016865     1.311513       0.66449649     0.66449649    -0.00076918194  0.00046005835 -0.0031323138   11.057401      16.586118      22.114824      4055.8447    
        16   0             -812.16         0.88016865     1.311513       0.66449649     0.66449649     0.00070548567 -0.00042195688  0.0028728361   11.057401      16.586118      22.114824      4055.8447    
        17   0             -812.16         0.88016865     1.311513       0.66449649     0.66449649    -0.00048492144  0.00029003287 -0.0019746089   11.057401      16.586118      22.114824      4055.8447    
        18   0             -812.16         0.88016865     1.311513       0.66449649     0.66449649     0.00022547375 -0.00013485347  0.00091806257  11.057401      16.586118      22.114824      4055.8447    
        19   0             -812.16         0.88016865     1.311513       0.66449649     0.66449649    -0.00016722066  0.0001000103  -0.00068080962  11.057401      16.586118      22.114824      4055.8447    
        20   0             -812.16         0.88016865     1.311513       0.66449649     0.66449649     0.00012255199 -7.3292995e-05  0.00049889209  11.057401      16.586118      22.114824      4055.8447    
        21   0             -812.16         0.88016865     1.311513       0.66449649     0.66449649    -9.1398493e-05  5.4659431e-05 -0.00037201726  11.057401      16.586118      22.114824      4055.8447    
        22   0             -812.16         0.88016865     1.311513       0.66449649     0.66449649     4.525726e-05  -2.706397e-05   0.00018417191  11.057401      16.586118      22.114824      4055.8447    
        23   0             -812.16         0.88016865     1.311513       0.66449649     0.66449649    -3.770983e-05   2.2548046e-05 -0.00015339171  11.057401      16.586118      22.114824      4055.8447    
        24   0             -812.16         0.88016865     1.311513       0.66449649     0.66449649     2.5635141e-05 -1.532559e-05   0.0001042084   11.057401      16.586118      22.114824      4055.8447    
        25   0             -812.16         0.88016865     1.311513       0.66449649     0.66449649    -1.8787782e-05  1.1229891e-05 -7.6319064e-05  11.057401      16.586118      22.114824      4055.8447    
        26   0             -812.16         0.88016865     1.311513       0.66449649     0.66449649     1.4531532e-05 -8.6836435e-06  5.8971196e-05  11.057401      16.586118      22.114824      4055.8447    
        27   0             -812.16         0.88016865     1.311513       0.66449649     0.66449649    -7.4062097e-06  4.4240378e-06 -3.0008377e-05  11.057401      16.586118      22.114824      4055.8447    
        28   0             -812.16         0.88016865     1.311513       0.66449649     0.66449649     4.4633603e-06 -2.6646651e-06  1.8044213e-05  11.057401      16.586118      22.114824      4055.8447    
        29   0             -812.16         0.88016865     1.311513       0.66449649     0.66449649    -2.7579754e-06  1.6456902e-06 -1.1126587e-05  11.057401      16.586118      22.114824      4055.8447    
        30   0             -812.16         0.88016865     1.311513       0.66449649     0.66449649     1.3570346e-06 -8.08903e-07    5.4489909e-06  11.057401      16.586118      22.114824      4055.8447    
        31   0             -812.16         0.88016865     1.311513       0.66449649     0.66449649    -6.8489364e-07  4.0751466e-07 -2.7255435e-06  11.057401      16.586118      22.114824      4055.8447    
        32   0             -812.16         0.88016865     1.311513       0.66449649     0.66449649     5.6793404e-07 -3.3740867e-07  2.244254e-06   11.057401      16.586118      22.114824      4055.8447    
        33   0             -812.16         0.88016865     1.311513       0.66449649     0.66449649    -2.4112784e-07  1.4292979e-07 -9.4152211e-07  11.057401      16.586118      22.114824      4055.8447    
        34   0             -812.16         0.88016865     1.311513       0.66449649     0.66449649     9.9645675e-08 -5.8806288e-08  3.7902301e-07  11.057401      16.586118      22.114824      4055.8447    
        35   0             -812.16         0.88016865     1.311513       0.66449649     0.66449649    -4.3254169e-08  2.5153482e-08 -1.5247408e-07  11.057401      16.586118      22.114824      4055.8447    
        36   0             -812.16         0.88016865     1.311513       0.66449649     0.66449649     3.9134381e-08 -2.2505017e-08  1.3018484e-07  11.057401      16.586118      22.114824      4055.8447    
        37   0             -812.16         0.88016865     1.311513       0.66449649     0.66449649    -3.3457253e-08  1.8987166e-08 -1.0482784e-07  11.057401      16.586118      22.114824      4055.8447    
        38   0             -812.16         0.88016865     1.311513       0.66449649     0.66449649     1.0123163e-08 -5.4829681e-09  2.7453906e-08  11.057401      16.586118      22.114824      4055.8447    
        39   0             -812.16         0.88016865     1.311513       0.66449649     0.66449649    -7.6295764e-09  3.6384804e-09 -1.0752026e-08  11.057401      16.586118      22.114824      4055.8447    
        40   0             -812.16         0.88016865     1.311513       0.66449649     0.66449649     7.2145848e-09 -3.0315719e-09  2.6761103e-09  11.057401      16.586118      22.114824      4055.8447    
        41   0             -812.16         0.88016865     1.311513       0.66449649     0.66449649    -6.8580898e-09  2.7275721e-09  4.7281619e-12  11.057401      16.586118      22.114824      4055.8447    
        42   0             -812.16         0.88016865     1.311513       0.66449649     0.66449649     4.3634729e-09 -1.5953472e-09 -2.0861136e-09  11.057401      16.586118      22.114824      4055.8447    
        43   0             -812.16         0.88016865     1.311513       0.66449649     0.66449649    -2.3477997e-09  6.9025846e-10  3.3048415e-09  11.057401      16.586118      22.114824      4055.8447    
        44   0             -812.16         0.88016865     1.311513       0.66449649     0.66449649     1.9732405e-09 -4.5142288e-10 -4.7422194e-09  11.057401      16.586118      22.114824      4055.8447    
        45   0             -812.16         0.88016865     1.311513       0.66449649     0.66449649    -2.853476e-09   6.8868224e-10  7.5265329e-09  11.057401      16.586118      22.114824      4055.8447    
        46   0             -812.16         0.88016865     1.311513       0.66449649     0.66449649     1.1554417e-09 -4.1577965e-10 -3.5437983e-09  11.057401      16.586118      22.114824      4055.8447    
        47   0             -812.16         0.88016865     1.311513       0.66449649     0.66449649    -5.7496275e-10  3.763172e-10   2.3924777e-09  11.057401      16.586118      22.114824      4055.8447    
        48   0             -812.16         0.88016865     1.311513       0.66449649     0.66449649     6.4382491e-10 -6.3830876e-10 -3.8024563e-09  11.057401      16.586118      22.114824      4055.8447    
        49   0             -812.16         0.88016865     1.311513       0.66449649     0.66449649    -3.1806323e-10  4.9785646e-10  3.130019e-09   11.057401      16.586118      22.114824      4055.8447    
Loop time of 0.0104443 on 4 procs for 48 steps with 192 atoms

0.0% CPU use with 4 MPI tasks x 1 OpenMP threads

Minimization stats:
  Stopping criterion = force tolerance
  Energy initial, next-to-last, final = 
     -812.160000025685  -812.160000181375  -812.160000181375
  Force two-norm initial, final = 0.002757793 6.5050744e-11
  Force max component initial, final = 0.00032353085 8.5433882e-12
  Final line search alpha, max atom move = 1 8.5433882e-12
  Iterations, force evaluations = 48 96

MPI task timing breakdown:
Section |  min time  |  avg time  |  max time  |%varavg| %total
---------------------------------------------------------------
Pair    | 0.008586   | 0.008765   | 0.00889    |   0.1 | 83.92
Neigh   | 0          | 0          | 0          |   0.0 |  0.00
Comm    | 0.000582   | 0.00071675 | 0.000888   |   0.0 |  6.86
Output  | 0.000458   | 0.00048525 | 0.000558   |   0.0 |  4.65
Modify  | 0          | 0          | 0          |   0.0 |  0.00
Other   |            | 0.0004773  |            |       |  4.57

Nlocal:             48 ave          52 max          42 min
Histogram: 1 0 0 0 0 0 0 2 0 1
Nghost:            323 ave         329 max         319 min
Histogram: 1 0 0 2 0 0 0 0 0 1
Neighs:            672 ave         719 max         588 min
Histogram: 1 0 0 0 0 0 0 1 1 1
FullNghs:         1344 ave        1456 max        1176 min
Histogram: 1 0 0 0 0 0 0 2 0 1

Total # of neighbors = 5376
Ave neighs/atom = 28
Neighbor list builds = 0
Dangerous builds = 0

# Obtain new stress tensor

variable tmp equal pxx
variable pxx1 equal ${tmp}
variable pxx1 equal 1.31151298481722
variable tmp equal pyy
variable pyy1 equal ${tmp}
variable pyy1 equal 0.664496486456268
variable tmp equal pzz
variable pzz1 equal ${tmp}
variable pzz1 equal 0.664496486436992
variable tmp equal pxy
variable pxy1 equal ${tmp}
variable pxy1 equal -3.18063228302292e-10
variable tmp equal pxz
variable pxz1 equal ${tmp}
variable pxz1 equal 4.97856464644067e-10
variable tmp equal pyz
variable pyz1 equal ${tmp}
variable pyz1 equal 3.13001902708935e-09

# Compute elastic constant from pressure tensor

variable C1neg equal ${d1}
variable C1neg equal 131.151298494052
variable C2neg equal ${d2}
variable C2neg equal 66.4496486479121
variable C3neg equal ${d3}
variable C3neg equal 66.4496486492033
variable C4neg equal ${d4}
variable C4neg equal 3.01593575645196e-07
variable C5neg equal ${d5}
variable C5neg equal 5.2586202842434e-08
variable C6neg equal ${d6}
variable C6neg equal -6.12606592822518e-08

# Reset box and simulation parameters

clear
  using 1 OpenMP thread(s) per MPI task
Loaded 1 plugins from C:\Program Files\LAMMPS 64-bit 23Jun2022\plugins
Loaded 0 plugins from C:\Program Files\LAMMPS 64-bit 23Jun2022-MPI\plugins
Loaded 1 plugins from C:\Program Files\LAMMPS 64-bit 22Dec2022-MSMPI\plugins
Loaded 1 plugins from C:\Program Files\LAMMPS 64-bit 28Mar2023-MPI\plugins
box tilt large

The 'box' command has been removed and will be ignored

read_restart restart.equil
Reading restart file ...
  restart file = 22 Dec 2022, LAMMPS = 22 Dec 2022
  restoring atom style atomic from restart
  triclinic box = (0.00014694364 0.00014694364 0.00014694364) to (11.057559 16.586265 22.114971) with tilt (0 0 0)
  1 by 2 by 2 MPI processor grid
  pair style meam stores no restart info
  192 atoms
  read_restart CPU = 0.000 seconds
include potential.mod
# NOTE: This script can be modified for different pair styles
# See in.elastic for more info.

# Choose potential
#-----------------------
#pair_style	sw
#pair_coeff * * Si.sw Si
#-----------------------
#pair_style morse	2.83994742	# D0[eV] a[1/A] r0[A] rc[A], 1NN for BCC
#pair_coeff 1 1	2.1173	1.0202	2.4595	2.6497	#	Fe-Fe
#-----------------------
#pair_style smatb # R0(A)   p       q     A(eV)   xi(eV)  Rcs(A)   Rc(A), 4NN: Rcs=4NN, Rc=(4NN+5NN)/2
#pair_coeff 1 1	2.4802	7.0149	2.3779	0.3144	3.0551	4.033	4.176	#	Co	Co
#-----------------------
#pair_style eam/alloy
#pair_coeff * * AlCrFeCoNi_Zhou04.eam.alloy Fe
#-----------------------
pair_style meam
pair_coeff * * ./../../library.meam Ge Si ./../../GeSi.meam Ge Si
#-----------------------

# Setup neighbor style
neighbor 1.0 nsq
neigh_modify once no every 1 delay 0 check yes

# Setup minimization style
min_style	     cg
min_modify	     dmax ${dmax} line quadratic
min_modify	     dmax 0.01 line quadratic

# Setup output
thermo		1
thermo_style custom step temp pe press pxx pyy pzz pxy pxz pyz lx ly lz vol
thermo_modify norm no

# Positive deformation

variable delta equal ${up}*${len0}
variable delta equal 1e-06*${len0}
variable delta equal 1e-06*11.0574122254364
variable deltaxy equal ${up}*xy
variable deltaxy equal 1e-06*xy
variable deltaxz equal ${up}*xz
variable deltaxz equal 1e-06*xz
variable deltayz equal ${up}*yz
variable deltayz equal 1e-06*yz
if "${dir} == 1" then    "change_box all x delta 0 ${delta} xy delta ${deltaxy} xz delta ${deltaxz} remap units box"
change_box all x delta 0 ${delta} xy delta ${deltaxy} xz delta ${deltaxz} remap units box
change_box all x delta 0 1.10574122254364e-05 xy delta ${deltaxy} xz delta ${deltaxz} remap units box
change_box all x delta 0 1.10574122254364e-05 xy delta 0 xz delta ${deltaxz} remap units box
change_box all x delta 0 1.10574122254364e-05 xy delta 0 xz delta 0 remap units box
Changing box ...
  triclinic box = (0.00014694364 0.00014694364 0.00014694364) to (11.05757 16.586265 22.114971) with tilt (0 0 0)
  triclinic box = (0.00014694364 0.00014694364 0.00014694364) to (11.05757 16.586265 22.114971) with tilt (0 0 0)
  triclinic box = (0.00014694364 0.00014694364 0.00014694364) to (11.05757 16.586265 22.114971) with tilt (0 0 0)
if "${dir} == 2" then    "change_box all y delta 0 ${delta} yz delta ${deltayz} remap units box"
if "${dir} == 3" then    "change_box all z delta 0 ${delta} remap units box"
if "${dir} == 4" then    "change_box all yz delta ${delta} remap units box"
if "${dir} == 5" then    "change_box all xz delta ${delta} remap units box"
if "${dir} == 6" then    "change_box all xy delta ${delta} remap units box"

# Relax atoms positions

minimize ${etol} ${ftol} ${maxiter} ${maxeval}
minimize 0 ${ftol} ${maxiter} ${maxeval}
minimize 0 1e-10 ${maxiter} ${maxeval}
minimize 0 1e-10 100 ${maxeval}
minimize 0 1e-10 100 1000
Neighbor list info ...
  update: every = 1 steps, delay = 0 steps, check = yes
  max neighbors/atom: 2000, page size: 100000
  master list distance cutoff = 5.5
  ghost atom cutoff = 5.5
  2 neighbor lists, perpetual/occasional/extra = 2 0 0
  (1) pair meam, perpetual
      attributes: full, newton on
      pair build: full/nsq
      stencil: none
      bin: none
  (2) pair meam, perpetual, half/full from (1)
      attributes: half, newton on
      pair build: halffull/newton
      stencil: none
      bin: none
Per MPI rank memory allocation (min/avg/max) = 9.76 | 9.762 | 9.763 Mbytes
   Step          Temp          PotEng         Press           Pxx            Pyy            Pzz            Pxy            Pxz            Pyz             Lx             Ly             Lz           Volume    
         1   0             -812.16        -0.88000999    -1.3113565     -0.66433818    -0.66433526    -0.23689446     0.14165991    -0.96574342     11.057423      16.586118      22.114824      4055.8529    
         2   0             -812.16        -0.8801584     -1.3115037     -0.66448589    -0.66448559     0.029316747   -0.017532276    0.1194969      11.057423      16.586118      22.114824      4055.8529    
         3   0             -812.16        -0.88016375    -1.3115088     -0.66449112    -0.6644913     -0.015353837    0.0091826439  -0.062564231    11.057423      16.586118      22.114824      4055.8529    
         4   0             -812.16        -0.88016423    -1.3115091     -0.66449182    -0.66449177     0.015995949   -0.0095672085   0.065169275    11.057423      16.586118      22.114824      4055.8529    
         5   0             -812.16        -0.88016432    -1.3115092     -0.66449192    -0.66449185    -0.01435451     0.0085862126  -0.058478729    11.057423      16.586118      22.114824      4055.8529    
         6   0             -812.16        -0.88016445    -1.3115093     -0.66449206    -0.66449201     0.0093788305  -0.0056100681   0.038206883    11.057423      16.586118      22.114824      4055.8529    
         7   0             -812.16        -0.8801645     -1.3115093     -0.6644921     -0.66449208    -0.0060431069   0.0036147743  -0.024616945    11.057423      16.586118      22.114824      4055.8529    
         8   0             -812.16        -0.8801645     -1.3115093     -0.66449209    -0.66449209     0.0048242989  -0.0028856785   0.01965143     11.057423      16.586118      22.114824      4055.8529    
         9   0             -812.16        -0.8801645     -1.3115093     -0.66449209    -0.6644921     -0.0028671419   0.0017149733  -0.011678677    11.057423      16.586118      22.114824      4055.8529    
        10   0             -812.16        -0.8801645     -1.3115093     -0.6644921     -0.6644921      0.002484296   -0.0014859518   0.010118953    11.057423      16.586118      22.114824      4055.8529    
        11   0             -812.16        -0.8801645     -1.3115093     -0.6644921     -0.6644921     -0.0023615778   0.0014125391  -0.0096189353   11.057423      16.586118      22.114824      4055.8529    
        12   0             -812.16        -0.8801645     -1.3115093     -0.6644921     -0.6644921      0.0021128937  -0.0012637853   0.0086059525   11.057423      16.586118      22.114824      4055.8529    
        13   0             -812.16        -0.8801645     -1.3115093     -0.6644921     -0.6644921     -0.0013579604   0.00081223116 -0.0055310132   11.057423      16.586118      22.114824      4055.8529    
        14   0             -812.16        -0.8801645     -1.3115093     -0.6644921     -0.6644921      0.0010217399  -0.00061112472  0.0041615476   11.057423      16.586118      22.114824      4055.8529    
        15   0             -812.16        -0.8801645     -1.3115093     -0.6644921     -0.6644921     -0.00076903876  0.00045997308 -0.0031322666   11.057423      16.586118      22.114824      4055.8529    
        16   0             -812.16        -0.8801645     -1.3115093     -0.6644921     -0.6644921      0.00070530879 -0.00042185152  0.0028726812   11.057423      16.586118      22.114824      4055.8529    
        17   0             -812.16        -0.8801645     -1.3115093     -0.6644921     -0.6644921     -0.00048477019  0.00028994292 -0.001974433    11.057423      16.586118      22.114824      4055.8529    
        18   0             -812.16        -0.8801645     -1.3115093     -0.6644921     -0.6644921      0.00022538172 -0.0001347991   0.00091795792  11.057423      16.586118      22.114824      4055.8529    
        19   0             -812.16        -0.8801645     -1.3115093     -0.6644921     -0.6644921     -0.00016713503  9.9959956e-05 -0.00068072074  11.057423      16.586118      22.114824      4055.8529    
        20   0             -812.16        -0.8801645     -1.3115093     -0.6644921     -0.6644921      0.0001224742  -7.3247277e-05  0.00049882048  11.057423      16.586118      22.114824      4055.8529    
        21   0             -812.16        -0.8801645     -1.3115093     -0.6644921     -0.6644921     -9.1326803e-05  5.4617379e-05 -0.00037195999  11.057423      16.586118      22.114824      4055.8529    
        22   0             -812.16        -0.8801645     -1.3115093     -0.6644921     -0.6644921      4.5212855e-05 -2.7037999e-05  0.00018414456  11.057423      16.586118      22.114824      4055.8529    
        23   0             -812.16        -0.8801645     -1.3115093     -0.6644921     -0.6644921     -3.7658418e-05  2.2517993e-05 -0.00015337517  11.057423      16.586118      22.114824      4055.8529    
        24   0             -812.16        -0.8801645     -1.3115093     -0.6644921     -0.6644921      2.5585504e-05 -1.5296475e-05  0.00010420274  11.057423      16.586118      22.114824      4055.8529    
        25   0             -812.16        -0.8801645     -1.3115093     -0.6644921     -0.6644921     -1.8739323e-05  1.1201501e-05 -7.631899e-05   11.057423      16.586118      22.114824      4055.8529    
        26   0             -812.16        -0.8801645     -1.3115093     -0.6644921     -0.6644921      1.4480782e-05 -8.6538838e-06  5.8974028e-05  11.057423      16.586118      22.114824      4055.8529    
        27   0             -812.16        -0.8801645     -1.3115093     -0.6644921     -0.6644921     -7.369317e-06   4.4023171e-06 -3.0011205e-05  11.057423      16.586118      22.114824      4055.8529    
        28   0             -812.16        -0.8801645     -1.3115093     -0.6644921     -0.6644921      4.4320341e-06 -2.6460817e-06  1.8048345e-05  11.057423      16.586118      22.114824      4055.8529    
        29   0             -812.16        -0.8801645     -1.3115093     -0.6644921     -0.6644921     -2.733646e-06   1.6310374e-06 -1.1131027e-05  11.057423      16.586118      22.114824      4055.8529    
        30   0             -812.16        -0.8801645     -1.3115093     -0.6644921     -0.6644921      1.3396624e-06 -7.9802853e-07  5.4530125e-06  11.057423      16.586118      22.114824      4055.8529    
        31   0             -812.16        -0.8801645     -1.3115093     -0.6644921     -0.6644921     -6.710618e-07   3.9846135e-07 -2.7294024e-06  11.057423      16.586118      22.114824      4055.8529    
        32   0             -812.16        -0.8801645     -1.3115093     -0.6644921     -0.6644921      5.5323924e-07 -3.2762569e-07  2.2486434e-06  11.057423      16.586118      22.114824      4055.8529    
        33   0             -812.16        -0.8801645     -1.3115093     -0.6644921     -0.6644921     -2.3255263e-07  1.3710779e-07 -9.4429242e-07  11.057423      16.586118      22.114824      4055.8529    
        34   0             -812.16        -0.8801645     -1.3115093     -0.6644921     -0.6644921      9.396394e-08  -5.4901573e-08  3.8101616e-07  11.057423      16.586118      22.114824      4055.8529    
        35   0             -812.16        -0.8801645     -1.3115093     -0.6644921     -0.6644921     -3.8257116e-08  2.1709161e-08 -1.5440094e-07  11.057423      16.586118      22.114824      4055.8529    
        36   0             -812.16        -0.8801645     -1.3115093     -0.6644921     -0.6644921      3.2956972e-08 -1.8287512e-08  1.3264767e-07  11.057423      16.586118      22.114824      4055.8529    
        37   0             -812.16        -0.8801645     -1.3115093     -0.6644921     -0.6644921     -2.6804295e-08  1.4442506e-08 -1.0747724e-07  11.057423      16.586118      22.114824      4055.8529    
        38   0             -812.16        -0.8801645     -1.3115093     -0.6644921     -0.6644921      7.1825178e-09 -3.4816614e-09  2.8581044e-08  11.057423      16.586118      22.114824      4055.8529    
        39   0             -812.16        -0.8801645     -1.3115093     -0.6644921     -0.6644921     -3.1873605e-09  4.5736358e-10 -1.2400451e-08  11.057423      16.586118      22.114824      4055.8529    
        40   0             -812.16        -0.8801645     -1.3115093     -0.6644921     -0.6644921      1.31317e-09    1.2290321e-09  4.8309547e-09  11.057423      16.586118      22.114824      4055.8529    
        41   0             -812.16        -0.8801645     -1.3115093     -0.6644921     -0.6644921     -7.3499454e-10 -1.6711201e-09 -2.149637e-09   11.057423      16.586118      22.114824      4055.8529    
        42   0             -812.16        -0.8801645     -1.3115093     -0.6644921     -0.6644921      1.2547944e-10  1.4057339e-09 -6.583121e-10   11.057423      16.586118      22.114824      4055.8529    
        43   0             -812.16        -0.8801645     -1.3115093     -0.6644921     -0.6644921      1.8530951e-10 -1.0810633e-09  2.5274083e-09  11.057423      16.586118      22.114824      4055.8529    
        44   0             -812.16        -0.8801645     -1.3115093     -0.6644921     -0.6644921     -2.7175095e-10  1.2192723e-09 -4.1516088e-09  11.057423      16.586118      22.114824      4055.8529    
        45   0             -812.16        -0.8801645     -1.3115093     -0.6644921     -0.6644921      4.3184339e-10 -1.8267871e-09  6.6076092e-09  11.057423      16.586118      22.114824      4055.8529    
        46   0             -812.16        -0.8801645     -1.3115093     -0.6644921     -0.6644921     -4.1717379e-10  6.6661716e-10 -3.0626055e-09  11.057423      16.586118      22.114824      4055.8529    
        47   0             -812.16        -0.8801645     -1.3115093     -0.6644921     -0.6644921      4.2335685e-10 -2.8739041e-10  2.0487079e-09  11.057423      16.586118      22.114824      4055.8529    
        48   0             -812.16        -0.8801645     -1.3115093     -0.6644921     -0.6644921     -7.506946e-10   3.8674361e-10 -3.1985715e-09  11.057423      16.586118      22.114824      4055.8529    
        49   0             -812.16        -0.8801645     -1.3115093     -0.6644921     -0.6644921      7.5772631e-10 -3.4873563e-10  2.5418965e-09  11.057423      16.586118      22.114824      4055.8529    
Loop time of 0.0123285 on 4 procs for 48 steps with 192 atoms

0.0% CPU use with 4 MPI tasks x 1 OpenMP threads

Minimization stats:
  Stopping criterion = force tolerance
  Energy initial, next-to-last, final = 
     -812.160000025686  -812.160000181375  -812.160000181375
  Force two-norm initial, final = 0.0027577758 6.504172e-11
  Force max component initial, final = 0.00032352845 8.6779472e-12
  Final line search alpha, max atom move = 1 8.6779472e-12
  Iterations, force evaluations = 48 96

MPI task timing breakdown:
Section |  min time  |  avg time  |  max time  |%varavg| %total
---------------------------------------------------------------
Pair    | 0.009963   | 0.010267   | 0.010596   |   0.3 | 83.28
Neigh   | 0          | 0          | 0          |   0.0 |  0.00
Comm    | 0.000671   | 0.000987   | 0.001279   |   0.0 |  8.01
Output  | 0.000471   | 0.000521   | 0.000564   |   0.0 |  4.23
Modify  | 0          | 0          | 0          |   0.0 |  0.00
Other   |            | 0.0005535  |            |       |  4.49

Nlocal:             48 ave          52 max          42 min
Histogram: 1 0 0 0 0 0 0 2 0 1
Nghost:            323 ave         329 max         319 min
Histogram: 1 0 0 2 0 0 0 0 0 1
Neighs:            672 ave         719 max         588 min
Histogram: 1 0 0 0 0 0 0 1 1 1
FullNghs:         1344 ave        1456 max        1176 min
Histogram: 1 0 0 0 0 0 0 2 0 1

Total # of neighbors = 5376
Ave neighs/atom = 28
Neighbor list builds = 0
Dangerous builds = 0

# Obtain new stress tensor

variable tmp equal pe
variable e1 equal ${tmp}
variable e1 equal -812.160000181375
variable tmp equal press
variable p1 equal ${tmp}
variable p1 equal -0.880164503606557
variable tmp equal pxx
variable pxx1 equal ${tmp}
variable pxx1 equal -1.31150931821145
variable tmp equal pyy
variable pyy1 equal ${tmp}
variable pyy1 equal -0.664492096287227
variable tmp equal pzz
variable pzz1 equal ${tmp}
variable pzz1 equal -0.664492096320992
variable tmp equal pxy
variable pxy1 equal ${tmp}
variable pxy1 equal 7.57726311384458e-10
variable tmp equal pxz
variable pxz1 equal ${tmp}
variable pxz1 equal -3.487356293999e-10
variable tmp equal pyz
variable pyz1 equal ${tmp}
variable pyz1 equal 2.54189653510426e-09

# Compute elastic constant from pressure tensor

variable C1pos equal ${d1}
variable C1pos equal 131.150931808815
variable C2pos equal ${d2}
variable C2pos equal 66.4492096264374
variable C3pos equal ${d3}
variable C3pos equal 66.4492096265951
variable C4pos equal ${d4}
variable C4pos equal -2.42781326446687e-07
variable C5pos equal ${d5}
variable C5pos equal 3.20730065619627e-08
variable C6pos equal ${d6}
variable C6pos equal -4.63182946864232e-08

# Combine positive and negative

variable C1${dir} equal 0.5*(${C1neg}+${C1pos})
variable C11 equal 0.5*(${C1neg}+${C1pos})
variable C11 equal 0.5*(131.151298494052+${C1pos})
variable C11 equal 0.5*(131.151298494052+131.150931808815)
variable C2${dir} equal 0.5*(${C2neg}+${C2pos})
variable C21 equal 0.5*(${C2neg}+${C2pos})
variable C21 equal 0.5*(66.4496486479121+${C2pos})
variable C21 equal 0.5*(66.4496486479121+66.4492096264374)
variable C3${dir} equal 0.5*(${C3neg}+${C3pos})
variable C31 equal 0.5*(${C3neg}+${C3pos})
variable C31 equal 0.5*(66.4496486492033+${C3pos})
variable C31 equal 0.5*(66.4496486492033+66.4492096265951)
variable C4${dir} equal 0.5*(${C4neg}+${C4pos})
variable C41 equal 0.5*(${C4neg}+${C4pos})
variable C41 equal 0.5*(3.01593575645196e-07+${C4pos})
variable C41 equal 0.5*(3.01593575645196e-07+-2.42781326446687e-07)
variable C5${dir} equal 0.5*(${C5neg}+${C5pos})
variable C51 equal 0.5*(${C5neg}+${C5pos})
variable C51 equal 0.5*(5.2586202842434e-08+${C5pos})
variable C51 equal 0.5*(5.2586202842434e-08+3.20730065619627e-08)
variable C6${dir} equal 0.5*(${C6neg}+${C6pos})
variable C61 equal 0.5*(${C6neg}+${C6pos})
variable C61 equal 0.5*(-6.12606592822518e-08+${C6pos})
variable C61 equal 0.5*(-6.12606592822518e-08+-4.63182946864232e-08)

# Delete dir to make sure it is not reused

variable dir delete

# uyy Perturbation

variable dir equal 2
include displace.mod
# NOTE: This script should not need to be
# modified. See in.elastic for more info.
#
# Find which reference length to use

if "${dir} == 1" then    "variable len0 equal ${lx0}"
if "${dir} == 2" then    "variable len0 equal ${ly0}"
variable len0 equal ${ly0}
variable len0 equal 16.5861183381545
if "${dir} == 3" then    "variable len0 equal ${lz0}"
if "${dir} == 4" then    "variable len0 equal ${lz0}"
if "${dir} == 5" then    "variable len0 equal ${lz0}"
if "${dir} == 6" then    "variable len0 equal ${ly0}"

# Reset box and simulation parameters

clear
  using 1 OpenMP thread(s) per MPI task
Loaded 1 plugins from C:\Program Files\LAMMPS 64-bit 23Jun2022\plugins
Loaded 0 plugins from C:\Program Files\LAMMPS 64-bit 23Jun2022-MPI\plugins
Loaded 1 plugins from C:\Program Files\LAMMPS 64-bit 22Dec2022-MSMPI\plugins
Loaded 1 plugins from C:\Program Files\LAMMPS 64-bit 28Mar2023-MPI\plugins
box tilt large

The 'box' command has been removed and will be ignored

read_restart restart.equil
Reading restart file ...
  restart file = 22 Dec 2022, LAMMPS = 22 Dec 2022
  restoring atom style atomic from restart
  triclinic box = (0.00014694364 0.00014694364 0.00014694364) to (11.057559 16.586265 22.114971) with tilt (0 0 0)
  1 by 2 by 2 MPI processor grid
  pair style meam stores no restart info
  192 atoms
  read_restart CPU = 0.000 seconds
include potential.mod
# NOTE: This script can be modified for different pair styles
# See in.elastic for more info.

# Choose potential
#-----------------------
#pair_style	sw
#pair_coeff * * Si.sw Si
#-----------------------
#pair_style morse	2.83994742	# D0[eV] a[1/A] r0[A] rc[A], 1NN for BCC
#pair_coeff 1 1	2.1173	1.0202	2.4595	2.6497	#	Fe-Fe
#-----------------------
#pair_style smatb # R0(A)   p       q     A(eV)   xi(eV)  Rcs(A)   Rc(A), 4NN: Rcs=4NN, Rc=(4NN+5NN)/2
#pair_coeff 1 1	2.4802	7.0149	2.3779	0.3144	3.0551	4.033	4.176	#	Co	Co
#-----------------------
#pair_style eam/alloy
#pair_coeff * * AlCrFeCoNi_Zhou04.eam.alloy Fe
#-----------------------
pair_style meam
pair_coeff * * ./../../library.meam Ge Si ./../../GeSi.meam Ge Si
#-----------------------

# Setup neighbor style
neighbor 1.0 nsq
neigh_modify once no every 1 delay 0 check yes

# Setup minimization style
min_style	     cg
min_modify	     dmax ${dmax} line quadratic
min_modify	     dmax 0.01 line quadratic

# Setup output
thermo		1
thermo_style custom step temp pe press pxx pyy pzz pxy pxz pyz lx ly lz vol
thermo_modify norm no

# Negative deformation

variable delta equal -${up}*${len0}
variable delta equal -1e-06*${len0}
variable delta equal -1e-06*16.5861183381545
variable deltaxy equal -${up}*xy
variable deltaxy equal -1e-06*xy
variable deltaxz equal -${up}*xz
variable deltaxz equal -1e-06*xz
variable deltayz equal -${up}*yz
variable deltayz equal -1e-06*yz
if "${dir} == 1" then    "change_box all x delta 0 ${delta} xy delta ${deltaxy} xz delta ${deltaxz} remap units box"
if "${dir} == 2" then    "change_box all y delta 0 ${delta} yz delta ${deltayz} remap units box"
change_box all y delta 0 ${delta} yz delta ${deltayz} remap units box
change_box all y delta 0 -1.65861183381545e-05 yz delta ${deltayz} remap units box
change_box all y delta 0 -1.65861183381545e-05 yz delta -0 remap units box
Changing box ...
  triclinic box = (0.00014694364 0.00014694364 0.00014694364) to (11.057559 16.586249 22.114971) with tilt (0 0 0)
  triclinic box = (0.00014694364 0.00014694364 0.00014694364) to (11.057559 16.586249 22.114971) with tilt (0 0 0)
if "${dir} == 3" then    "change_box all z delta 0 ${delta} remap units box"
if "${dir} == 4" then    "change_box all yz delta ${delta} remap units box"
if "${dir} == 5" then    "change_box all xz delta ${delta} remap units box"
if "${dir} == 6" then    "change_box all xy delta ${delta} remap units box"

# Relax atoms positions

minimize ${etol} ${ftol} ${maxiter} ${maxeval}
minimize 0 ${ftol} ${maxiter} ${maxeval}
minimize 0 1e-10 ${maxiter} ${maxeval}
minimize 0 1e-10 100 ${maxeval}
minimize 0 1e-10 100 1000
Neighbor list info ...
  update: every = 1 steps, delay = 0 steps, check = yes
  max neighbors/atom: 2000, page size: 100000
  master list distance cutoff = 5.5
  ghost atom cutoff = 5.5
  2 neighbor lists, perpetual/occasional/extra = 2 0 0
  (1) pair meam, perpetual
      attributes: full, newton on
      pair build: full/nsq
      stencil: none
      bin: none
  (2) pair meam, perpetual, half/full from (1)
      attributes: half, newton on
      pair build: halffull/newton
      stencil: none
      bin: none
Per MPI rank memory allocation (min/avg/max) = 9.76 | 9.762 | 9.763 Mbytes
   Step          Temp          PotEng         Press           Pxx            Pyy            Pzz            Pxy            Pxz            Pyz             Lx             Ly             Lz           Volume    
         1   0             -812.16         0.88032317     0.66464927     1.3116669      0.66465332    -0.23689696     0.14166122    -0.9657523      11.057412      16.586102      22.114824      4055.8447    
         2   0             -812.16         0.88017475     0.66450208     1.3115192      0.66450299     0.029316914   -0.017532295    0.11949703     11.057412      16.586102      22.114824      4055.8447    
         3   0             -812.16         0.8801694      0.66449697     1.311514       0.66449729    -0.015353819    0.0091825416  -0.062563533    11.057412      16.586102      22.114824      4055.8447    
         4   0             -812.16         0.88016892     0.66449669     1.3115133      0.66449682     0.015995873   -0.0095670241   0.065168018    11.057412      16.586102      22.114824      4055.8447    
         5   0             -812.16         0.88016884     0.66449663     1.3115132      0.66449673    -0.014354469    0.0085860391  -0.058477547    11.057412      16.586102      22.114824      4055.8447    
         6   0             -812.16         0.8801687      0.66449652     1.311513       0.66449657     0.0093788157  -0.0056099435   0.038206033    11.057412      16.586102      22.114824      4055.8447    
         7   0             -812.16         0.88016866     0.66449648     1.311513       0.6644965     -0.0060430667   0.0036146603  -0.024616167    11.057412      16.586102      22.114824      4055.8447    
         8   0             -812.16         0.88016866     0.66449649     1.311513       0.6644965      0.0048242412  -0.0028855584   0.019650612    11.057412      16.586102      22.114824      4055.8447    
         9   0             -812.16         0.88016865     0.66449649     1.311513       0.66449649    -0.0028671079   0.0017148899  -0.011678109    11.057412      16.586102      22.114824      4055.8447    
        10   0             -812.16         0.88016865     0.66449649     1.311513       0.66449649     0.0024842892  -0.0014858821   0.01011848     11.057412      16.586102      22.114824      4055.8447    
        11   0             -812.16         0.88016865     0.66449649     1.311513       0.66449648    -0.0023616065   0.0014124855  -0.009618573    11.057412      16.586102      22.114824      4055.8447    
        12   0             -812.16         0.88016865     0.66449649     1.311513       0.66449649     0.0021129547  -0.0012637527   0.0086057338   11.057412      16.586102      22.114824      4055.8447    
        13   0             -812.16         0.88016865     0.66449649     1.311513       0.66449649    -0.0013580336   0.00081222475 -0.005530972    11.057412      16.586102      22.114824      4055.8447    
        14   0             -812.16         0.88016865     0.66449649     1.311513       0.66449649     0.0010218151  -0.00061112608  0.0041615596   11.057412      16.586102      22.114824      4055.8447    
        15   0             -812.16         0.88016865     0.66449649     1.311513       0.66449649    -0.00076912348  0.00045998417 -0.0031323451   11.057412      16.586102      22.114824      4055.8447    
        16   0             -812.16         0.88016865     0.66449649     1.311513       0.66449649     0.00070541545 -0.00042187335  0.0028728336   11.057412      16.586102      22.114824      4055.8447    
        17   0             -812.16         0.88016865     0.66449649     1.311513       0.66449649    -0.00048485971  0.00028996357 -0.0019745773   11.057412      16.586102      22.114824      4055.8447    
        18   0             -812.16         0.88016865     0.66449649     1.311513       0.66449649     0.0002254353  -0.00013481055  0.00091803981  11.057412      16.586102      22.114824      4055.8447    
        19   0             -812.16         0.88016865     0.66449649     1.311513       0.66449649    -0.00016718411  9.9969167e-05 -0.00068078841  11.057412      16.586102      22.114824      4055.8447    
        20   0             -812.16         0.88016865     0.66449649     1.311513       0.66449649     0.00012251826 -7.3254599e-05  0.00049887451  11.057412      16.586102      22.114824      4055.8447    
        21   0             -812.16         0.88016865     0.66449649     1.311513       0.66449649    -9.1367089e-05  5.4623416e-05 -0.0003720042   11.057412      16.586102      22.114824      4055.8447    
        22   0             -812.16         0.88016865     0.66449649     1.311513       0.66449649     4.5237205e-05 -2.7040928e-05  0.00018416551  11.057412      16.586102      22.114824      4055.8447    
        23   0             -812.16         0.88016865     0.66449649     1.311513       0.66449649    -3.7686236e-05  2.2520432e-05 -0.00015339063  11.057412      16.586102      22.114824      4055.8447    
        24   0             -812.16         0.88016865     0.66449649     1.311513       0.66449649     2.5612185e-05 -1.5298431e-05  0.00010421257  11.057412      16.586102      22.114824      4055.8447    
        25   0             -812.16         0.88016865     0.66449649     1.311513       0.66449649    -1.8764974e-05  1.1203053e-05 -7.632461e-05   11.057412      16.586102      22.114824      4055.8447    
        26   0             -812.16         0.88016865     0.66449649     1.311513       0.66449649     1.4507523e-05 -8.655385e-06   5.8978366e-05  11.057412      16.586102      22.114824      4055.8447    
        27   0             -812.16         0.88016865     0.66449649     1.311513       0.66449649    -7.3888389e-06  4.4033819e-06 -3.0013883e-05  11.057412      16.586102      22.114824      4055.8447    
        28   0             -812.16         0.88016865     0.66449649     1.311513       0.66449649     4.4485708e-06 -2.6469168e-06  1.8049309e-05  11.057412      16.586102      22.114824      4055.8447    
        29   0             -812.16         0.88016865     0.66449649     1.311513       0.66449649    -2.7464696e-06  1.6316298e-06 -1.1130701e-05  11.057412      16.586102      22.114824      4055.8447    
        30   0             -812.16         0.88016865     0.66449649     1.311513       0.66449649     1.3489812e-06 -7.9834758e-07  5.4522027e-06  11.057412      16.586102      22.114824      4055.8447    
        31   0             -812.16         0.88016865     0.66449649     1.311513       0.66449649    -6.7844073e-07  3.9858141e-07 -2.7282604e-06  11.057412      16.586102      22.114824      4055.8447    
        32   0             -812.16         0.88016865     0.66449649     1.311513       0.66449649     5.6084707e-07 -3.2773913e-07  2.2471356e-06  11.057412      16.586102      22.114824      4055.8447    
        33   0             -812.16         0.88016865     0.66449649     1.311513       0.66449649    -2.3687863e-07  1.3716018e-07 -9.4312779e-07  11.057412      16.586102      22.114824      4055.8447    
        34   0             -812.16         0.88016865     0.66449649     1.311513       0.66449649     9.6756289e-08 -5.485962e-08   3.7995312e-07  11.057412      16.586102      22.114824      4055.8447    
        35   0             -812.16         0.88016865     0.66449649     1.311513       0.66449649    -4.061708e-08   2.1616316e-08 -1.531634e-07   11.057412      16.586102      22.114824      4055.8447    
        36   0             -812.16         0.88016865     0.66449649     1.311513       0.66449649     3.5871526e-08 -1.8134166e-08  1.3100324e-07  11.057412      16.586102      22.114824      4055.8447    
        37   0             -812.16         0.88016865     0.66449649     1.311513       0.66449649    -2.9840564e-08  1.4272728e-08 -1.0565463e-07  11.057412      16.586102      22.114824      4055.8447    
        38   0             -812.16         0.88016865     0.66449649     1.311513       0.66449649     8.4229545e-09 -3.4649344e-09  2.7775094e-08  11.057412      16.586102      22.114824      4055.8447    
        39   0             -812.16         0.88016865     0.66449649     1.311513       0.66449649    -4.8315102e-09  5.231955e-10  -1.1184828e-08  11.057412      16.586102      22.114824      4055.8447    
        40   0             -812.16         0.88016865     0.66449649     1.311513       0.66449649     3.3678239e-09  1.1879341e-09  3.2574351e-09  11.057412      16.586102      22.114824      4055.8447    
        41   0             -812.16         0.88016865     0.66449649     1.311513       0.66449649    -2.7000543e-09 -1.6442676e-09 -5.6380868e-10  11.057412      16.586102      22.114824      4055.8447    
        42   0             -812.16         0.88016865     0.66449649     1.311513       0.66449649     1.183994e-09   1.4334378e-09 -1.6894868e-09  11.057412      16.586102      22.114824      4055.8447    
        43   0             -812.16         0.88016865     0.66449649     1.311513       0.66449649    -9.1351647e-11 -1.1812054e-09  3.1866939e-09  11.057412      16.586102      22.114824      4055.8447    
        44   0             -812.16         0.88016865     0.66449649     1.311513       0.66449649    -4.822782e-10   1.3403889e-09 -4.887274e-09   11.057412      16.586102      22.114824      4055.8447    
        45   0             -812.16         0.88016865     0.66449649     1.311513       0.66449649     9.3164059e-10 -2.1300616e-09  7.7788181e-09  11.057412      16.586102      22.114824      4055.8447    
        46   0             -812.16         0.88016865     0.66449649     1.311513       0.66449649    -4.5330257e-10  9.8728803e-10 -3.6472094e-09  11.057412      16.586102      22.114824      4055.8447    
        47   0             -812.16         0.88016865     0.66449649     1.311513       0.66449649     2.5065615e-10 -7.0868705e-10  2.4498807e-09  11.057412      16.586102      22.114824      4055.8447    
        48   0             -812.16         0.88016865     0.66449649     1.311513       0.66449649    -5.2222556e-10  1.2303065e-09 -3.8571298e-09  11.057412      16.586102      22.114824      4055.8447    
        49   0             -812.16         0.88016865     0.66449649     1.311513       0.66449649     7.111117e-10  -1.083792e-09   3.1713572e-09  11.057412      16.586102      22.114824      4055.8447    
Loop time of 0.010348 on 4 procs for 48 steps with 192 atoms

0.0% CPU use with 4 MPI tasks x 1 OpenMP threads

Minimization stats:
  Stopping criterion = force tolerance
  Energy initial, next-to-last, final = 
     -812.160000025685  -812.160000181375  -812.160000181375
  Force two-norm initial, final = 0.002757793 6.5037764e-11
  Force max component initial, final = 0.00032353053 8.5916829e-12
  Final line search alpha, max atom move = 1 8.5916829e-12
  Iterations, force evaluations = 48 96

MPI task timing breakdown:
Section |  min time  |  avg time  |  max time  |%varavg| %total
---------------------------------------------------------------
Pair    | 0.008461   | 0.008664   | 0.008733   |   0.1 | 83.73
Neigh   | 0          | 0          | 0          |   0.0 |  0.00
Comm    | 0.000664   | 0.0007405  | 0.000936   |   0.0 |  7.16
Output  | 0.000456   | 0.00047125 | 0.000513   |   0.0 |  4.55
Modify  | 0          | 0          | 0          |   0.0 |  0.00
Other   |            | 0.0004723  |            |       |  4.56

Nlocal:             48 ave          52 max          42 min
Histogram: 1 0 0 0 0 0 0 2 0 1
Nghost:            323 ave         329 max         319 min
Histogram: 1 0 0 2 0 0 0 0 0 1
Neighs:            672 ave         719 max         588 min
Histogram: 1 0 0 0 0 0 0 1 1 1
FullNghs:         1344 ave        1456 max        1176 min
Histogram: 1 0 0 0 0 0 0 2 0 1

Total # of neighbors = 5376
Ave neighs/atom = 28
Neighbor list builds = 0
Dangerous builds = 0

# Obtain new stress tensor

variable tmp equal pxx
variable pxx1 equal ${tmp}
variable pxx1 equal 0.664496486303147
variable tmp equal pyy
variable pyy1 equal ${tmp}
variable pyy1 equal 1.31151298496561
variable tmp equal pzz
variable pzz1 equal ${tmp}
variable pzz1 equal 0.664496486400985
variable tmp equal pxy
variable pxy1 equal ${tmp}
variable pxy1 equal 7.11111699018528e-10
variable tmp equal pxz
variable pxz1 equal ${tmp}
variable pxz1 equal -1.08379201211998e-09
variable tmp equal pyz
variable pyz1 equal ${tmp}
variable pyz1 equal 3.17135721714877e-09

# Compute elastic constant from pressure tensor

variable C1neg equal ${d1}
variable C1neg equal 66.4496486426444
variable C2neg equal ${d2}
variable C2neg equal 131.151298498846
variable C3neg equal ${d3}
variable C3neg equal 66.4496486456026
variable C4neg equal ${d4}
variable C4neg equal 3.05727394651138e-07
variable C5neg equal ${d5}
variable C5neg equal -1.05578644833971e-07
variable C6neg equal ${d6}
variable C6neg equal 4.16568334498302e-08

# Reset box and simulation parameters

clear
  using 1 OpenMP thread(s) per MPI task
Loaded 1 plugins from C:\Program Files\LAMMPS 64-bit 23Jun2022\plugins
Loaded 0 plugins from C:\Program Files\LAMMPS 64-bit 23Jun2022-MPI\plugins
Loaded 1 plugins from C:\Program Files\LAMMPS 64-bit 22Dec2022-MSMPI\plugins
Loaded 1 plugins from C:\Program Files\LAMMPS 64-bit 28Mar2023-MPI\plugins
box tilt large

The 'box' command has been removed and will be ignored

read_restart restart.equil
Reading restart file ...
  restart file = 22 Dec 2022, LAMMPS = 22 Dec 2022
  restoring atom style atomic from restart
  triclinic box = (0.00014694364 0.00014694364 0.00014694364) to (11.057559 16.586265 22.114971) with tilt (0 0 0)
  1 by 2 by 2 MPI processor grid
  pair style meam stores no restart info
  192 atoms
  read_restart CPU = 0.000 seconds
include potential.mod
# NOTE: This script can be modified for different pair styles
# See in.elastic for more info.

# Choose potential
#-----------------------
#pair_style	sw
#pair_coeff * * Si.sw Si
#-----------------------
#pair_style morse	2.83994742	# D0[eV] a[1/A] r0[A] rc[A], 1NN for BCC
#pair_coeff 1 1	2.1173	1.0202	2.4595	2.6497	#	Fe-Fe
#-----------------------
#pair_style smatb # R0(A)   p       q     A(eV)   xi(eV)  Rcs(A)   Rc(A), 4NN: Rcs=4NN, Rc=(4NN+5NN)/2
#pair_coeff 1 1	2.4802	7.0149	2.3779	0.3144	3.0551	4.033	4.176	#	Co	Co
#-----------------------
#pair_style eam/alloy
#pair_coeff * * AlCrFeCoNi_Zhou04.eam.alloy Fe
#-----------------------
pair_style meam
pair_coeff * * ./../../library.meam Ge Si ./../../GeSi.meam Ge Si
#-----------------------

# Setup neighbor style
neighbor 1.0 nsq
neigh_modify once no every 1 delay 0 check yes

# Setup minimization style
min_style	     cg
min_modify	     dmax ${dmax} line quadratic
min_modify	     dmax 0.01 line quadratic

# Setup output
thermo		1
thermo_style custom step temp pe press pxx pyy pzz pxy pxz pyz lx ly lz vol
thermo_modify norm no

# Positive deformation

variable delta equal ${up}*${len0}
variable delta equal 1e-06*${len0}
variable delta equal 1e-06*16.5861183381545
variable deltaxy equal ${up}*xy
variable deltaxy equal 1e-06*xy
variable deltaxz equal ${up}*xz
variable deltaxz equal 1e-06*xz
variable deltayz equal ${up}*yz
variable deltayz equal 1e-06*yz
if "${dir} == 1" then    "change_box all x delta 0 ${delta} xy delta ${deltaxy} xz delta ${deltaxz} remap units box"
if "${dir} == 2" then    "change_box all y delta 0 ${delta} yz delta ${deltayz} remap units box"
change_box all y delta 0 ${delta} yz delta ${deltayz} remap units box
change_box all y delta 0 1.65861183381545e-05 yz delta ${deltayz} remap units box
change_box all y delta 0 1.65861183381545e-05 yz delta 0 remap units box
Changing box ...
  triclinic box = (0.00014694364 0.00014694364 0.00014694364) to (11.057559 16.586282 22.114971) with tilt (0 0 0)
  triclinic box = (0.00014694364 0.00014694364 0.00014694364) to (11.057559 16.586282 22.114971) with tilt (0 0 0)
if "${dir} == 3" then    "change_box all z delta 0 ${delta} remap units box"
if "${dir} == 4" then    "change_box all yz delta ${delta} remap units box"
if "${dir} == 5" then    "change_box all xz delta ${delta} remap units box"
if "${dir} == 6" then    "change_box all xy delta ${delta} remap units box"

# Relax atoms positions

minimize ${etol} ${ftol} ${maxiter} ${maxeval}
minimize 0 ${ftol} ${maxiter} ${maxeval}
minimize 0 1e-10 ${maxiter} ${maxeval}
minimize 0 1e-10 100 ${maxeval}
minimize 0 1e-10 100 1000
Neighbor list info ...
  update: every = 1 steps, delay = 0 steps, check = yes
  max neighbors/atom: 2000, page size: 100000
  master list distance cutoff = 5.5
  ghost atom cutoff = 5.5
  2 neighbor lists, perpetual/occasional/extra = 2 0 0
  (1) pair meam, perpetual
      attributes: full, newton on
      pair build: full/nsq
      stencil: none
      bin: none
  (2) pair meam, perpetual, half/full from (1)
      attributes: half, newton on
      pair build: halffull/newton
      stencil: none
      bin: none
Per MPI rank memory allocation (min/avg/max) = 9.76 | 9.762 | 9.763 Mbytes
   Step          Temp          PotEng         Press           Pxx            Pyy            Pzz            Pxy            Pxz            Pyz             Lx             Ly             Lz           Volume    
         1   0             -812.16        -0.88000999    -0.66433931    -1.3113554     -0.66433526    -0.23689446     0.14166011    -0.96574208     11.057412      16.586135      22.114824      4055.8529    
         2   0             -812.16        -0.8801584     -0.66448651    -1.3115031     -0.66448559     0.029316738   -0.017532352    0.11949631     11.057412      16.586135      22.114824      4055.8529    
         3   0             -812.16        -0.88016375    -0.66449162    -1.3115083     -0.6644913     -0.015353819    0.0091827257  -0.062563534    11.057412      16.586135      22.114824      4055.8529    
         4   0             -812.16        -0.88016423    -0.66449189    -1.311509      -0.66449177     0.015995919   -0.0095673301   0.065168204    11.057412      16.586135      22.114824      4055.8529    
         5   0             -812.16        -0.88016432    -0.66449195    -1.3115091     -0.66449185    -0.014354487    0.0085863479  -0.058477621    11.057412      16.586135      22.114824      4055.8529    
         6   0             -812.16        -0.88016445    -0.66449207    -1.3115093     -0.66449201     0.0093788346  -0.0056101864   0.038206109    11.057412      16.586135      22.114824      4055.8529    
         7   0             -812.16        -0.8801645     -0.6644921     -1.3115093     -0.66449208    -0.0060431112   0.0036148673  -0.024616347    11.057412      16.586135      22.114824      4055.8529    
         8   0             -812.16        -0.8801645     -0.6644921     -1.3115093     -0.66449209     0.0048243125  -0.0028857729   0.0196509      11.057412      16.586135      22.114824      4055.8529    
         9   0             -812.16        -0.8801645     -0.6644921     -1.3115093     -0.6644921     -0.0028671655   0.0017150509  -0.01167834     11.057412      16.586135      22.114824      4055.8529    
        10   0             -812.16        -0.8801645     -0.6644921     -1.3115093     -0.6644921      0.0024843316  -0.0014860388   0.010118648    11.057412      16.586135      22.114824      4055.8529    
        11   0             -812.16        -0.8801645     -0.6644921     -1.3115093     -0.6644921     -0.002361636    0.0014126447  -0.0096186859   11.057412      16.586135      22.114824      4055.8529    
        12   0             -812.16        -0.8801645     -0.6644921     -1.3115093     -0.6644921      0.0021129664  -0.0012638977   0.0086057738   11.057412      16.586135      22.114824      4055.8529    
        13   0             -812.16        -0.8801645     -0.6644921     -1.3115093     -0.6644921     -0.001358022    0.00081231791 -0.0055309192   11.057412      16.586135      22.114824      4055.8529    
        14   0             -812.16        -0.8801645     -0.6644921     -1.3115093     -0.6644921      0.0010218015  -0.00061120456  0.0041614997   11.057412      16.586135      22.114824      4055.8529    
        15   0             -812.16        -0.8801645     -0.6644921     -1.3115093     -0.6644921     -0.00076909766  0.00046004706 -0.003132236    11.057412      16.586135      22.114824      4055.8529    
        16   0             -812.16        -0.8801645     -0.6644921     -1.3115093     -0.6644921      0.00070537982 -0.00042193468  0.0028726849   11.057412      16.586135      22.114824      4055.8529    
        17   0             -812.16        -0.8801645     -0.6644921     -1.3115093     -0.6644921     -0.00048483287  0.00029001188 -0.0019744659   11.057412      16.586135      22.114824      4055.8529    
        18   0             -812.16        -0.8801645     -0.6644921     -1.3115093     -0.6644921      0.00022542103 -0.00013484155  0.0009179818   11.057412      16.586135      22.114824      4055.8529    
        19   0             -812.16        -0.8801645     -0.6644921     -1.3115093     -0.6644921     -0.00016717261  0.00010000027 -0.00068074305  11.057412      16.586135      22.114824      4055.8529    
        20   0             -812.16        -0.8801645     -0.6644921     -1.3115093     -0.6644921      0.00012250899 -7.3284674e-05  0.00049883909  11.057412      16.586135      22.114824      4055.8529    
        21   0             -812.16        -0.8801645     -0.6644921     -1.3115093     -0.6644921     -9.1358954e-05  5.4652178e-05 -0.0003719738   11.057412      16.586135      22.114824      4055.8529    
        22   0             -812.16        -0.8801645     -0.6644921     -1.3115093     -0.6644921      4.5233187e-05 -2.7060131e-05  0.00018415126  11.057412      16.586135      22.114824      4055.8529    
        23   0             -812.16        -0.8801645     -0.6644921     -1.3115093     -0.6644921     -3.7681914e-05  2.2544556e-05 -0.00015337649  11.057412      16.586135      22.114824      4055.8529    
        24   0             -812.16        -0.8801645     -0.6644921     -1.3115093     -0.6644921      2.5607877e-05 -1.5322785e-05  0.0001041988   11.057412      16.586135      22.114824      4055.8529    
        25   0             -812.16        -0.8801645     -0.6644921     -1.3115093     -0.6644921     -1.8761269e-05  1.1227589e-05 -7.6313738e-05  11.057412      16.586135      22.114824      4055.8529    
        26   0             -812.16        -0.8801645     -0.6644921     -1.3115093     -0.6644921      1.450357e-05  -8.6812682e-06  5.8967342e-05  11.057412      16.586135      22.114824      4055.8529    
        27   0             -812.16        -0.8801645     -0.6644921     -1.3115093     -0.6644921     -7.3857976e-06  4.422204e-06  -3.0006235e-05  11.057412      16.586135      22.114824      4055.8529    
        28   0             -812.16        -0.8801645     -0.6644921     -1.3115093     -0.6644921      4.4460063e-06 -2.6631962e-06  1.8043923e-05  11.057412      16.586135      22.114824      4055.8529    
        29   0             -812.16        -0.8801645     -0.6644921     -1.3115093     -0.6644921     -2.7445346e-06  1.6446144e-06 -1.1127606e-05  11.057412      16.586135      22.114824      4055.8529    
        30   0             -812.16        -0.8801645     -0.6644921     -1.3115093     -0.6644921      1.3473457e-06 -8.0804935e-07  5.4503587e-06  11.057412      16.586135      22.114824      4055.8529    
        31   0             -812.16        -0.8801645     -0.6644921     -1.3115093     -0.6644921     -6.7699818e-07  4.0678945e-07 -2.7270341e-06  11.057412      16.586135      22.114824      4055.8529    
        32   0             -812.16        -0.8801645     -0.6644921     -1.3115093     -0.6644921      5.5949211e-07 -3.3675129e-07  2.2459993e-06  11.057412      16.586135      22.114824      4055.8529    
        33   0             -812.16        -0.8801645     -0.6644921     -1.3115093     -0.6644921     -2.3626361e-07  1.426017e-07  -9.4256962e-07  11.057412      16.586135      22.114824      4055.8529    
        34   0             -812.16        -0.8801645     -0.6644921     -1.3115093     -0.6644921      9.6482708e-08 -5.8496047e-08  3.7968707e-07  11.057412      16.586135      22.114824      4055.8529    
        35   0             -812.16        -0.8801645     -0.6644921     -1.3115093     -0.6644921     -4.0494308e-08  2.4879766e-08 -1.529399e-07   11.057412      16.586135      22.114824      4055.8529    
        36   0             -812.16        -0.8801645     -0.6644921     -1.3115093     -0.6644921      3.56759e-08   -2.2177838e-08  1.3070027e-07  11.057412      16.586135      22.114824      4055.8529    
        37   0             -812.16        -0.8801645     -0.6644921     -1.3115093     -0.6644921     -2.9562995e-08  1.8642594e-08 -1.0535705e-07  11.057412      16.586135      22.114824      4055.8529    
        38   0             -812.16        -0.8801645     -0.6644921     -1.3115093     -0.6644921      8.1645835e-09 -5.429437e-09   2.7650099e-08  11.057412      16.586135      22.114824      4055.8529    
        39   0             -812.16        -0.8801645     -0.6644921     -1.3115093     -0.6644921     -4.1811295e-09  3.5371234e-09 -1.0986607e-08  11.057412      16.586135      22.114824      4055.8529    
        40   0             -812.16        -0.8801645     -0.6644921     -1.3115093     -0.6644921      2.3470095e-09 -2.9522198e-09  2.9517381e-09  11.057412      16.586135      22.114824      4055.8529    
        41   0             -812.16        -0.8801645     -0.6644921     -1.3115093     -0.6644921     -1.6751796e-09  2.7017461e-09 -2.7969205e-10  11.057412      16.586135      22.114824      4055.8529    
        42   0             -812.16        -0.8801645     -0.6644921     -1.3115093     -0.6644921      6.5813006e-10 -1.5319391e-09 -1.875403e-09   11.057412      16.586135      22.114824      4055.8529    
        43   0             -812.16        -0.8801645     -0.6644921     -1.3115093     -0.6644921      8.1531175e-11  6.0975708e-10  3.2835007e-09  11.057412      16.586135      22.114824      4055.8529    
        44   0             -812.16        -0.8801645     -0.6644921     -1.3115093     -0.6644921     -5.0767619e-10 -3.9923048e-10 -4.9621979e-09  11.057412      16.586135      22.114824      4055.8529    
        45   0             -812.16        -0.8801645     -0.6644921     -1.3115093     -0.6644921      8.2155628e-10  4.9906839e-10  7.8978724e-09  11.057412      16.586135      22.114824      4055.8529    
        46   0             -812.16        -0.8801645     -0.6644921     -1.3115093     -0.6644921     -4.2856959e-10 -5.8375274e-11 -3.6969159e-09  11.057412      16.586135      22.114824      4055.8529    
        47   0             -812.16        -0.8801645     -0.6644921     -1.3115093     -0.6644921      3.1097052e-10 -4.2068935e-11  2.4336955e-09  11.057412      16.586135      22.114824      4055.8529    
[...]
        13   0             -812.16        -1.0305927e-07 -6.2230487e-07  3.856054e-08   2.7456651e-07 -0.492316       0.00055845973 -0.0037978963   11.057412      16.586118      22.114824      4055.8488    
        14   0             -812.16        -1.1092829e-07 -6.2177692e-07  2.6243056e-08  2.6274899e-07 -0.48574718    -0.00039866576  0.0027110837   11.057412      16.586118      22.114824      4055.8488    
        15   0             -812.16        -1.0500361e-07 -6.2221386e-07  3.534041e-08   2.718626e-07  -0.49046808     0.00028922363 -0.0019667285   11.057412      16.586118      22.114824      4055.8488    
        16   0             -812.16        -1.0943928e-07 -6.2176258e-07  2.8420399e-08  2.6502433e-07 -0.48673993    -0.00025402717  0.0017273145   11.057412      16.586118      22.114824      4055.8488    
        17   0             -812.16        -1.0590813e-07 -6.220127e-07   3.3861642e-08  2.7042667e-07 -0.48962515     0.00016640407 -0.0011314568   11.057412      16.586118      22.114824      4055.8488    
        18   0             -812.16        -1.079468e-07  -6.2183739e-07  3.0765438e-08  2.6723154e-07 -0.48796314    -7.5789832e-05  0.00051527758  11.057412      16.586118      22.114824      4055.8488    
        19   0             -812.16        -1.0685763e-07 -6.2191729e-07  3.2457643e-08  2.6888675e-07 -0.48886303     5.5353117e-05 -0.00037628805  11.057412      16.586118      22.114824      4055.8488    
        20   0             -812.16        -1.0766138e-07 -6.2184061e-07  3.1211268e-08  2.6764521e-07 -0.48820836    -4.0059449e-05  0.00027228319  11.057412      16.586118      22.114824      4055.8488    
        21   0             -812.16        -1.0707156e-07 -6.2187286e-07  3.2121934e-08  2.6853624e-07 -0.48868607     2.9568112e-05 -0.00020093813  11.057412      16.586118      22.114824      4055.8488    
        22   0             -812.16        -1.0748939e-07 -6.2187905e-07  3.1500985e-08  2.679099e-07  -0.4883836     -1.4521101e-05  9.8656891e-05  11.057412      16.586118      22.114824      4055.8488    
        23   0             -812.16        -1.0719293e-07 -6.2182872e-07  3.1922443e-08  2.6832749e-07 -0.48856584     1.2047762e-05 -8.1808388e-05  11.057412      16.586118      22.114824      4055.8488    
        24   0             -812.16        -1.0739475e-07 -6.2184798e-07  3.1629492e-08  2.6803424e-07 -0.48842728    -8.1592332e-06  5.5358621e-05  11.057412      16.586118      22.114824      4055.8488    
        25   0             -812.16        -1.0724124e-07 -6.2183372e-07  3.1855683e-08  2.6825431e-07 -0.48852404     5.9578344e-06 -4.0386111e-05  11.057412      16.586118      22.114824      4055.8488    
        26   0             -812.16        -1.0734432e-07 -6.2183219e-07  3.1697569e-08  2.6810167e-07 -0.48845177    -4.5909183e-06  3.1081028e-05  11.057412      16.586118      22.114824      4055.8488    
        27   0             -812.16        -1.0729001e-07 -6.2183434e-07  3.1781627e-08  2.6818269e-07 -0.48849915     2.3289994e-06 -1.5735685e-05  11.057412      16.586118      22.114824      4055.8488    
        28   0             -812.16        -1.0732921e-07 -6.2184855e-07  3.1729314e-08  2.6813159e-07 -0.48847368    -1.3954083e-06  9.4010167e-06  11.057412      16.586118      22.114824      4055.8488    
        29   0             -812.16        -1.0730209e-07 -6.2184334e-07  3.1770018e-08  2.6816705e-07 -0.48848907     8.5750463e-07 -5.7616687e-06  11.057412      16.586118      22.114824      4055.8488    
        30   0             -812.16        -1.0732059e-07 -6.2184303e-07  3.1744907e-08  2.6813635e-07 -0.48848037    -4.1715911e-07  2.785231e-06   11.057412      16.586118      22.114824      4055.8488    
        31   0             -812.16        -1.0730976e-07 -6.2184813e-07  3.1753773e-08  2.6816509e-07 -0.48848461     2.0602412e-07 -1.3589029e-06  11.057412      16.586118      22.114824      4055.8488    
        32   0             -812.16        -1.0731613e-07 -6.2184412e-07  3.1742648e-08  2.6815307e-07 -0.48848208    -1.6789917e-07  1.0968356e-06  11.057412      16.586118      22.114824      4055.8488    
        33   0             -812.16        -1.0731468e-07 -6.2184594e-07  3.1756845e-08  2.6814505e-07 -0.48848368     6.9182331e-08 -4.4406501e-07  11.057412      16.586118      22.114824      4055.8488    
        34   0             -812.16        -1.0731453e-07 -6.2184972e-07  3.1750364e-08  2.6815576e-07 -0.48848304    -2.6748785e-08  1.6428355e-07  11.057412      16.586118      22.114824      4055.8488    
        35   0             -812.16        -1.0730614e-07 -6.218411e-07   3.1757095e-08  2.6816557e-07 -0.48848327     9.4367359e-09 -4.8110043e-08  11.057412      16.586118      22.114824      4055.8488    
        36   0             -812.16        -1.0735369e-07 -6.2187865e-07  3.1717452e-08  2.6810013e-07 -0.48848317    -7.1221137e-09  2.8491357e-08  11.057412      16.586118      22.114824      4055.8488    
        37   0             -812.16        -1.0731033e-07 -6.2183397e-07  3.1756369e-08  2.6814663e-07 -0.48848324     4.9507895e-09 -1.2214063e-08  11.057412      16.586118      22.114824      4055.8488    
        38   0             -812.16        -1.0734371e-07 -6.2187426e-07  3.1724302e-08  2.6811884e-07 -0.48848321    -8.2077261e-10 -3.4611725e-09  11.057412      16.586118      22.114824      4055.8488    
        39   0             -812.16        -1.0730754e-07 -6.2183709e-07  3.1761461e-08  2.6815302e-07 -0.4884832     -8.9652257e-10  1.9202603e-08  11.057412      16.586118      22.114824      4055.8488    
        40   0             -812.16        -1.07312e-07   -6.2184712e-07  3.1757582e-08  2.6815354e-07 -0.48848323     2.011278e-09  -3.0600382e-08  11.057412      16.586118      22.114824      4055.8488    
        41   0             -812.16        -1.073389e-07  -6.2186096e-07  3.1724606e-08  2.6811967e-07 -0.48848319    -2.307698e-09   3.3165013e-08  11.057412      16.586118      22.114824      4055.8488    
        42   0             -812.16        -1.0729828e-07 -6.2183512e-07  3.176722e-08   2.6817305e-07 -0.48848323     1.8249442e-09 -2.4376964e-08  11.057412      16.586118      22.114824      4055.8488    
        43   0             -812.16        -1.0732467e-07 -6.2185206e-07  3.174461e-08   2.6813344e-07 -0.4884832     -1.3966847e-09  1.6997256e-08  11.057412      16.586118      22.114824      4055.8488    
        44   0             -812.16        -1.0733813e-07 -6.2186366e-07  3.1730546e-08  2.6811873e-07 -0.48848323     1.650855e-09  -1.8474216e-08  11.057412      16.586118      22.114824      4055.8488    
        45   0             -812.16        -1.0730937e-07 -6.218452e-07   3.1757036e-08  2.6816004e-07 -0.48848319    -2.475009e-09   2.8156988e-08  11.057412      16.586118      22.114824      4055.8488    
        46   0             -812.16        -1.0729444e-07 -6.2182941e-07  3.1777343e-08  2.6816874e-07 -0.48848322     9.8666845e-10 -1.2415133e-08  11.057412      16.586118      22.114824      4055.8488    
        47   0             -812.16        -1.0730162e-07 -6.2183e-07     3.1767523e-08  2.6815763e-07 -0.48848321    -5.750156e-10   7.7331727e-09  11.057412      16.586118      22.114824      4055.8488    
        48   0             -812.16        -1.0729972e-07 -6.2182977e-07  3.1759704e-08  2.6817092e-07 -0.48848322     8.3851842e-10 -1.1804466e-08  11.057412      16.586118      22.114824      4055.8488    
        49   0             -812.16        -1.0731168e-07 -6.218457e-07   3.1757885e-08  2.6815278e-07 -0.48848321    -7.0934349e-10  9.5580201e-09  11.057412      16.586118      22.114824      4055.8488    
Loop time of 0.010723 on 4 procs for 48 steps with 192 atoms

36.4% CPU use with 4 MPI tasks x 1 OpenMP threads

Minimization stats:
  Stopping criterion = force tolerance
  Energy initial, next-to-last, final = 
     -812.160000025195  -812.160000182417  -812.160000182417
  Force two-norm initial, final = 0.0027748677 6.5067528e-11
  Force max component initial, final = 0.00032352982 8.7024832e-12
  Final line search alpha, max atom move = 1 8.7024832e-12
  Iterations, force evaluations = 48 96

MPI task timing breakdown:
Section |  min time  |  avg time  |  max time  |%varavg| %total
---------------------------------------------------------------
Pair    | 0.008812   | 0.0090355  | 0.009144   |   0.1 | 84.26
Neigh   | 0          | 0          | 0          |   0.0 |  0.00
Comm    | 0.000601   | 0.000716   | 0.000928   |   0.0 |  6.68
Output  | 0.000464   | 0.00048425 | 0.000527   |   0.0 |  4.52
Modify  | 0          | 0          | 0          |   0.0 |  0.00
Other   |            | 0.0004873  |            |       |  4.54

Nlocal:             48 ave          52 max          42 min
Histogram: 1 0 0 0 0 0 0 2 0 1
Nghost:            323 ave         329 max         319 min
Histogram: 1 0 0 2 0 0 0 0 0 1
Neighs:            672 ave         719 max         588 min
Histogram: 1 0 0 0 0 0 0 1 1 1
FullNghs:         1344 ave        1456 max        1176 min
Histogram: 1 0 0 0 0 0 0 2 0 1

Total # of neighbors = 5376
Ave neighs/atom = 28
Neighbor list builds = 0
Dangerous builds = 0

# Obtain new stress tensor

variable tmp equal pe
variable e1 equal ${tmp}
variable e1 equal -812.160000182417
variable tmp equal press
variable p1 equal ${tmp}
variable p1 equal -1.07311678243078e-07
variable tmp equal pxx
variable pxx1 equal ${tmp}
variable pxx1 equal -6.2184570156728e-07
variable tmp equal pyy
variable pyy1 equal ${tmp}
variable pyy1 equal 3.17578849730481e-08
variable tmp equal pzz
variable pzz1 equal ${tmp}
variable pzz1 equal 2.68152781864999e-07
variable tmp equal pxy
variable pxy1 equal ${tmp}
variable pxy1 equal -0.488483206828488
variable tmp equal pxz
variable pxz1 equal ${tmp}
variable pxz1 equal -7.09343488185025e-10
variable tmp equal pyz
variable pyz1 equal ${tmp}
variable pyz1 equal 9.55802007492884e-09

# Compute elastic constant from pressure tensor

variable C1pos equal ${d1}
variable C1pos equal 6.21722404344923e-05
variable C2pos equal ${d2}
variable C2pos equal -3.17807379980376e-06
variable C3pos equal ${d3}
variable C3pos equal -2.68207823102905e-05
variable C4pos equal ${d4}
variable C4pos equal -9.44393680429145e-07
variable C5pos equal ${d5}
variable C5pos equal 6.81337924404752e-08
variable C6pos equal ${d6}
variable C6pos equal 48.8483207123031

# Combine positive and negative

variable C1${dir} equal 0.5*(${C1neg}+${C1pos})
variable C16 equal 0.5*(${C1neg}+${C1pos})
variable C16 equal 0.5*(-6.21733684007501e-05+${C1pos})
variable C16 equal 0.5*(-6.21733684007501e-05+6.21722404344923e-05)
variable C2${dir} equal 0.5*(${C2neg}+${C2pos})
variable C26 equal 0.5*(${C2neg}+${C2pos})
variable C26 equal 0.5*(3.17701904706919e-06+${C2pos})
variable C26 equal 0.5*(3.17701904706919e-06+-3.17807379980376e-06)
variable C3${dir} equal 0.5*(${C3neg}+${C3pos})
variable C36 equal 0.5*(${C3neg}+${C3pos})
variable C36 equal 0.5*(2.68183095672424e-05+${C3pos})
variable C36 equal 0.5*(2.68183095672424e-05+-2.68207823102905e-05)
variable C4${dir} equal 0.5*(${C4neg}+${C4pos})
variable C46 equal 0.5*(${C4neg}+${C4pos})
variable C46 equal 0.5*(1.08215438226017e-07+${C4pos})
variable C46 equal 0.5*(1.08215438226017e-07+-9.44393680429145e-07)
variable C5${dir} equal 0.5*(${C5neg}+${C5pos})
variable C56 equal 0.5*(${C5neg}+${C5pos})
variable C56 equal 0.5*(2.68173293317035e-08+${C5pos})
variable C56 equal 0.5*(2.68173293317035e-08+6.81337924404752e-08)
variable C6${dir} equal 0.5*(${C6neg}+${C6pos})
variable C66 equal 0.5*(${C6neg}+${C6pos})
variable C66 equal 0.5*(48.8483211279615+${C6pos})
variable C66 equal 0.5*(48.8483211279615+48.8483207123031)

# Delete dir to make sure it is not reused

variable dir delete

# Output final values

variable C11all equal ${C11}
variable C11all equal 131.151115151433
variable C22all equal ${C22}
variable C22all equal 131.151115155401
variable C33all equal ${C33}
variable C33all equal 131.151115151436

variable C12all equal 0.5*(${C12}+${C21})
variable C12all equal 0.5*(66.4494291378537+${C21})
variable C12all equal 0.5*(66.4494291378537+66.4494291371747)
variable C13all equal 0.5*(${C13}+${C31})
variable C13all equal 0.5*(66.449429136408+${C31})
variable C13all equal 0.5*(66.449429136408+66.4494291378992)
variable C23all equal 0.5*(${C23}+${C32})
variable C23all equal 0.5*(66.4494291366201+${C32})
variable C23all equal 0.5*(66.4494291366201+66.4494291381932)

variable C44all equal ${C44}
variable C44all equal 48.8483212075318
variable C55all equal ${C55}
variable C55all equal 48.848321016997
variable C66all equal ${C66}
variable C66all equal 48.8483209201323

variable C14all equal 0.5*(${C14}+${C41})
variable C14all equal 0.5*(7.8970817300351e-11+${C41})
variable C14all equal 0.5*(7.8970817300351e-11+2.94061245992545e-08)
variable C15all equal 0.5*(${C15}+${C51})
variable C15all equal 0.5*(-1.16986938885499e-09+${C51})
variable C15all equal 0.5*(-1.16986938885499e-09+4.23296047021983e-08)
variable C16all equal 0.5*(${C16}+${C61})
variable C16all equal 0.5*(-5.63983128895487e-10+${C61})
variable C16all equal 0.5*(-5.63983128895487e-10+-5.37894769843375e-08)

variable C24all equal 0.5*(${C24}+${C42})
variable C24all equal 0.5*(6.66637345402932e-10+${C42})
variable C24all equal 0.5*(6.66637345402932e-10+3.6098043899265e-09)
variable C25all equal 0.5*(${C25}+${C52})
variable C25all equal 0.5*(-1.38215285824952e-09+${C52})
variable C25all equal 0.5*(-1.38215285824952e-09+-4.92795323111209e-08)
variable C26all equal 0.5*(${C26}+${C62})
variable C26all equal 0.5*(-5.27376367285162e-10+${C62})
variable C26all equal 0.5*(-5.27376367285162e-10+1.66609399656798e-08)

variable C34all equal 0.5*(${C34}+${C43})
variable C34all equal 0.5*(9.36546714070028e-10+${C43})
variable C34all equal 0.5*(9.36546714070028e-10+-3.96348814645395e-08)
variable C35all equal 0.5*(${C35}+${C53})
variable C35all equal 0.5*(-1.42149410609505e-09+${C53})
variable C35all equal 0.5*(-1.42149410609505e-09+2.85601751298017e-08)
variable C36all equal 0.5*(${C36}+${C63})
variable C36all equal 0.5*(-1.23637152404911e-09+${C63})
variable C36all equal 0.5*(-1.23637152404911e-09+1.41543424946892e-08)

variable C45all equal 0.5*(${C45}+${C54})
variable C45all equal 0.5*(6.78711113229645e-08+${C54})
variable C45all equal 0.5*(6.78711113229645e-08+1.70426435699141e-08)
variable C46all equal 0.5*(${C46}+${C64})
variable C46all equal 0.5*(-4.18089121101564e-07+${C64})
variable C46all equal 0.5*(-4.18089121101564e-07+1.35923990904612e-07)
variable C56all equal 0.5*(${C56}+${C65})
variable C56all equal 0.5*(4.74755608860894e-08+${C65})
variable C56all equal 0.5*(4.74755608860894e-08+-4.19360958622095e-08)

# Average moduli for cubic crystals

variable C11cubic equal (${C11all}+${C22all}+${C33all})/3.0
variable C11cubic equal (131.151115151433+${C22all}+${C33all})/3.0
variable C11cubic equal (131.151115151433+131.151115155401+${C33all})/3.0
variable C11cubic equal (131.151115151433+131.151115155401+131.151115151436)/3.0
variable C12cubic equal (${C12all}+${C13all}+${C23all})/3.0
variable C12cubic equal (66.4494291375142+${C13all}+${C23all})/3.0
variable C12cubic equal (66.4494291375142+66.4494291371536+${C23all})/3.0
variable C12cubic equal (66.4494291375142+66.4494291371536+66.4494291374066)/3.0
variable C44cubic equal (${C44all}+${C55all}+${C66all})/3.0
variable C44cubic equal (48.8483212075318+${C55all}+${C66all})/3.0
variable C44cubic equal (48.8483212075318+48.848321016997+${C66all})/3.0
variable C44cubic equal (48.8483212075318+48.848321016997+48.8483209201323)/3.0

variable bulkmodulus equal (${C11cubic}+2*${C12cubic})/3.0
variable bulkmodulus equal (131.151115152757+2*${C12cubic})/3.0
variable bulkmodulus equal (131.151115152757+2*66.4494291373581)/3.0
variable shearmodulus1 equal ${C44cubic}
variable shearmodulus1 equal 48.8483210482204
variable shearmodulus2 equal (${C11cubic}-${C12cubic})/2.0
variable shearmodulus2 equal (131.151115152757-${C12cubic})/2.0
variable shearmodulus2 equal (131.151115152757-66.4494291373581)/2.0
variable poissonratio equal 1.0/(1.0+${C11cubic}/${C12cubic})
variable poissonratio equal 1.0/(1.0+131.151115152757/${C12cubic})
variable poissonratio equal 1.0/(1.0+131.151115152757/66.4494291373581)

# For Stillinger-Weber silicon, the analytical results
# are known to be (E. R. Cowley, 1988):
#               C11 = 151.4 GPa
#               C12 = 76.4 GPa
#               C44 = 56.4 GPa

print "========================================="
=========================================
print "Components of the Elastic Constant Tensor"
Components of the Elastic Constant Tensor
print "========================================="
=========================================

print "Elastic Constant C11all = ${C11all} ${cunits}"
Elastic Constant C11all = 131.151115151433 GPa
print "Elastic Constant C22all = ${C22all} ${cunits}"
Elastic Constant C22all = 131.151115155401 GPa
print "Elastic Constant C33all = ${C33all} ${cunits}"
Elastic Constant C33all = 131.151115151436 GPa

print "Elastic Constant C12all = ${C12all} ${cunits}"
Elastic Constant C12all = 66.4494291375142 GPa
print "Elastic Constant C13all = ${C13all} ${cunits}"
Elastic Constant C13all = 66.4494291371536 GPa
print "Elastic Constant C23all = ${C23all} ${cunits}"
Elastic Constant C23all = 66.4494291374066 GPa

print "Elastic Constant C44all = ${C44all} ${cunits}"
Elastic Constant C44all = 48.8483212075318 GPa
print "Elastic Constant C55all = ${C55all} ${cunits}"
Elastic Constant C55all = 48.848321016997 GPa
print "Elastic Constant C66all = ${C66all} ${cunits}"
Elastic Constant C66all = 48.8483209201323 GPa

print "Elastic Constant C14all = ${C14all} ${cunits}"
Elastic Constant C14all = 1.47425477082774e-08 GPa
print "Elastic Constant C15all = ${C15all} ${cunits}"
Elastic Constant C15all = 2.05798676566717e-08 GPa
print "Elastic Constant C16all = ${C16all} ${cunits}"
Elastic Constant C16all = -2.71767300566165e-08 GPa

print "Elastic Constant C24all = ${C24all} ${cunits}"
Elastic Constant C24all = 2.13822086766472e-09 GPa
print "Elastic Constant C25all = ${C25all} ${cunits}"
Elastic Constant C25all = -2.53308425846852e-08 GPa
print "Elastic Constant C26all = ${C26all} ${cunits}"
Elastic Constant C26all = 8.06678179919732e-09 GPa

print "Elastic Constant C34all = ${C34all} ${cunits}"
Elastic Constant C34all = -1.93491673752347e-08 GPa
print "Elastic Constant C35all = ${C35all} ${cunits}"
Elastic Constant C35all = 1.35693405118533e-08 GPa
print "Elastic Constant C36all = ${C36all} ${cunits}"
Elastic Constant C36all = 6.45898548532005e-09 GPa

print "Elastic Constant C45all = ${C45all} ${cunits}"
Elastic Constant C45all = 4.24568774464393e-08 GPa
print "Elastic Constant C46all = ${C46all} ${cunits}"
Elastic Constant C46all = -1.41082565098476e-07 GPa
print "Elastic Constant C56all = ${C56all} ${cunits}"
Elastic Constant C56all = 2.76973251193995e-09 GPa

print "========================================="
=========================================
print "Average properties for a cubic crystal"
Average properties for a cubic crystal
print "========================================="
=========================================

print "Bulk Modulus = ${bulkmodulus} ${cunits}"
Bulk Modulus = 88.0166578091577 GPa
print "Shear Modulus 1 = ${shearmodulus1} ${cunits}"
Shear Modulus 1 = 48.8483210482204 GPa
print "Shear Modulus 2 = ${shearmodulus2} ${cunits}"
Shear Modulus 2 = 32.3508430076995 GPa
print "Poisson Ratio = ${poissonratio}"
Poisson Ratio = 0.336281609830982
Total wall time: 0:00:00
