ITEM: TIMESTEP
0
ITEM: NUMBER OF ATOMS
6000
ITEM: BOX BOUNDS xy xz yz pp pp pp
-2.2784211430510659e-01 2.5952842114304943e+01 0.0000000000000000e+00
-2.6452388369616031e-01 2.5989523883696421e+01 0.0000000000000000e+00
-8.3943688575277520e-01 1.0373943688575268e+02 0.0000000000000000e+00
ITEM: ATOMS id type x y z c_peratom fx fy fz 
1 1 0.939975 1.0539 2.99267 -7.7331 0.389137 0.320026 -0.88441 
2 1 1.10338 0.880879 8.03897 -7.67943 -0.342813 0.09291 -0.478414 
3 1 1.07683 1.03373 13.3058 -7.77205 -0.211273 -0.804568 -0.648567 
21 1 0.902545 6.23186 3.25777 -7.74896 0.0961764 1.45263 -1.24761 
22 1 0.853055 6.12795 8.3831 -7.74402 -0.857905 0.449033 0.817611 
23 1 1.07082 6.17747 13.5586 -7.97882 0.151317 0.307922 0.216565 
41 1 0.832887 11.7096 3.17701 -7.80813 1.74601 -0.696271 -0.111077 
42 1 1.15955 11.3389 8.43401 -8.01572 -0.0305517 1.07633 -0.475094 
43 1 0.951405 11.4183 13.6892 -8.20038 -0.0693974 0.0286497 -0.218124 
101 1 6.31884 1.07732 3.06203 -8.24772 0.887825 -1.05321 0.271145 
102 1 6.3733 1.10818 8.2093 -7.69122 -0.364723 -0.108742 0.584244 
103 1 6.30332 1.14799 13.543 -7.72831 -0.420494 0.18785 -0.823095 
121 1 6.2514 6.28718 3.18013 -7.66687 -0.629109 -0.999732 -0.745316 
122 1 6.10832 6.2099 8.24649 -7.3759 -0.135717 0.597433 0.0425827 
123 1 6.23931 6.3188 13.5242 -7.96125 0.475541 0.649695 -0.277619 
141 1 6.31005 11.4895 2.8799 -7.8993 -0.568723 -0.129673 2.27734 
142 1 6.20491 11.4726 8.23916 -7.50935 1.19585 0.0670588 -0.184251 
143 1 6.3697 11.5759 13.4178 -8.25883 0.0632913 -0.256627 0.151297 
201 1 11.7179 1.21639 2.87902 -7.39544 -0.478797 -1.54621 1.86793 
202 1 11.7947 1.05504 8.19292 -8.40722 -0.921438 0.167772 0.368529 
203 1 11.5096 1.13692 13.5544 -7.51016 -0.103413 -1.14518 -0.191319 
221 1 11.3805 6.23224 3.21146 -7.59915 -0.264167 0.440279 -0.135642 
222 1 11.4402 6.18487 8.29864 -7.87364 -0.567262 0.460529 1.16953 
223 1 11.5998 6.19725 13.4922 -8.10291 0.895712 0.797133 0.510122 
241 1 11.5651 11.4159 3.03798 -7.9673 -1.44047 -0.803216 0.803181 
242 1 11.4823 11.5225 8.42745 -7.77559 0.1093 -1.84334 0.558371 
243 1 11.5161 11.3172 13.6344 -7.43989 0.515963 0.462512 -0.901114 
501 1 0.92346 3.61507 0.448649 -8.17277 0.0592807 0.1367 0.612321 
502 1 1.06856 3.81841 5.67377 -7.47411 -1.00624 -0.204955 0.132803 
503 1 0.920261 3.78256 10.9892 -7.5301 -0.189792 -0.688822 0.285405 
504 1 1.24102 3.82555 16.1686 -8.29291 -0.67861 0.677657 1.22437 
521 1 1.03271 8.79848 0.678976 -8.14698 -1.63259 0.855814 -0.199577 
522 1 0.947491 9.16296 5.60655 -7.40962 1.3291 -0.796445 2.92169 
523 1 1.04412 8.96011 10.8887 -7.98465 -1.34905 -0.501082 0.238485 
524 1 0.88615 9.23337 16.324 -7.53828 -0.397574 -0.880687 -1.15822 
601 1 6.46445 3.73666 0.367905 -7.67764 -1.2949 -0.865699 0.307276 
602 1 6.25492 3.84991 5.66705 -7.72066 0.532378 -0.804149 -0.527981 
603 1 6.21228 3.80592 10.9488 -7.77836 -0.946908 0.222246 -0.975269 
604 1 6.24598 3.76394 16.2876 -7.78538 0.777484 -0.0672809 -0.730218 
621 1 6.09599 8.98107 0.580093 -7.06473 1.59319 1.67829 -3.19854 
622 1 6.36211 9.06483 5.68224 -7.76254 0.445685 -1.38261 1.04164 
623 1 6.21409 9.07899 11.0741 -7.63989 -0.292187 -0.269319 -0.692015 
624 1 6.27075 9.06181 16.3447 -7.7924 1.02446 -0.0628488 -1.97015 
701 1 11.4786 3.50011 0.501359 -7.86905 1.53467 0.760528 0.530332 
702 1 11.5953 4.07435 5.70766 -7.39813 -0.681477 -1.27472 1.43373 
703 1 11.5821 3.84406 10.9304 -7.50769 -2.06845 0.641435 -1.0934 
704 1 11.4832 3.71244 16.2166 -8.10316 1.17298 2.70376 -0.00552099 
721 1 11.3705 8.89606 0.543589 -8.0485 1.62987 -0.190129 -1.58081 
722 1 11.4508 9.06191 5.69434 -7.54168 0.837423 -0.71532 -1.01173 
723 1 11.4121 9.13067 10.8622 -7.89996 0.505769 -0.207788 0.51374 
724 1 11.552 9.13528 16.0919 -7.77936 -0.00470924 -0.905215 -1.29485 
1001 1 3.72248 1.1197 0.441809 -7.97901 0.671062 0.236213 0.537005 
1002 1 3.65535 0.936341 5.55753 -7.17703 0.702472 0.706273 0.957705 
1003 1 3.52222 1.14698 10.9336 -8.00591 0.548359 -0.785661 0.30622 
1004 1 3.64174 0.767428 16.0347 -7.10131 -0.278349 0.17558 0.980196 
1021 1 3.68205 6.31912 0.519175 -7.62839 -0.259994 -0.348381 -0.517635 
1022 1 3.68967 6.28227 5.77844 -7.9385 0.235836 0.411054 -0.461448 
1023 1 3.67333 6.31749 10.9625 -7.9593 1.059 -0.487779 -0.352546 
1024 1 3.59528 6.19041 16.1558 -7.82405 0.209783 -1.12802 -0.762851 
1041 1 3.64743 11.4812 0.436425 -7.07497 1.23945 0.716271 0.103589 
1042 1 3.88641 11.7815 5.52967 -7.64629 0.55684 -1.10386 1.02854 
1043 1 3.85746 11.5623 10.9807 -8.0672 -0.343983 -0.539974 -0.224325 
1044 1 3.61865 11.4319 16.1805 -7.31512 -0.62966 0.603621 1.07329 
1101 1 9.05756 1.06875 0.510459 -7.20664 -0.845538 -0.382492 0.19405 
1102 1 9.02533 0.895429 5.74245 -7.50581 -0.715681 0.559606 -1.7161 
1103 1 8.95238 1.16598 10.8314 -7.28464 -0.500888 -0.534508 0.628598 
1104 1 8.84628 1.12151 16.3171 -7.89488 -1.06358 -1.43522 0.219142 
1121 1 8.91144 6.22391 0.370377 -7.97424 1.43779 0.345129 -0.260541 
1122 1 9.17674 6.26067 5.64441 -8.18603 -0.801436 -0.404961 -0.573358 
1123 1 9.03236 6.18149 10.6593 -7.45986 0.129209 0.7914 0.857621 
1124 1 8.84917 6.2719 16.1163 -8.05282 0.431823 0.270304 -0.414991 
1141 1 8.93278 11.4484 0.450831 -8.29223 0.857072 0.666472 0.0255071 
1142 1 9.18921 11.4268 5.6835 -7.42386 0.0709183 -0.494272 -0.735825 
1143 1 9.22618 11.3278 10.8854 -8.34867 -1.18057 1.2746 0.608469 
1144 1 8.83521 11.3809 16.0462 -7.83552 0.330212 0.947146 0.458397 
1501 1 3.83229 3.69645 3.04407 -7.8139 -1.69666 -0.0812345 0.398786 
1502 1 3.65105 3.75021 8.41917 -8.07311 -0.397999 0.00229082 0.394985 
1503 1 3.53764 3.79348 13.5715 -7.79049 1.69249 0.286236 -0.749122 
1521 1 3.79814 8.96436 3.03659 -7.48698 -1.01123 0.587209 0.964951 
1522 1 3.80573 9.15908 8.32183 -7.68124 -0.0577408 0.0685243 1.28022 
1523 1 3.58549 9.02598 13.6211 -7.90269 0.741442 -0.886078 -0.327278 
1601 1 9.01749 3.83989 3.1306 -7.57071 -1.13157 -0.661931 0.429573 
1602 1 9.05836 3.85544 8.30056 -8.21596 -0.4008 -0.262202 -0.142889 
1603 1 8.81099 3.69984 13.5886 -7.17536 1.12021 0.258112 -0.950585 
1621 1 8.97407 8.85365 3.03012 -7.46177 0.895273 1.40319 -0.0989319 
1622 1 9.0275 9.09035 8.26564 -8.04516 -0.0648662 0.268548 0.0795418 
1623 1 8.92762 9.06404 13.4168 -8.52832 0.232489 0.173892 0.511414 
2001 1 3.72221 3.68633 0.351678 -8.16861 -0.574592 -0.528378 1.12289 
2002 1 3.61683 3.55943 5.80681 -7.4869 0.484421 0.0341475 -0.51172 
2003 1 3.55325 3.67257 11.0209 -7.83792 0.347595 0.835122 -0.120165 
2004 1 3.74136 3.39337 16.03 -7.17355 0.773397 0.757232 0.0762071 
2021 1 3.51345 8.95592 0.434428 -7.19837 0.229405 -0.224073 0.133363 
2022 1 3.69925 9.12535 5.76454 -8.20126 -0.932166 -0.858651 -0.339507 
2023 1 3.57655 8.83791 11.0426 -7.9384 1.01751 0.510034 -0.882932 
2024 1 3.54021 8.76228 16.1436 -7.40052 0.162837 0.493437 0.587194 
2101 1 8.98115 3.62912 0.620009 -7.15765 -0.539795 0.264227 -0.717082 
2102 1 8.94741 3.62539 5.69832 -8.02727 -0.0180023 -0.31998 0.524468 
2103 1 8.8613 3.68185 10.9744 -7.65419 1.38619 0.0347334 -0.846403 
2104 1 8.90312 3.66436 16.0542 -7.32666 -0.707625 -0.10263 1.53215 
2121 1 8.86046 8.8703 0.446157 -7.86811 -0.931529 -0.188957 -1.04513 
2122 1 8.9336 8.89872 5.6006 -7.44906 -0.737886 -0.685252 0.115785 
2123 1 8.79862 8.76359 10.8641 -7.84499 0.307065 0.26624 0.0570658 
2124 1 9.06243 8.89429 16.1241 -7.89687 -1.12724 -0.933294 -0.85726 
2501 1 3.73268 1.07032 3.06803 -7.69599 -0.601301 0.0108759 -1.03108 
2502 1 3.71636 1.01283 8.23854 -7.9097 -0.250415 1.44378 -0.0916226 
2503 1 3.7358 1.18938 13.5532 -7.94452 -0.423529 -0.322925 -1.16574 
2521 1 3.53015 6.30906 3.15216 -7.759 0.886297 0.202787 0.288342 
2522 1 3.43043 6.51417 8.37709 -7.75601 0.980981 -0.559535 0.0580867 
2523 1 3.62867 6.31042 13.4884 -7.81885 0.673412 1.44422 0.770761 
2541 1 3.40625 11.687 3.03455 -7.57071 0.975583 0.231702 -0.44741 
2542 1 3.75508 11.7747 8.35962 -7.57817 -0.730512 -0.8516 -1.24058 
2543 1 3.69179 11.644 13.5597 -7.96507 -0.524614 1.1354 0.0617229 
2601 1 9.06878 1.19764 3.13167 -8.16297 -0.383907 -0.42542 0.158595 
2602 1 9.03517 1.1998 8.19956 -7.34136 0.736858 1.42411 0.704978 
2603 1 8.9141 1.18109 13.5973 -7.6774 0.046005 -0.563334 0.114386 
2621 1 8.7554 6.33521 3.02406 -7.57194 1.10551 -0.151948 -0.287114 
2622 1 8.71221 6.47929 8.16361 -7.61417 0.435597 -0.29932 -0.434662 
2623 1 9.02653 6.29917 13.3584 -8.29248 -0.189556 1.94784 0.438403 
2641 1 8.84493 11.5972 3.11976 -8.2553 1.53491 -1.47854 -0.967278 
2642 1 8.86656 11.7363 8.22947 -8.11868 -1.60365 -0.691383 1.96323 
2643 1 9.02485 11.8014 13.4848 -7.86425 -0.74081 -1.14881 -0.813047 
3001 1 1.0249 3.7153 3.04128 -7.82757 -0.00624107 -1.35492 0.0843983 
3002 1 0.869091 3.56003 8.39993 -8.073 0.763179 -0.907299 -0.59381 
3003 1 1.06127 3.48961 13.6046 -7.39359 -1.39381 1.16079 -0.51108 
3021 1 1.15347 8.9693 3.26983 -7.85379 -1.61991 1.09594 -3.41936 
3022 1 1.24561 8.72117 8.22899 -7.54781 0.118565 -0.0595219 -0.156131 
3023 1 0.983378 8.78135 13.6005 -8.19598 -0.476009 0.000770946 -0.325456 
3101 1 6.28988 3.61 2.98651 -7.94862 1.67541 0.801457 0.339799 
3102 1 6.30592 3.70482 8.28517 -7.97209 -0.138065 0.0239366 -0.409432 
3103 1 6.21232 3.81252 13.4762 -7.53661 -1.04227 -1.21932 1.52039 
3121 1 6.41737 8.87099 2.99625 -7.12096 0.739899 0.42568 2.09578 
3122 1 6.38785 8.91935 8.39431 -7.86879 0.52347 -0.36633 0.179749 
3123 1 6.25106 8.88454 13.5813 -7.95864 -0.000230269 1.12554 0.610366 
3201 1 11.5624 3.6631 3.27298 -7.16746 0.062686 0.542277 -1.43474 
3202 1 11.6456 3.70039 8.28057 -8.4681 0.636729 -1.12606 0.782642 
3203 1 11.7239 3.63424 13.4751 -7.46124 -1.22962 0.840015 0.932659 
3221 1 11.5939 8.78638 3.03792 -7.47367 0.509999 0.48132 0.73444 
3222 1 11.6715 8.82352 8.32857 -8.0683 -0.642398 -0.128352 0.446982 
3223 1 11.5702 8.82349 13.4288 -7.90996 -0.0464305 -1.07056 0.46928 
3501 1 0.979083 0.902448 0.364144 -7.76949 1.01276 1.16899 -0.558348 
3502 1 1.17532 1.24002 5.46087 -7.42022 -1.19581 -0.578999 1.24453 
3503 1 0.995354 1.1678 10.6137 -7.48326 0.229513 -0.0693944 0.719794 
3504 1 1.1053 1.16659 15.8875 -7.70726 -0.14203 0.636703 0.434954 
3521 1 1.0745 6.28774 0.501743 -7.88333 -1.06397 -0.432829 0.882356 
3522 1 0.943458 6.44927 5.83469 -7.86276 0.485021 0.338335 0.0318751 
3523 1 1.0424 6.27082 11.0095 -7.65645 0.191912 1.58309 -0.226794 
3524 1 0.966554 6.56971 16.1743 -7.67349 -0.579515 -0.271924 -0.361616 
3541 1 1.18835 11.4533 0.426682 -7.81866 -1.52347 0.340632 -0.0379105 
3542 1 1.2851 11.6895 5.92296 -7.91616 0.58667 1.08323 -1.0253 
3543 1 1.02295 11.5546 10.9389 -8.02256 0.597091 -0.295472 0.537601 
3544 1 1.16831 11.6918 16.3134 -7.37063 -0.900854 1.39071 -0.199605 
3601 1 6.44073 1.05362 0.54013 -8.35235 -0.52532 0.609617 -0.766652 
3602 1 6.23694 1.18226 5.72251 -7.77203 0.990366 0.37613 -1.0961 
3603 1 6.18496 1.19443 10.8386 -7.73931 0.101843 0.041785 1.12209 
3604 1 6.1387 1.19933 16.019 -7.46836 1.05528 -0.105402 0.422985 
3621 1 6.31128 6.36047 0.477668 -7.15879 0.512375 -0.810593 0.0671556 
3622 1 6.4644 6.40597 5.67461 -7.33525 0.132754 0.392735 0.318749 
3623 1 6.4068 6.43278 10.7427 -8.10988 -0.833336 0.47507 1.54701 
3624 1 6.21494 6.30392 16.2372 -7.80777 1.11093 -0.220077 -1.41138 
3641 1 6.33052 11.6138 0.377997 -7.35621 0.0498739 -1.15563 -1.25977 
3642 1 6.60679 11.5987 5.69016 -7.75571 -0.581563 0.0541986 -1.12212 
3643 1 6.55192 11.5601 10.7264 -8.16149 0.349502 0.306138 1.40478 
3644 1 6.16026 11.7487 16.1733 -7.5626 1.01012 0.47813 -0.227195 
3701 1 11.6313 0.919225 0.394174 -7.13969 0.508789 0.00216814 -1.1164 
3702 1 11.571 1.4196 5.62556 -8.31711 0.424782 -0.750213 -0.706484 
3703 1 11.5104 1.23679 10.921 -7.90061 0.977547 -0.276821 -0.623609 
3704 1 11.4043 1.35958 16.1228 -7.46165 1.33852 -2.66198 0.0462641 
3721 1 11.7185 6.20339 0.643261 -8.29222 -0.149904 0.0283543 -0.303707 
3722 1 11.9276 6.50875 5.8533 -7.38108 -0.393052 0.744581 -0.950973 
3723 1 11.5914 6.51614 10.9336 -8.17036 0.771572 -0.0140954 -0.405698 
3724 1 11.5382 6.48879 16.135 -8.50349 -1.02285 -0.704144 0.211279 
3741 1 11.657 11.5554 0.510626 -8.6157 -1.60717 -0.414487 -0.379118 
3742 1 11.8054 11.5184 5.74036 -7.8134 0.172281 1.93774 -1.27544 
3743 1 11.7906 11.7484 11.0176 -7.9501 -0.463928 -0.507562 1.07662 
3744 1 11.5655 11.7817 16.1425 -7.77886 -0.385258 -0.242451 0.371201 
4204 3 10.1956 -0.127145 14.9619 -25.3229 0.657582 -0.545653 -0.135296 
5001 3 2.32034 -0.223748 1.721 -25.4415 0.70148 -0.738577 1.72786 
5624 3 7.68234 7.70279 14.7189 -24.6375 -0.374062 -1.20608 1.62602 
5203 3 12.8089 -0.25214 12.3162 -25.1481 0.678974 0.457075 -0.331561 
5623 2 7.6553 7.66573 9.53814 -29.3016 -0.222005 -0.377497 -0.052508 
5622 2 7.72728 7.56358 4.29477 -29.6074 -0.779006 0.958734 0.586975 
5642 2 7.81374 12.8586 4.28306 -29.0957 -1.88305 -0.297598 1.12519 
4202 2 10.3628 -0.185706 4.45222 -28.861 -1.05941 0.377572 -0.577844 
4103 3 4.95746 -0.186173 9.62275 -25.4596 0.613521 -0.450201 -0.37939 
5142 2 7.68319 10.305 6.96678 -29.4843 0.274472 -0.391468 -0.00152581 
5604 2 7.5148 2.28793 14.8783 -29.4768 0.880407 1.81588 -0.118839 
5603 3 7.56025 2.5041 9.54465 -25.3882 1.48062 -1.3207 0.958125 
5141 2 7.6215 10.2749 1.69342 -29.5479 -0.72189 -1.29359 0.218623 
4101 2 5.12515 -0.216081 -0.692695 -28.9231 -1.06071 -0.21366 -1.30306 
5101 2 7.70082 -0.217546 1.81471 -28.9153 0.469033 0.379516 -0.590919 
5724 2 12.7596 7.62605 14.8432 -28.7963 1.18571 1.06037 -0.517555 
5123 3 7.62787 5.07963 12.1492 -25.5307 -0.709161 -0.544627 0.510008 
4122 2 5.01124 5.06822 4.35362 -29.2099 -0.353049 -0.6465 1.0618 
4123 2 5.00809 5.11503 9.68636 -28.9765 -0.746318 -0.512743 -0.772607 
4124 2 4.9867 4.94528 14.8811 -29.181 -0.236424 0.269545 -0.0593288 
4203 3 10.3972 -0.126961 9.49999 -25.4691 -1.61601 -0.328742 0.113095 
4142 3 5.12965 10.2376 4.40796 -25.2484 -1.09455 1.464 -1.81823 
4143 2 5.06688 10.3537 9.72508 -29.2211 -0.202096 -0.684309 -1.16477 
4144 3 4.96417 10.3639 14.9126 -25.4183 0.400967 -1.59478 -0.355714 
4642 2 5.14354 12.8151 6.92929 -29.8286 -0.717003 1.2183 0.565025 
5723 2 12.8138 7.68504 9.6419 -29.1118 1.26054 -0.193404 -0.44948 
5121 2 7.62898 4.95304 1.84387 -29.5437 -0.0412477 0.497925 -1.27273 
5503 2 2.3476 2.48732 9.70209 -29.0987 -0.687607 -0.341106 -0.536587 
5502 2 2.4598 2.34778 4.34913 -29.5061 -0.289075 0.51983 0.0990419 
4222 2 10.2554 5.08691 4.44506 -29.4614 0.890019 -1.48667 -0.885614 
4223 2 10.2889 4.99186 9.524 -28.8859 -0.182046 0.402178 1.18774 
4224 3 10.2242 4.97063 14.8237 -25.0988 0.0138494 -0.359396 -0.786511 
4042 2 -0.186282 10.3107 4.49411 -29.266 -0.79292 0.512383 -0.53627 
4242 2 10.2236 10.1863 4.31238 -29.2786 0.479548 -0.691594 0.20015 
4243 2 10.2033 10.2237 9.6275 -28.7737 0.991775 -0.380841 -0.921101 
4244 2 10.1941 10.2825 14.7738 -29.1684 0.64014 0.23574 0.414721 
5524 2 2.36273 7.66301 14.7637 -29.1342 -0.323168 -0.781412 1.44872 
5523 2 2.37569 7.672 9.67278 -29.2164 -0.756221 -0.104576 0.184531 
5122 2 7.66456 4.91509 6.96865 -29.2793 -0.846893 1.39467 -0.17673 
5522 3 2.29678 7.68957 4.48477 -25.2198 1.32199 -1.00973 0.588055 
4522 2 -0.206007 7.60232 7.10943 -29.2995 -0.581372 1.07697 -0.00142267 
5602 3 7.64017 2.35532 4.34691 -24.9041 0.125515 1.02818 1.44167 
4601 2 5.0956 2.34543 1.77856 -28.8726 -0.742379 0.433125 -0.0634615 
4602 2 4.98813 2.36391 7.06536 -29.2931 -0.523068 0.557092 -1.05347 
4603 2 4.85156 2.47402 12.2905 -29.1044 1.26413 0.0234557 -0.642269 
4621 3 5.01386 7.60446 1.77043 -25.9063 -0.749661 -0.211678 0.746749 
4622 3 4.99375 7.71321 7.04277 -25.4918 0.530929 -0.620768 -0.143452 
4623 2 5.00095 7.68381 12.2746 -28.9254 -0.268973 -0.117047 -0.282915 
4701 2 10.2612 2.4039 1.86219 -30.0276 0.54935 -0.335097 -0.537377 
4702 2 10.558 2.56735 7.00827 -28.6608 -2.47852 -0.948459 -0.89962 
4703 2 10.2987 2.53819 12.1606 -29.5806 -0.41777 -0.496555 0.942075 
4721 2 10.2284 7.52461 1.66876 -29.3236 -0.351459 0.226738 1.56946 
4722 3 10.2655 7.6226 6.94843 -25.4165 0.198498 0.681457 0.830626 
4723 2 10.3556 7.65778 12.1323 -28.825 -1.06367 0.0774594 -0.108186 
5143 2 7.69893 10.318 12.1607 -28.7039 -0.395688 -0.511682 -0.0700648 
5504 2 2.4821 2.44601 14.676 -29.6583 -0.91303 -1.30464 1.65933 
5103 3 7.65274 -0.135774 12.2975 -25.5345 0.022978 -0.0120504 -1.64279 
5021 3 2.31972 5.00262 1.80735 -25.1692 0.326249 -0.602933 -0.0013661 
5022 3 2.23508 4.99985 7.08274 -25.509 1.43457 -0.569619 -0.0913864 
5023 2 2.41121 5.14704 12.291 -29.3091 -0.920928 -1.65737 -0.895585 
5041 2 2.22324 10.2112 1.74105 -29.3403 2.09069 0.737692 0.864099 
5042 2 2.41237 10.3081 7.07563 -29.1707 0.217851 -0.229029 -0.125249 
5043 3 2.36755 10.2595 12.2569 -25.0671 -0.631313 0.314183 0.0785174 
5704 2 12.8241 2.3609 14.8822 -29.5515 0.700266 0.839458 -0.597351 
5003 2 2.34967 -0.17052 12.1966 -28.9008 0.798328 -0.20885 -0.0209167 
5102 2 7.70947 -0.132203 6.99544 -29.7811 0.459536 -0.542 0.321452 
5241 2 12.852 10.2471 1.71234 -28.9436 0.218988 -1.17948 1.01518 
5002 2 2.42344 -0.213545 6.81004 -29.362 0.372945 -0.216395 0.483684 
5643 2 7.53394 12.8494 9.58942 -28.5256 0.121542 0.927511 -1.0336 
4104 2 4.99177 -0.259756 14.8271 -29.6033 -0.370551 0.592944 -0.382151 
4742 3 10.3465 12.7464 7.04356 -25.3284 0.00135524 1.70503 -0.577027 
4741 2 10.3164 12.6819 1.78482 -28.8129 -0.691429 1.79663 0.0751989 
4542 2 -0.110236 12.8613 7.01764 -29.0386 -0.621643 0.503401 -0.100338 
4004 2 -0.200083 -0.148466 14.7861 -29.4921 -0.037882 -0.636472 0.105168 
5521 2 2.35504 7.66076 -0.672659 -29.5487 0.245949 -0.87099 -1.32971 
4221 3 10.3381 4.87861 -0.774165 -25.1829 -1.67942 -0.60724 -0.589004 
4 1 0.992455 0.78298 18.5421 -7.80867 1.51344 0.906035 0.0344128 
5 1 1.09997 0.842276 23.8827 -8.19319 0.628283 -0.0650059 -0.625051 
6 1 1.21389 0.999209 29.0862 -7.70243 0.441945 0.23295 -0.122084 
24 1 1.00221 6.12335 18.786 -7.31411 0.68974 0.555224 0.128186 
25 1 1.08865 6.08616 24.0844 -7.71062 1.72304 0.784435 0.802312 
26 1 1.29112 6.25612 29.4907 -7.40299 -0.037679 -0.37844 -1.68756 
44 1 1.17044 11.3811 18.8701 -7.92925 -1.64467 0.1058 1.12719 
45 1 1.02851 11.4833 24.1004 -8.20594 -0.234255 -0.0703636 1.42291 
46 1 1.30491 11.2722 29.2383 -7.12217 -1.24514 0.61463 1.7614 
104 1 6.40016 0.895108 18.5585 -7.41992 -0.0686933 -0.0967154 1.11312 
105 1 6.46235 0.903227 24.0795 -8.39396 -0.546657 -0.938189 -0.22549 
106 1 6.30445 0.931821 29.185 -7.66958 0.463921 -1.51036 0.218735 
124 1 6.47084 6.17874 18.9062 -7.60692 -1.3122 -0.840983 -1.11493 
125 1 6.33634 6.14269 24.0209 -8.25116 0.0797565 1.41902 -1.27291 
126 1 6.5092 6.17481 29.2067 -7.9558 -1.0879 -0.580706 -0.26044 
144 1 6.31644 11.4226 18.8056 -7.01943 -0.894621 0.0439453 -0.198573 
145 1 6.26103 11.416 24.0405 -7.98228 1.54738 0.384512 -0.44214 
146 1 6.41425 11.3681 29.2246 -7.74294 -0.290423 0.153609 1.068 
204 1 11.6658 1.04903 18.7155 -7.31056 -0.208051 -1.105 -0.608357 
205 1 11.6106 0.9021 23.9196 -8.17619 -1.39664 -0.000409689 0.330949 
206 1 11.4871 0.960681 29.2102 -8.31964 -0.642953 0.512718 0.803386 
224 1 11.5451 6.25571 18.8468 -8.15652 0.943204 -0.805905 -2.81117 
225 1 11.537 6.10645 23.8289 -7.70799 0.815308 0.237105 1.0081 
226 1 11.685 6.16807 29.0442 -7.68541 0.290045 1.01645 1.155 
244 1 11.4215 11.3688 18.7549 -7.79893 -0.380794 1.57534 0.152257 
245 1 11.6676 11.6362 23.917 -7.68088 0.28701 -0.453548 0.454793 
246 1 11.5361 11.6057 29.2122 -8.17282 1.20642 -0.330035 0.532206 
505 1 1.14591 3.95041 21.5424 -7.63744 0.899775 -0.444494 0.250417 
506 1 1.1447 3.94338 26.876 -8.11304 1.04095 0.626386 -1.16507 
507 1 0.951886 3.68652 31.9885 -7.46166 1.18064 0.526437 0.661118 
525 1 0.947182 9.13991 21.477 -8.07372 0.893256 1.25413 -1.58069 
526 1 1.37432 9.34046 26.5429 -8.03045 -2.2811 -0.828972 -1.00826 
527 1 1.23848 8.92101 31.9093 -7.83979 -0.386991 0.164958 -1.42216 
605 1 6.47252 3.75186 21.5703 -7.85502 0.37159 -0.601992 0.0737181 
606 1 6.36617 3.84511 26.6635 -7.30206 0.663781 0.779485 2.00868 
607 1 6.4044 3.73171 31.9098 -7.46876 0.877761 0.159507 -0.0496016 
625 1 6.27647 8.86562 21.5556 -7.98191 -0.0814507 1.4595 0.0794049 
626 1 6.24526 9.16587 26.8301 -7.18982 0.805697 -1.52637 0.514463 
627 1 6.38828 8.848 31.9507 -7.16009 0.299532 1.68777 0.143904 
705 1 11.7517 3.74964 21.4832 -7.49339 0.0872047 -0.365534 -0.034541 
706 1 11.5139 3.72628 26.7684 -7.49055 -0.13737 0.120629 -1.6701 
707 1 11.512 3.83587 31.9604 -7.87347 1.26853 -0.185933 -0.771659 
725 1 11.5435 9.15374 21.2848 -7.51463 -0.20195 -0.434277 0.29683 
726 1 11.4411 8.8647 26.5836 -8.13021 0.640709 1.37333 -0.0437453 
727 1 11.6887 8.99489 32.0161 -8.18087 -0.54105 1.06046 -0.869857 
1005 1 3.66196 1.01739 21.4896 -8.04574 -1.16778 -0.768667 0.397024 
1006 1 3.75909 0.857018 26.7399 -8.13426 -0.963985 0.000540967 -0.582459 
1007 1 3.59151 1.03777 31.9293 -8.05104 1.30399 -0.420017 -0.71036 
1025 1 3.78812 6.20861 21.5128 -8.21272 -1.29655 0.670508 0.73041 
1026 1 3.58389 6.05897 26.7007 -7.70381 0.167365 0.596484 -1.00179 
1027 1 3.65271 6.27421 31.7024 -7.47444 0.605102 0.358139 -0.748403 
1045 1 3.71453 11.5482 21.4732 -7.32094 0.723453 -0.363158 0.0176797 
1046 1 3.84522 11.2665 26.806 -6.78155 0.11049 0.514863 -0.757144 
1047 1 3.55104 11.619 31.8549 -7.82289 0.378622 -0.479988 0.595091 
1105 1 8.74144 0.933802 21.5334 -7.72005 0.449714 0.285045 0.738506 
1106 1 8.95207 0.801265 26.7851 -7.84788 0.332842 -0.83842 -1.28527 
1107 1 8.81712 0.87924 31.8841 -7.55312 -0.388209 0.254529 -0.750411 
1125 1 8.84701 6.22808 21.3947 -7.53836 0.748488 0.549852 0.132956 
1126 1 8.97755 6.07945 26.8105 -7.79238 -0.517706 -0.354016 -1.24123 
1127 1 9.00907 6.30056 31.7312 -7.21763 -0.58086 -0.940064 1.63197 
1145 1 8.88034 11.5941 21.2987 -7.48747 1.41004 -0.544308 0.367127 
1146 1 8.87379 11.3224 26.5105 -7.66577 -0.00622887 0.0437583 -0.193607 
1147 1 8.90587 11.6514 31.9591 -7.79847 -0.412468 -0.91513 -2.25582 
1504 1 3.76499 3.66016 18.568 -7.67035 -1.03467 1.61687 1.29236 
1505 1 3.68787 3.92472 23.8525 -8.11768 -0.60775 -0.586729 0.159367 
1506 1 3.72143 3.77786 29.2548 -8.06697 0.127592 1.01237 -0.972559 
1524 1 3.63024 8.93932 18.8208 -8.17083 0.604788 1.37583 -0.19853 
1525 1 3.79338 9.12149 24.186 -8.06305 -0.68383 0.0448666 -0.512084 
1526 1 3.66466 9.06034 29.281 -7.7629 -0.333936 -0.00541152 0.502392 
1604 1 9.09042 3.99568 18.6694 -7.57702 -0.463219 -0.509447 -0.77228 
1605 1 8.91535 3.90125 23.8143 -7.35348 -0.362036 -2.05968 0.724735 
1606 1 8.87969 3.91115 29.2528 -7.18525 -0.435651 -0.106798 -1.15417 
1624 1 8.8936 9.05988 18.6961 -7.71611 1.6266 0.515157 0.672924 
1625 1 8.96077 8.87382 24.0996 -7.83928 0.672247 0.518143 -0.48916 
1626 1 8.95789 9.10925 29.2701 -7.28376 -0.228652 0.413275 -0.534066 
2005 1 3.93079 3.5223 21.333 -7.64092 -1.90915 -0.795355 0.363204 
2006 1 3.86606 3.49347 26.4775 -7.85049 -1.06137 -0.706025 0.702335 
2007 1 3.85526 3.71367 31.871 -7.56133 -1.20654 -0.178452 -0.70603 
2025 1 3.62423 8.86308 21.5666 -8.31022 0.643526 0.146484 0.180433 
2026 1 3.81627 8.73727 26.7532 -7.17124 -0.981939 -1.67533 -0.89318 
2027 1 3.90243 8.89108 31.8804 -7.83687 -2.15434 -0.207727 0.977403 
2105 1 9.14978 3.64982 21.2341 -7.34934 -0.460527 -1.57616 0.0397785 
2106 1 8.97458 3.43301 26.4926 -7.9368 -0.681142 0.386435 -0.700486 
2107 1 9.03885 3.57343 31.7512 -7.5604 -0.627901 -0.308475 0.398392 
2125 1 8.92103 8.94497 21.3173 -8.02049 0.178926 -0.686304 0.194749 
2126 1 8.80093 8.69376 26.6857 -7.40224 0.397353 -0.279851 0.0443924 
2127 1 8.91728 8.97497 31.8939 -7.22765 1.81012 -0.189356 -0.809179 
2504 1 3.70551 1.17613 18.7477 -7.76192 -0.221552 -0.566396 0.111895 
2505 1 3.82818 1.20662 24.1007 -8.38017 -0.545781 0.579322 0.809863 
2506 1 3.85804 1.22959 29.3067 -7.44115 -0.917809 -0.866485 0.292673 
2524 1 3.68791 6.31597 18.7612 -8.06026 0.0187978 -0.472557 1.16389 
2525 1 3.69372 6.58696 24.1799 -8.61357 -0.241893 -0.378677 -1.06536 
2526 1 3.93087 6.45105 29.1165 -7.71618 -0.309279 -0.447065 1.15811 
2544 1 3.689 11.7624 18.8551 -7.41823 0.244673 -0.235185 -0.188776 
2545 1 3.77356 11.829 24.1302 -7.5689 -1.14868 -0.647318 0.0587252 
2546 1 3.79134 11.7742 29.3308 -7.70249 1.61093 0.444874 -0.342228 
2604 1 9.06061 1.27561 19.0255 -7.38025 0.124213 0.952835 -0.669089 
2605 1 9.02457 1.25947 24.1222 -8.21099 0.276384 -0.134117 0.254104 
2606 1 8.80121 1.33242 29.256 -7.85412 0.0875172 -2.11872 1.74341 
2624 1 8.97888 6.57682 18.7119 -7.30128 0.349623 -0.586248 0.374461 
2625 1 8.91886 6.31278 24.1073 -7.66708 0.0773031 0.459099 0.648103 
2626 1 9.072 6.46213 29.312 -7.13864 0.241848 0.51474 -0.812627 
2644 1 8.74642 11.7264 18.698 -7.56036 2.12312 -0.190736 -0.30446 
2645 1 9.14694 11.4723 23.8841 -8.17935 -1.30845 0.99766 0.590715 
2646 1 8.97615 11.9039 29.0819 -7.41256 -0.264279 -0.646925 1.31643 
3004 1 0.939601 3.64312 18.9866 -8.1769 1.36958 -1.18233 -1.12354 
3005 1 1.03954 3.54363 24.1777 -7.86843 0.43735 -0.588644 0.948037 
3006 1 1.04914 3.70151 29.4748 -7.55884 -1.12143 0.371284 -1.45525 
3024 1 0.997565 8.73371 18.8168 -7.83053 -0.477192 0.960179 0.53993 
3025 1 1.03979 8.71936 23.9189 -8.1617 1.43797 0.443285 2.45224 
3026 1 0.945366 8.77565 29.1792 -7.80183 0.134453 -0.17736 0.0103409 
3104 1 6.41619 3.44814 18.8885 -7.69609 0.261732 0.761656 0.498084 
3105 1 6.31152 3.50664 24.2367 -7.94119 -0.362229 -0.464246 -2.43871 
3106 1 6.32427 3.51727 29.3747 -7.90495 -0.388719 0.724658 -0.936307 
3124 1 6.34491 8.83028 18.8425 -7.64881 -0.284413 -0.567381 0.941177 
3125 1 6.45551 8.81142 24.2458 -7.81251 -1.16207 -0.389208 -0.836147 
3126 1 6.39258 8.72787 29.48 -7.17495 -1.34031 0.30716 -1.81233 
3204 1 11.6248 3.53341 18.9441 -7.60635 0.256462 1.64216 -1.11619 
3205 1 11.4542 3.4588 24.0276 -7.63895 0.322987 -0.244089 1.16741 
3206 1 11.4205 3.66039 29.2694 -7.7932 1.16684 -1.20757 1.7845 
3224 1 11.6614 8.8623 18.6696 -7.82675 -1.96074 -0.761325 -0.500619 
3225 1 11.5913 8.93435 23.8948 -7.6978 -0.233637 -0.115779 0.810866 
3226 1 11.5123 8.87412 29.233 -8.34459 0.28196 0.309007 -0.363693 
3505 1 0.889419 1.16471 21.183 -7.65681 0.852394 1.12586 0.946784 
3506 1 1.05735 1.29364 26.404 -7.57348 1.78825 0.536034 0.173618 
3507 1 1.02344 1.0792 31.7364 -7.55923 0.133682 -0.364578 0.975113 
3525 1 1.14695 6.60527 21.4647 -8.22129 -0.7966 -1.56528 0.577123 
3526 1 1.06529 6.59764 26.7747 -8.15164 1.13613 0.315828 -0.722807 
3527 1 0.946673 6.36587 31.9427 -7.39301 -0.649032 -0.300967 1.03386 
3545 1 1.19381 11.8531 21.5617 -7.81422 -0.27003 -0.485642 -1.52328 
3546 1 1.37895 11.9873 26.8347 -7.69121 -1.00568 -0.144045 -2.01451 
3547 1 0.933066 11.6259 31.9602 -7.83265 0.202958 -0.453479 -0.738535 
3605 1 6.26376 1.12152 21.4711 -7.85317 -0.263842 -0.0307164 -0.983095 
3606 1 6.33817 1.24319 26.6384 -7.43686 0.0580842 0.515629 -0.468072 
3607 1 6.2297 1.0919 31.7507 -7.98833 -0.122865 -0.539432 0.490971 
3625 1 6.34505 6.40863 21.439 -6.96774 -0.890095 -0.88543 0.708331 
3626 1 6.24699 6.49207 26.535 -8.0322 0.373437 0.294556 0.74204 
3627 1 6.51368 6.3451 31.7967 -7.56703 -1.85439 -1.33057 0.522664 
3645 1 6.36826 11.6804 21.403 -7.57687 -0.513641 -0.984392 0.775686 
3646 1 6.32539 11.616 26.6218 -7.65638 0.487352 2.15146 0.251116 
3647 1 6.14474 11.6946 31.9578 -8.49265 1.11208 -0.0671439 -0.432272 
3705 1 11.2475 1.17887 21.2556 -8.06906 1.37441 -0.268853 0.591881 
3706 1 11.6101 1.22972 26.539 -8.49667 -1.41711 -1.62917 -0.285559 
3707 1 11.3597 1.20254 31.8375 -8.1836 1.2028 -0.271899 -0.766802 
3725 1 11.5092 6.41267 21.2402 -7.62924 0.0160767 -0.184034 1.5006 
3726 1 11.5882 6.27199 26.5275 -7.5097 -0.59856 0.0231407 -1.11898 
3727 1 11.4157 6.45165 31.6678 -7.76641 1.50632 -0.553828 0.234344 
3745 1 11.5115 11.7683 21.348 -8.04284 0.876332 0.261104 -0.0126232 
3746 1 11.4465 11.7825 26.576 -7.47243 0.48621 -2.35384 -0.176932 
3747 1 11.5029 11.7432 31.8996 -8.20077 1.00237 -0.7383 -0.718432 
5627 2 7.65359 7.52683 30.5352 -30.2481 1.19899 1.14718 0.468292 
5626 2 7.70472 7.50918 25.2748 -29.1734 -0.195917 0.42591 1.6055 
5625 2 7.56719 7.60033 20.0785 -29.7043 0.806446 -0.593437 0.513151 
5607 2 7.59609 2.24535 30.5633 -29.5143 -0.215094 1.65958 0.753289 
5606 2 7.61655 2.32669 25.2514 -29.2111 0.225578 0.289122 1.74388 
5006 2 2.42877 -0.251931 27.9436 -29.1945 0.723086 -0.0233637 -0.137997 
5605 2 7.71259 2.34292 20.1981 -29.3382 -0.0438585 0.246206 -0.517721 
5527 2 2.41952 7.6535 30.5332 -29.5246 0.0623942 -0.28515 0.424587 
5526 2 2.42046 7.61673 25.4305 -28.7064 -0.247624 1.06178 0.669215 
4526 2 -0.18876 7.58965 27.9024 -28.6945 -0.0268081 0.882362 1.0445 
4544 2 -0.155678 12.8358 17.5179 -29.1549 -0.565046 0.00999558 -0.161259 
4205 2 10.3077 -0.174389 20.0239 -29.5266 -1.02201 -0.34408 0.242456 
4125 3 4.97023 4.93189 20.1926 -25.2058 3.10103 0.809706 -2.17206 
4126 3 4.98147 5.03636 25.2097 -25.0297 0.0166752 -1.25574 3.43295 
4127 2 5.12387 4.97319 30.5423 -29.2458 -0.155759 0.355953 0.686541 
4145 3 5.06724 10.1618 20.1325 -25.3694 -0.879762 2.00651 0.262578 
4146 2 5.10627 10.1718 25.4293 -29.9456 -0.795223 0.884053 0.630572 
4147 3 5.04158 10.2256 30.6879 -25.2524 0.746798 0.630065 -2.76073 
5206 3 12.7449 -0.235467 27.8338 -24.8247 1.08891 -1.12648 1.88186 
5227 2 12.8561 5.06 33.164 -29.065 0.107215 -0.344589 -0.196035 
4046 2 -0.193076 10.3368 25.3397 -28.2719 0.522997 -0.433266 -0.303183 
4225 2 10.2851 5.09466 20.0543 -29.7021 -1.10821 -1.26419 0.963156 
4226 2 10.2667 4.80051 25.3585 -29.4417 -0.260159 0.846192 -0.858578 
4227 2 10.2899 5.01743 30.5505 -29.8426 -0.989406 -0.143295 -0.859557 
4245 2 10.3127 10.1723 19.9836 -29.0671 -1.19741 0.638903 0.774789 
4246 2 10.2216 10.2649 25.364 -29.0002 0.758356 -0.48989 -0.453007 
4247 3 10.3205 10.2844 30.5479 -25.0585 -1.73351 0.50018 0.86745 
5707 2 12.7001 2.34321 30.5498 -29.135 1.79692 0.562805 -0.280527 
5525 3 2.38391 7.73492 20.1724 -24.6261 -0.0018163 -1.59948 -1.60455 
5507 3 2.41315 2.45133 30.5985 -25.5727 0.129148 -0.416237 -0.230124 
5506 2 2.53032 2.42407 25.3441 -28.5536 -0.851417 4.97828e-05 -0.285568 
5505 3 2.35592 2.3487 20.1589 -24.9129 0.934064 0.838594 -0.818303 
5127 2 7.81187 4.94508 33.0551 -29.2242 -0.869804 0.490036 -0.36461 