# LAMMPS data file written by OVITO Basic 3.8.4

640 atoms
1 atom types

0.0 11.360206604 xlo xhi
0.0 17.9620628357 ylo yhi
0.0 35.9241294861 zlo zhi

Masses

1 55.845  # Fe

Atoms  # atomic

1 1 0.0 2.694309532 35.026027105
2 1 9.940179424 7.184825241 35.026027105
3 1 8.520153599 11.675340415 35.026027105
4 1 7.100126419 16.165857194 35.026027105
5 1 2.840051143 2.694309532 35.026027105
6 1 1.420024641 7.184825241 35.026027105
7 1 11.36020525 11.675340415 35.026027105
8 1 9.94017807 16.165857194 35.026027105
9 1 5.680102963 2.694309532 35.026027105
10 1 4.260076122 7.184825241 35.026027105
11 1 2.840049958 11.675340415 35.026027105
12 1 1.420023456 16.165857194 35.026027105
13 1 8.520154276 2.694309532 35.026027105
14 1 7.100127773 7.184825241 35.026027105
15 1 5.680101271 11.675340415 35.026027105
16 1 4.260075107 16.165857194 35.026027105
17 1 0.0 2.694309532 26.044994734
18 1 9.940179424 7.184825241 26.044994734
19 1 8.520153599 11.675340415 26.044994734
20 1 7.100126419 16.165857194 26.044994734
21 1 2.840051143 2.694309532 26.044994734
22 1 1.420024641 7.184825241 26.044994734
23 1 11.36020525 11.675340415 26.044994734
24 1 9.94017807 16.165857194 26.044994734
25 1 5.680102963 2.694309532 26.044994734
26 1 4.260076122 7.184825241 26.044994734
27 1 2.840049958 11.675340415 26.044994734
28 1 1.420023456 16.165857194 26.044994734
29 1 8.520154276 2.694309532 26.044994734
30 1 7.100127773 7.184825241 26.044994734
31 1 5.680101271 11.675340415 26.044994734
32 1 4.260075107 16.165857194 26.044994734
33 1 0.0 1.79620631 32.331715681
34 1 9.940180101 6.286721885 32.331715681
35 1 8.520153599 10.77723813 32.331715681
36 1 7.100126419 15.267753839 32.331715681
37 1 2.840051482 1.79620631 32.331715681
38 1 1.420025148 6.286721885 32.331715681
39 1 11.36020525 10.77723813 32.331715681
40 1 9.940178747 15.267753839 32.331715681
41 1 5.680103302 1.79620631 32.331715681
42 1 4.260076461 6.286721885 32.331715681
43 1 2.840049958 10.77723813 32.331715681
44 1 1.42002354 15.267753839 32.331715681
45 1 8.520154953 1.79620631 32.331715681
46 1 7.10012845 6.286721885 32.331715681
47 1 5.680101948 10.77723813 32.331715681
48 1 4.260075107 15.267753839 32.331715681
49 1 0.0 1.79620631 23.350683309
50 1 9.940180101 6.286721885 23.350683309
51 1 8.520153599 10.77723813 23.350683309
52 1 7.100126419 15.267753839 23.350683309
53 1 2.840051482 1.79620631 23.350683309
54 1 1.420025148 6.286721885 23.350683309
55 1 11.36020525 10.77723813 23.350683309
56 1 9.940178747 15.267753839 23.350683309
57 1 5.680103302 1.79620631 23.350683309
58 1 4.260076461 6.286721885 23.350683309
59 1 2.840049958 10.77723813 23.350683309
60 1 1.42002354 15.267753839 23.350683309
61 1 8.520154953 1.79620631 23.350683309
62 1 7.10012845 6.286721885 23.350683309
63 1 5.680101948 10.77723813 23.350683309
64 1 4.260075107 15.267753839 23.350683309
65 1 0.0 0.898103155 29.637406398
66 1 9.940180101 5.388619065 29.637406398
67 1 8.520153599 9.879134774 29.637406398
68 1 7.100127096 14.369650483 29.637406398
69 1 2.840051651 0.898103155 29.637406398
70 1 1.420024979 5.388619065 29.637406398
71 1 11.36020525 9.879134774 29.637406398
72 1 9.940178747 14.369650483 29.637406398
73 1 5.680102963 0.898103155 29.637406398
74 1 4.260076461 5.388619065 29.637406398
75 1 2.840049958 9.879134774 29.637406398
76 1 1.420023456 14.369650483 29.637406398
77 1 8.520154953 0.898103155 29.637406398
78 1 7.10012845 5.388619065 29.637406398
79 1 5.680101271 9.879134774 29.637406398
80 1 4.260075107 14.369650483 29.637406398
81 1 0.0 0.898103155 20.656374026
82 1 9.940180101 5.388619065 20.656374026
83 1 8.520153599 9.879134774 20.656374026
84 1 7.100127096 14.369650483 20.656374026
85 1 2.840051651 0.898103155 20.656374026
86 1 1.420024979 5.388619065 20.656374026
87 1 11.36020525 9.879134774 20.656374026
88 1 9.940178747 14.369650483 20.656374026
89 1 5.680102963 0.898103155 20.656374026
90 1 4.260076461 5.388619065 20.656374026
91 1 2.840049958 9.879134774 20.656374026
92 1 1.420023456 14.369650483 20.656374026
93 1 8.520154953 0.898103155 20.656374026
94 1 7.10012845 5.388619065 20.656374026
95 1 5.680101271 9.879134774 20.656374026
96 1 4.260075107 14.369650483 20.656374026
97 1 1.420025741 0.898103155 34.127922584
98 1 0.0 5.388619065 34.127922584
99 1 9.940179424 9.879134774 34.127922584
100 1 8.520152922 14.369650483 34.127922584
101 1 4.260077477 0.898103155 34.127922584
102 1 2.840050974 5.388619065 34.127922584
103 1 1.420024387 9.879134774 34.127922584
104 1 11.360204573 14.369650483 34.127922584
105 1 7.10012845 0.898103155 34.127922584
106 1 5.680102286 5.388619065 34.127922584
107 1 4.260075445 9.879134774 34.127922584
108 1 2.840049281 14.369650483 34.127922584
109 1 9.940180779 0.898103155 34.127922584
110 1 8.520154276 5.388619065 34.127922584
111 1 7.100127096 9.879134774 34.127922584
112 1 5.680100932 14.369650483 34.127922584
113 1 1.420025741 0.898103155 25.146890212
114 1 0.0 5.388619065 25.146890212
115 1 9.940179424 9.879134774 25.146890212
116 1 8.520152922 14.369650483 25.146890212
117 1 4.260077477 0.898103155 25.146890212
118 1 2.840050974 5.388619065 25.146890212
119 1 1.420024387 9.879134774 25.146890212
120 1 11.360204573 14.369650483 25.146890212
121 1 7.10012845 0.898103155 25.146890212
122 1 5.680102286 5.388619065 25.146890212
123 1 4.260075445 9.879134774 25.146890212
124 1 2.840049281 14.369650483 25.146890212
125 1 9.940180779 0.898103155 25.146890212
126 1 8.520154276 5.388619065 25.146890212
127 1 7.100127096 9.879134774 25.146890212
128 1 5.680100932 14.369650483 25.146890212
129 1 0.0 4.490515441 31.4336133
130 1 9.940179424 8.981030883 31.4336133
131 1 8.520152922 13.471547127 31.4336133
132 1 1.420025826 0.0 31.4336133
133 1 2.840050974 4.490515441 31.4336133
134 1 1.420024556 8.981030883 31.4336133
135 1 11.360204573 13.471547127 31.4336133
136 1 4.260077477 0.0 31.4336133
137 1 5.680102963 4.490515441 31.4336133
138 1 4.260076122 8.981030883 31.4336133
139 1 2.840049789 13.471547127 31.4336133
140 1 7.100129128 0.0 31.4336133
141 1 8.520154276 4.490515441 31.4336133
142 1 7.100127773 8.981030883 31.4336133
143 1 5.680101271 13.471547127 31.4336133
144 1 9.940180779 0.0 31.4336133
145 1 0.0 4.490515441 22.452580929
146 1 9.940179424 8.981030883 22.452580929
147 1 8.520152922 13.471547127 22.452580929
148 1 1.420025826 0.0 22.452580929
149 1 2.840050974 4.490515441 22.452580929
150 1 1.420024556 8.981030883 22.452580929
151 1 11.360204573 13.471547127 22.452580929
152 1 4.260077477 0.0 22.452580929
153 1 5.680102963 4.490515441 22.452580929
154 1 4.260076122 8.981030883 22.452580929
155 1 2.840049789 13.471547127 22.452580929
156 1 7.100129128 0.0 22.452580929
157 1 8.520154276 4.490515441 22.452580929
158 1 7.100127773 8.981030883 22.452580929
159 1 5.680101271 13.471547127 22.452580929
160 1 9.940180779 0.0 22.452580929
161 1 0.0 3.592412621 28.739304017
162 1 9.940179424 8.082928597 28.739304017
163 1 8.520153599 12.573443771 28.739304017
164 1 7.100126419 17.063958409 28.739304017
165 1 2.840050974 3.592412621 28.739304017
166 1 1.420024641 8.082928597 28.739304017
167 1 11.360204573 12.573443771 28.739304017
168 1 9.94017807 17.063958409 28.739304017
169 1 5.680102963 3.592412621 28.739304017
170 1 4.260076461 8.082928597 28.739304017
171 1 2.840050297 12.573443771 28.739304017
172 1 1.420023709 17.063958409 28.739304017
173 1 8.520154953 3.592412621 28.739304017
174 1 7.10012845 8.082928597 28.739304017
175 1 5.680101948 12.573443771 28.739304017
176 1 4.260075445 17.063958409 28.739304017
177 1 0.0 3.592412621 19.758271646
178 1 9.940179424 8.082928597 19.758271646
179 1 8.520153599 12.573443771 19.758271646
180 1 7.100126419 17.063958409 19.758271646
181 1 2.840050974 3.592412621 19.758271646
182 1 1.420024641 8.082928597 19.758271646
183 1 11.360204573 12.573443771 19.758271646
184 1 9.94017807 17.063958409 19.758271646
185 1 5.680102963 3.592412621 19.758271646
186 1 4.260076461 8.082928597 19.758271646
187 1 2.840050297 12.573443771 19.758271646
188 1 1.420023709 17.063958409 19.758271646
189 1 8.520154953 3.592412621 19.758271646
190 1 7.10012845 8.082928597 19.758271646
191 1 5.680101948 12.573443771 19.758271646
192 1 4.260075445 17.063958409 19.758271646
193 1 0.0 0.0 0.0
194 1 9.940180101 4.490515441 0.0
195 1 8.520153599 8.981030883 0.0
196 1 7.100127096 13.471547127 0.0
197 1 2.840051651 0.0 0.0
198 1 1.420025233 4.490515441 0.0
199 1 0.0 8.981030883 0.0
200 1 9.940178747 13.471547127 0.0
201 1 5.680103302 0.0 0.0
202 1 4.260077138 4.490515441 0.0
203 1 2.840050466 8.981030883 0.0
204 1 1.420023879 13.471547127 0.0
205 1 8.520154953 0.0 0.0
206 1 7.10012845 4.490515441 0.0
207 1 5.680101948 8.981030883 0.0
208 1 4.260075445 13.471547127 0.0
209 1 0.0 0.0 26.943097115
210 1 9.940180101 4.490515441 26.943097115
211 1 8.520153599 8.981030883 26.943097115
212 1 7.100127096 13.471547127 26.943097115
213 1 2.840051651 0.0 26.943097115
214 1 1.420025233 4.490515441 26.943097115
215 1 0.0 8.981030883 26.943097115
216 1 9.940178747 13.471547127 26.943097115
217 1 5.680103302 0.0 26.943097115
218 1 4.260077138 4.490515441 26.943097115
219 1 2.840050466 8.981030883 26.943097115
220 1 1.420023879 13.471547127 26.943097115
221 1 8.520154953 0.0 26.943097115
222 1 7.10012845 4.490515441 26.943097115
223 1 5.680101948 8.981030883 26.943097115
224 1 4.260075445 13.471547127 26.943097115
225 1 1.420025233 3.592412621 33.229820203
226 1 0.0 8.082928597 33.229820203
227 1 9.940178747 12.573443771 33.229820203
228 1 8.520152245 17.063958409 33.229820203
229 1 4.260077138 3.592412621 33.229820203
230 1 2.840050466 8.082928597 33.229820203
231 1 1.420024048 12.573443771 33.229820203
232 1 11.360203896 17.063958409 33.229820203
233 1 7.10012845 3.592412621 33.229820203
234 1 5.680102286 8.082928597 33.229820203
235 1 4.260076122 12.573443771 33.229820203
236 1 2.84004945 17.063958409 33.229820203
237 1 9.940180779 3.592412621 33.229820203
238 1 8.520154276 8.082928597 33.229820203
239 1 7.100127773 12.573443771 33.229820203
240 1 5.680101271 17.063958409 33.229820203
241 1 1.420025233 3.592412621 24.248787831
242 1 0.0 8.082928597 24.248787831
243 1 9.940178747 12.573443771 24.248787831
244 1 8.520152245 17.063958409 24.248787831
245 1 4.260077138 3.592412621 24.248787831
246 1 2.840050466 8.082928597 24.248787831
247 1 1.420024048 12.573443771 24.248787831
248 1 11.360203896 17.063958409 24.248787831
249 1 7.10012845 3.592412621 24.248787831
250 1 5.680102286 8.082928597 24.248787831
251 1 4.260076122 12.573443771 24.248787831
252 1 2.84004945 17.063958409 24.248787831
253 1 9.940180779 3.592412621 24.248787831
254 1 8.520154276 8.082928597 24.248787831
255 1 7.100127773 12.573443771 24.248787831
256 1 5.680101271 17.063958409 24.248787831
257 1 1.420025487 2.694309532 30.53551092
258 1 0.0 7.184825241 30.53551092
259 1 9.940179424 11.675340415 30.53551092
260 1 8.520152922 16.165857194 30.53551092
261 1 4.260077138 2.694309532 30.53551092
262 1 2.840050466 7.184825241 30.53551092
263 1 1.420024133 11.675340415 30.53551092
264 1 11.360204573 16.165857194 30.53551092
265 1 7.10012845 2.694309532 30.53551092
266 1 5.680101948 7.184825241 30.53551092
267 1 4.260075445 11.675340415 30.53551092
268 1 2.840049281 16.165857194 30.53551092
269 1 9.940180101 2.694309532 30.53551092
270 1 8.520154276 7.184825241 30.53551092
271 1 7.100127096 11.675340415 30.53551092
272 1 5.680100932 16.165857194 30.53551092
273 1 1.420025487 2.694309532 21.554478548
274 1 0.0 7.184825241 21.554478548
275 1 9.940179424 11.675340415 21.554478548
276 1 8.520152922 16.165857194 21.554478548
277 1 4.260077138 2.694309532 21.554478548
278 1 2.840050466 7.184825241 21.554478548
279 1 1.420024133 11.675340415 21.554478548
280 1 11.360204573 16.165857194 21.554478548
281 1 7.10012845 2.694309532 21.554478548
282 1 5.680101948 7.184825241 21.554478548
283 1 4.260075445 11.675340415 21.554478548
284 1 2.840049281 16.165857194 21.554478548
285 1 9.940180101 2.694309532 21.554478548
286 1 8.520154276 7.184825241 21.554478548
287 1 7.100127096 11.675340415 21.554478548
288 1 5.680100932 16.165857194 21.554478548
289 1 1.420025487 1.79620631 27.841199495
290 1 0.0 6.286721885 27.841199495
291 1 9.940179424 10.77723813 27.841199495
292 1 8.520152245 15.267753839 27.841199495
293 1 4.260077477 1.79620631 27.841199495
294 1 2.840050974 6.286721885 27.841199495
295 1 1.420024302 10.77723813 27.841199495
296 1 11.360204573 15.267753839 27.841199495
297 1 7.100129128 1.79620631 27.841199495
298 1 5.680102286 6.286721885 27.841199495
299 1 4.260076122 10.77723813 27.841199495
300 1 2.84004945 15.267753839 27.841199495
301 1 9.940180779 1.79620631 27.841199495
302 1 8.520154276 6.286721885 27.841199495
303 1 7.100127773 10.77723813 27.841199495
304 1 5.680100932 15.267753839 27.841199495
305 1 1.420025487 1.79620631 18.860167124
306 1 0.0 6.286721885 18.860167124
307 1 9.940179424 10.77723813 18.860167124
308 1 8.520152245 15.267753839 18.860167124
309 1 4.260077477 1.79620631 18.860167124
310 1 2.840050974 6.286721885 18.860167124
311 1 1.420024302 10.77723813 18.860167124
312 1 11.360204573 15.267753839 18.860167124
313 1 7.100129128 1.79620631 18.860167124
314 1 5.680102286 6.286721885 18.860167124
315 1 4.260076122 10.77723813 18.860167124
316 1 2.84004945 15.267753839 18.860167124
317 1 9.940180779 1.79620631 18.860167124
318 1 8.520154276 6.286721885 18.860167124
319 1 7.100127773 10.77723813 18.860167124
320 1 5.680100932 15.267753839 18.860167124
321 1 0.0 2.694309532 0.898103251
322 1 9.940179424 7.184825241 0.898103251
323 1 8.520153599 11.675340415 0.898103251
324 1 7.100126419 16.165857194 0.898103251
325 1 2.840051143 2.694309532 0.898103251
326 1 1.420024641 7.184825241 0.898103251
327 1 11.36020525 11.675340415 0.898103251
328 1 9.94017807 16.165857194 0.898103251
329 1 5.680102963 2.694309532 0.898103251
330 1 4.260076122 7.184825241 0.898103251
331 1 2.840049958 11.675340415 0.898103251
332 1 1.420023456 16.165857194 0.898103251
333 1 8.520154276 2.694309532 0.898103251
334 1 7.100127773 7.184825241 0.898103251
335 1 5.680101271 11.675340415 0.898103251
336 1 4.260075107 16.165857194 0.898103251
337 1 0.0 2.694309532 9.879135823
338 1 9.940179424 7.184825241 9.879135823
339 1 8.520153599 11.675340415 9.879135823
340 1 7.100126419 16.165857194 9.879135823
341 1 2.840051143 2.694309532 9.879135823
342 1 1.420024641 7.184825241 9.879135823
343 1 11.36020525 11.675340415 9.879135823
344 1 9.94017807 16.165857194 9.879135823
345 1 5.680102963 2.694309532 9.879135823
346 1 4.260076122 7.184825241 9.879135823
347 1 2.840049958 11.675340415 9.879135823
348 1 1.420023456 16.165857194 9.879135823
349 1 8.520154276 2.694309532 9.879135823
350 1 7.100127773 7.184825241 9.879135823
351 1 5.680101271 11.675340415 9.879135823
352 1 4.260075107 16.165857194 9.879135823
353 1 0.0 1.79620631 3.592413002
354 1 9.940180101 6.286721885 3.592413002
355 1 8.520153599 10.77723813 3.592413002
356 1 7.100126419 15.267753839 3.592413002
357 1 2.840051482 1.79620631 3.592413002
358 1 1.420025148 6.286721885 3.592413002
359 1 11.36020525 10.77723813 3.592413002
360 1 9.940178747 15.267753839 3.592413002
361 1 5.680103302 1.79620631 3.592413002
362 1 4.260076461 6.286721885 3.592413002
363 1 2.840049958 10.77723813 3.592413002
364 1 1.42002354 15.267753839 3.592413002
365 1 8.520154953 1.79620631 3.592413002
366 1 7.10012845 6.286721885 3.592413002
367 1 5.680101948 10.77723813 3.592413002
368 1 4.260075107 15.267753839 3.592413002
369 1 0.0 1.79620631 12.573445106
370 1 9.940180101 6.286721885 12.573445106
371 1 8.520153599 10.77723813 12.573445106
372 1 7.100126419 15.267753839 12.573445106
373 1 2.840051482 1.79620631 12.573445106
374 1 1.420025148 6.286721885 12.573445106
375 1 11.36020525 10.77723813 12.573445106
376 1 9.940178747 15.267753839 12.573445106
377 1 5.680103302 1.79620631 12.573445106
378 1 4.260076461 6.286721885 12.573445106
379 1 2.840049958 10.77723813 12.573445106
380 1 1.42002354 15.267753839 12.573445106
381 1 8.520154953 1.79620631 12.573445106
382 1 7.10012845 6.286721885 12.573445106
383 1 5.680101948 10.77723813 12.573445106
384 1 4.260075107 15.267753839 12.573445106
385 1 0.0 0.898103155 6.286722553
386 1 9.940180101 5.388619065 6.286722553
387 1 8.520153599 9.879134774 6.286722553
388 1 7.100127096 14.369650483 6.286722553
389 1 2.840051651 0.898103155 6.286722553
390 1 1.420024979 5.388619065 6.286722553
391 1 11.36020525 9.879134774 6.286722553
392 1 9.940178747 14.369650483 6.286722553
393 1 5.680102963 0.898103155 6.286722553
394 1 4.260076461 5.388619065 6.286722553
395 1 2.840049958 9.879134774 6.286722553
396 1 1.420023456 14.369650483 6.286722553
397 1 8.520154953 0.898103155 6.286722553
398 1 7.10012845 5.388619065 6.286722553
399 1 5.680101271 9.879134774 6.286722553
400 1 4.260075107 14.369650483 6.286722553
401 1 0.0 0.898103155 15.26775546
402 1 9.940180101 5.388619065 15.26775546
403 1 8.520153599 9.879134774 15.26775546
404 1 7.100127096 14.369650483 15.26775546
405 1 2.840051651 0.898103155 15.26775546
406 1 1.420024979 5.388619065 15.26775546
407 1 11.36020525 9.879134774 15.26775546
408 1 9.940178747 14.369650483 15.26775546
409 1 5.680102963 0.898103155 15.26775546
410 1 4.260076461 5.388619065 15.26775546
411 1 2.840049958 9.879134774 15.26775546
412 1 1.420023456 14.369650483 15.26775546
413 1 8.520154953 0.898103155 15.26775546
414 1 7.10012845 5.388619065 15.26775546
415 1 5.680101271 9.879134774 15.26775546
416 1 4.260075107 14.369650483 15.26775546
417 1 1.420025741 0.898103155 1.796206501
418 1 0.0 5.388619065 1.796206501
419 1 9.940179424 9.879134774 1.796206501
420 1 8.520152922 14.369650483 1.796206501
421 1 4.260077477 0.898103155 1.796206501
422 1 2.840050974 5.388619065 1.796206501
423 1 1.420024387 9.879134774 1.796206501
424 1 11.360204573 14.369650483 1.796206501
425 1 7.10012845 0.898103155 1.796206501
426 1 5.680102286 5.388619065 1.796206501
427 1 4.260075445 9.879134774 1.796206501
428 1 2.840049281 14.369650483 1.796206501
429 1 9.940180779 0.898103155 1.796206501
430 1 8.520154276 5.388619065 1.796206501
431 1 7.100127096 9.879134774 1.796206501
432 1 5.680100932 14.369650483 1.796206501
433 1 1.420025741 0.898103155 10.777239274
434 1 0.0 5.388619065 10.777239274
435 1 9.940179424 9.879134774 10.777239274
436 1 8.520152922 14.369650483 10.777239274
437 1 4.260077477 0.898103155 10.777239274
438 1 2.840050974 5.388619065 10.777239274
439 1 1.420024387 9.879134774 10.777239274
440 1 11.360204573 14.369650483 10.777239274
441 1 7.10012845 0.898103155 10.777239274
442 1 5.680102286 5.388619065 10.777239274
443 1 4.260075445 9.879134774 10.777239274
444 1 2.840049281 14.369650483 10.777239274
445 1 9.940180779 0.898103155 10.777239274
446 1 8.520154276 5.388619065 10.777239274
447 1 7.100127096 9.879134774 10.777239274
448 1 5.680100932 14.369650483 10.777239274
449 1 0.0 4.490515441 4.490516186
450 1 9.940179424 8.981030883 4.490516186
451 1 8.520152922 13.471547127 4.490516186
452 1 1.420025826 0.0 4.490516186
453 1 2.840050974 4.490515441 4.490516186
454 1 1.420024556 8.981030883 4.490516186
455 1 11.360204573 13.471547127 4.490516186
456 1 4.260077477 0.0 4.490516186
457 1 5.680102963 4.490515441 4.490516186
458 1 4.260076122 8.981030883 4.490516186
459 1 2.840049789 13.471547127 4.490516186
460 1 7.100129128 0.0 4.490516186
461 1 8.520154276 4.490515441 4.490516186
462 1 7.100127773 8.981030883 4.490516186
463 1 5.680101271 13.471547127 4.490516186
464 1 9.940180779 0.0 4.490516186
465 1 0.0 4.490515441 13.471548557
466 1 9.940179424 8.981030883 13.471548557
467 1 8.520152922 13.471547127 13.471548557
468 1 1.420025826 0.0 13.471548557
469 1 2.840050974 4.490515441 13.471548557
470 1 1.420024556 8.981030883 13.471548557
471 1 11.360204573 13.471547127 13.471548557
472 1 4.260077477 0.0 13.471548557
473 1 5.680102963 4.490515441 13.471548557
474 1 4.260076122 8.981030883 13.471548557
475 1 2.840049789 13.471547127 13.471548557
476 1 7.100129128 0.0 13.471548557
477 1 8.520154276 4.490515441 13.471548557
478 1 7.100127773 8.981030883 13.471548557
479 1 5.680101271 13.471547127 13.471548557
480 1 9.940180779 0.0 13.471548557
481 1 0.0 3.592412621 7.184826004
482 1 9.940179424 8.082928597 7.184826004
483 1 8.520153599 12.573443771 7.184826004
484 1 7.100126419 17.063958409 7.184826004
485 1 2.840050974 3.592412621 7.184826004
486 1 1.420024641 8.082928597 7.184826004
487 1 11.360204573 12.573443771 7.184826004
488 1 9.94017807 17.063958409 7.184826004
489 1 5.680102963 3.592412621 7.184826004
490 1 4.260076461 8.082928597 7.184826004
491 1 2.840050297 12.573443771 7.184826004
492 1 1.420023709 17.063958409 7.184826004
493 1 8.520154953 3.592412621 7.184826004
494 1 7.10012845 8.082928597 7.184826004
495 1 5.680101948 12.573443771 7.184826004
496 1 4.260075445 17.063958409 7.184826004
497 1 0.0 3.592412621 16.16585784
498 1 9.940179424 8.082928597 16.16585784
499 1 8.520153599 12.573443771 16.16585784
500 1 7.100126419 17.063958409 16.16585784
501 1 2.840050974 3.592412621 16.16585784
502 1 1.420024641 8.082928597 16.16585784
503 1 11.360204573 12.573443771 16.16585784
504 1 9.94017807 17.063958409 16.16585784
505 1 5.680102963 3.592412621 16.16585784
506 1 4.260076461 8.082928597 16.16585784
507 1 2.840050297 12.573443771 16.16585784
508 1 1.420023709 17.063958409 16.16585784
509 1 8.520154953 3.592412621 16.16585784
510 1 7.10012845 8.082928597 16.16585784
511 1 5.680101948 12.573443771 16.16585784
512 1 4.260075445 17.063958409 16.16585784
513 1 0.0 0.0 17.962064743
514 1 9.940180101 4.490515441 17.962064743
515 1 8.520153599 8.981030883 17.962064743
516 1 7.100127096 13.471547127 17.962064743
517 1 2.840051651 0.0 17.962064743
518 1 1.420025233 4.490515441 17.962064743
519 1 0.0 8.981030883 17.962064743
520 1 9.940178747 13.471547127 17.962064743
521 1 5.680103302 0.0 17.962064743
522 1 4.260077138 4.490515441 17.962064743
523 1 2.840050466 8.981030883 17.962064743
524 1 1.420023879 13.471547127 17.962064743
525 1 8.520154953 0.0 17.962064743
526 1 7.10012845 4.490515441 17.962064743
527 1 5.680101948 8.981030883 17.962064743
528 1 4.260075445 13.471547127 17.962064743
529 1 0.0 0.0 8.981032372
530 1 9.940180101 4.490515441 8.981032372
531 1 8.520153599 8.981030883 8.981032372
532 1 7.100127096 13.471547127 8.981032372
533 1 2.840051651 0.0 8.981032372
534 1 1.420025233 4.490515441 8.981032372
535 1 0.0 8.981030883 8.981032372
536 1 9.940178747 13.471547127 8.981032372
537 1 5.680103302 0.0 8.981032372
538 1 4.260077138 4.490515441 8.981032372
539 1 2.840050466 8.981030883 8.981032372
540 1 1.420023879 13.471547127 8.981032372
541 1 8.520154953 0.0 8.981032372
542 1 7.10012845 4.490515441 8.981032372
543 1 5.680101948 8.981030883 8.981032372
544 1 4.260075445 13.471547127 8.981032372
545 1 1.420025233 3.592412621 2.694309819
546 1 0.0 8.082928597 2.694309819
547 1 9.940178747 12.573443771 2.694309819
548 1 8.520152245 17.063958409 2.694309819
549 1 4.260077138 3.592412621 2.694309819
550 1 2.840050466 8.082928597 2.694309819
551 1 1.420024048 12.573443771 2.694309819
552 1 11.360203896 17.063958409 2.694309819
553 1 7.10012845 3.592412621 2.694309819
554 1 5.680102286 8.082928597 2.694309819
555 1 4.260076122 12.573443771 2.694309819
556 1 2.84004945 17.063958409 2.694309819
557 1 9.940180779 3.592412621 2.694309819
558 1 8.520154276 8.082928597 2.694309819
559 1 7.100127773 12.573443771 2.694309819
560 1 5.680101271 17.063958409 2.694309819
561 1 1.420025233 3.592412621 11.675341655
562 1 0.0 8.082928597 11.675341655
563 1 9.940178747 12.573443771 11.675341655
564 1 8.520152245 17.063958409 11.675341655
565 1 4.260077138 3.592412621 11.675341655
566 1 2.840050466 8.082928597 11.675341655
567 1 1.420024048 12.573443771 11.675341655
568 1 11.360203896 17.063958409 11.675341655
569 1 7.10012845 3.592412621 11.675341655
570 1 5.680102286 8.082928597 11.675341655
571 1 4.260076122 12.573443771 11.675341655
572 1 2.84004945 17.063958409 11.675341655
573 1 9.940180779 3.592412621 11.675341655
574 1 8.520154276 8.082928597 11.675341655
575 1 7.100127773 12.573443771 11.675341655
576 1 5.680101271 17.063958409 11.675341655
577 1 1.420025487 2.694309532 5.388619637
578 1 0.0 7.184825241 5.388619637
579 1 9.940179424 11.675340415 5.388619637
580 1 8.520152922 16.165857194 5.388619637
581 1 4.260077138 2.694309532 5.388619637
582 1 2.840050466 7.184825241 5.388619637
583 1 1.420024133 11.675340415 5.388619637
584 1 11.360204573 16.165857194 5.388619637
585 1 7.10012845 2.694309532 5.388619637
586 1 5.680101948 7.184825241 5.388619637
587 1 4.260075445 11.675340415 5.388619637
588 1 2.840049281 16.165857194 5.388619637
589 1 9.940180101 2.694309532 5.388619637
590 1 8.520154276 7.184825241 5.388619637
591 1 7.100127096 11.675340415 5.388619637
592 1 5.680100932 16.165857194 5.388619637
593 1 1.420025487 2.694309532 14.369652009
594 1 0.0 7.184825241 14.369652009
595 1 9.940179424 11.675340415 14.369652009
596 1 8.520152922 16.165857194 14.369652009
597 1 4.260077138 2.694309532 14.369652009
598 1 2.840050466 7.184825241 14.369652009
599 1 1.420024133 11.675340415 14.369652009
600 1 11.360204573 16.165857194 14.369652009
601 1 7.10012845 2.694309532 14.369652009
602 1 5.680101948 7.184825241 14.369652009
603 1 4.260075445 11.675340415 14.369652009
604 1 2.840049281 16.165857194 14.369652009
605 1 9.940180101 2.694309532 14.369652009
606 1 8.520154276 7.184825241 14.369652009
607 1 7.100127096 11.675340415 14.369652009
608 1 5.680100932 16.165857194 14.369652009
609 1 1.420025487 1.79620631 8.08292892
610 1 0.0 6.286721885 8.08292892
611 1 9.940179424 10.77723813 8.08292892
612 1 8.520152245 15.267753839 8.08292892
613 1 4.260077477 1.79620631 8.08292892
614 1 2.840050974 6.286721885 8.08292892
615 1 1.420024302 10.77723813 8.08292892
616 1 11.360204573 15.267753839 8.08292892
617 1 7.100129128 1.79620631 8.08292892
618 1 5.680102286 6.286721885 8.08292892
619 1 4.260076122 10.77723813 8.08292892
620 1 2.84004945 15.267753839 8.08292892
621 1 9.940180779 1.79620631 8.08292892
622 1 8.520154276 6.286721885 8.08292892
623 1 7.100127773 10.77723813 8.08292892
624 1 5.680100932 15.267753839 8.08292892
625 1 1.420025487 1.79620631 17.063961292
626 1 0.0 6.286721885 17.063961292
627 1 9.940179424 10.77723813 17.063961292
628 1 8.520152245 15.267753839 17.063961292
629 1 4.260077477 1.79620631 17.063961292
630 1 2.840050974 6.286721885 17.063961292
631 1 1.420024302 10.77723813 17.063961292
632 1 11.360204573 15.267753839 17.063961292
633 1 7.100129128 1.79620631 17.063961292
634 1 5.680102286 6.286721885 17.063961292
635 1 4.260076122 10.77723813 17.063961292
636 1 2.84004945 15.267753839 17.063961292
637 1 9.940180779 1.79620631 17.063961292
638 1 8.520154276 6.286721885 17.063961292
639 1 7.100127773 10.77723813 17.063961292
640 1 5.680100932 15.267753839 17.063961292
