 # C nanotube of type armchair (20,20); radius: 14.335 A..
  
       39420  atoms
           1  atom types
 
-2.0 570.0  xlo xhi
-24.0048  24.0048  ylo yhi
-24.0048  24.0048  zlo zhi
0.0 0.0 0.0  xy xz yz
 
Masses
 
            1   12.01100000             # C
 
Atoms # atomic
 
1 1 0.949999999995 14.3346 0
2 1 0.949999999995 14.256 1.49837
3 1 2.250002833995 14.1581 2.24242
4 1 2.250002833995 13.8461 3.71005
5 1 0.949999999995 13.633 4.42962
6 1 0.949999999995 13.0953 5.83039
7 1 2.250002833995 12.7722 6.50775
8 1 2.250002833995 12.022 7.80716
9 1 0.949999999995 11.5969 8.42564
10 1 0.949999999995 10.6526 9.59169
11 1 2.250002833995 10.1361 10.1361
12 1 2.250002833995 9.02103 11.14
13 1 0.949999999995 8.42564 11.5969
14 1 0.949999999995 7.16728 12.4141
15 1 2.250002833995 6.50775 12.7722
16 1 2.250002833995 5.13704 13.3825
17 1 0.949999999995 4.42962 13.633
18 1 0.949999999995 2.98032 14.0213
19 1 2.250002833995 2.24242 14.1581
20 1 2.250002833995 0.750213 14.3149
21 1 0.949999999995 -2.86691e-07 14.3346
22 1 0.949999999995 -1.49837 14.256
23 1 2.250002833995 -2.24242 14.1581
24 1 2.250002833995 -3.71006 13.8461
25 1 0.949999999995 -4.42962 13.633
26 1 0.949999999995 -5.83039 13.0953
27 1 2.250002833995 -6.50775 12.7722
28 1 2.250002833995 -7.80716 12.022
29 1 0.949999999995 -8.42564 11.5969
30 1 0.949999999995 -9.59169 10.6526
31 1 2.250002833995 -10.1361 10.1361
32 1 2.250002833995 -11.14 9.02103
33 1 0.949999999995 -11.5969 8.42564
34 1 0.949999999995 -12.4141 7.16728
35 1 2.250002833995 -12.7722 6.50775
36 1 2.250002833995 -13.3825 5.13704
37 1 0.949999999995 -13.633 4.42962
38 1 0.949999999995 -14.0213 2.98032
39 1 2.250002833995 -14.1581 2.24242
40 1 2.250002833995 -14.3149 0.750212
41 1 0.949999999995 -14.3346 0
42 1 0.949999999995 -14.256 -1.49837
43 1 2.250002833995 -14.1581 -2.24242
44 1 2.250002833995 -13.8461 -3.71005
45 1 0.949999999995 -13.633 -4.42962
46 1 0.949999999995 -13.0953 -5.83039
47 1 2.250002833995 -12.7722 -6.50775
48 1 2.250002833995 -12.022 -7.80716
49 1 0.949999999995 -11.5969 -8.42564
50 1 0.949999999995 -10.6526 -9.59169
51 1 2.250002833995 -10.1361 -10.1361
52 1 2.250002833995 -9.02103 -11.14
53 1 0.949999999995 -8.42564 -11.5969
54 1 0.949999999995 -7.16728 -12.4141
55 1 2.250002833995 -6.50775 -12.7722
56 1 2.250002833995 -5.13704 -13.3825
57 1 0.949999999995 -4.42962 -13.633
58 1 0.949999999995 -2.98032 -14.0213
59 1 2.250002833995 -2.24242 -14.1581
60 1 2.250002833995 -0.750213 -14.3149
61 1 0.949999999995 2.86691e-07 -14.3346
62 1 0.949999999995 1.49837 -14.256
63 1 2.250002833995 2.24242 -14.1581
64 1 2.250002833995 3.71006 -13.8461
65 1 0.949999999995 4.42962 -13.633
66 1 0.949999999995 5.83039 -13.0953
67 1 2.250002833995 6.50775 -12.7722
68 1 2.250002833995 7.80716 -12.022
69 1 0.949999999995 8.42564 -11.5969
70 1 0.949999999995 9.59169 -10.6526
71 1 2.250002833995 10.1361 -10.1361
72 1 2.250002833995 11.14 -9.02103
73 1 0.949999999995 11.5969 -8.42564
74 1 0.949999999995 12.4141 -7.16728
75 1 2.250002833995 12.7722 -6.50775
76 1 2.250002833995 13.3825 -5.13704
77 1 0.949999999995 13.633 -4.42962
78 1 0.949999999995 14.0213 -2.98032
79 1 2.250002833995 14.1581 -2.24242
80 1 2.250002833995 14.3149 -0.750212
81 1 3.549999973995 14.3346 0
82 1 3.549999973995 14.256 1.49837
83 1 4.850002807995 14.1581 2.24242
84 1 4.850002807995 13.8461 3.71005
85 1 3.549999973995 13.633 4.42962
86 1 3.549999973995 13.0953 5.83039
87 1 4.850002807995 12.7722 6.50775
88 1 4.850002807995 12.022 7.80716
89 1 3.549999973995 11.5969 8.42564
90 1 3.549999973995 10.6526 9.59169
91 1 4.850002807995 10.1361 10.1361
92 1 4.850002807995 9.02103 11.14
93 1 3.549999973995 8.42564 11.5969
94 1 3.549999973995 7.16728 12.4141
95 1 4.850002807995 6.50775 12.7722
96 1 4.850002807995 5.13704 13.3825
97 1 3.549999973995 4.42962 13.633
98 1 3.549999973995 2.98032 14.0213
99 1 4.850002807995 2.24242 14.1581
100 1 4.850002807995 0.750213 14.3149
101 1 3.549999973995 -2.86691e-07 14.3346
102 1 3.549999973995 -1.49837 14.256
103 1 4.850002807995 -2.24242 14.1581
104 1 4.850002807995 -3.71006 13.8461
105 1 3.549999973995 -4.42962 13.633
106 1 3.549999973995 -5.83039 13.0953
107 1 4.850002807995 -6.50775 12.7722
108 1 4.850002807995 -7.80716 12.022
109 1 3.549999973995 -8.42564 11.5969
110 1 3.549999973995 -9.59169 10.6526
111 1 4.850002807995 -10.1361 10.1361
112 1 4.850002807995 -11.14 9.02103
113 1 3.549999973995 -11.5969 8.42564
114 1 3.549999973995 -12.4141 7.16728
115 1 4.850002807995 -12.7722 6.50775
116 1 4.850002807995 -13.3825 5.13704
117 1 3.549999973995 -13.633 4.42962
118 1 3.549999973995 -14.0213 2.98032
119 1 4.850002807995 -14.1581 2.24242
120 1 4.850002807995 -14.3149 0.750212
121 1 3.549999973995 -14.3346 0
122 1 3.549999973995 -14.256 -1.49837
123 1 4.850002807995 -14.1581 -2.24242
124 1 4.850002807995 -13.8461 -3.71005
125 1 3.549999973995 -13.633 -4.42962
126 1 3.549999973995 -13.0953 -5.83039
127 1 4.850002807995 -12.7722 -6.50775
128 1 4.850002807995 -12.022 -7.80716
129 1 3.549999973995 -11.5969 -8.42564
130 1 3.549999973995 -10.6526 -9.59169
131 1 4.850002807995 -10.1361 -10.1361
132 1 4.850002807995 -9.02103 -11.14
133 1 3.549999973995 -8.42564 -11.5969
134 1 3.549999973995 -7.16728 -12.4141
135 1 4.850002807995 -6.50775 -12.7722
136 1 4.850002807995 -5.13704 -13.3825
137 1 3.549999973995 -4.42962 -13.633
138 1 3.549999973995 -2.98032 -14.0213
139 1 4.850002807995 -2.24242 -14.1581
140 1 4.850002807995 -0.750213 -14.3149
141 1 3.549999973995 2.86691e-07 -14.3346
142 1 3.549999973995 1.49837 -14.256
143 1 4.850002807995 2.24242 -14.1581
144 1 4.850002807995 3.71006 -13.8461
145 1 3.549999973995 4.42962 -13.633
146 1 3.549999973995 5.83039 -13.0953
147 1 4.850002807995 6.50775 -12.7722
148 1 4.850002807995 7.80716 -12.022
149 1 3.549999973995 8.42564 -11.5969
150 1 3.549999973995 9.59169 -10.6526
151 1 4.850002807995 10.1361 -10.1361
152 1 4.850002807995 11.14 -9.02103
153 1 3.549999973995 11.5969 -8.42564
154 1 3.549999973995 12.4141 -7.16728
155 1 4.850002807995 12.7722 -6.50775
156 1 4.850002807995 13.3825 -5.13704
157 1 3.549999973995 13.633 -4.42962
158 1 3.549999973995 14.0213 -2.98032
159 1 4.850002807995 14.1581 -2.24242
160 1 4.850002807995 14.3149 -0.750212
161 1 6.149999947995 14.3346 0
162 1 6.149999947995 14.256 1.49837
163 1 7.450002781995 14.1581 2.24242
164 1 7.450002781995 13.8461 3.71005
165 1 6.149999947995 13.633 4.42962
166 1 6.149999947995 13.0953 5.83039
167 1 7.450002781995 12.7722 6.50775
168 1 7.450002781995 12.022 7.80716
169 1 6.149999947995 11.5969 8.42564
170 1 6.149999947995 10.6526 9.59169
171 1 7.450002781995 10.1361 10.1361
172 1 7.450002781995 9.02103 11.14
173 1 6.149999947995 8.42564 11.5969
174 1 6.149999947995 7.16728 12.4141
175 1 7.450002781995 6.50775 12.7722
176 1 7.450002781995 5.13704 13.3825
177 1 6.149999947995 4.42962 13.633
178 1 6.149999947995 2.98032 14.0213
179 1 7.450002781995 2.24242 14.1581
180 1 7.450002781995 0.750213 14.3149
181 1 6.149999947995 -2.86691e-07 14.3346
182 1 6.149999947995 -1.49837 14.256
183 1 7.450002781995 -2.24242 14.1581
184 1 7.450002781995 -3.71006 13.8461
185 1 6.149999947995 -4.42962 13.633
186 1 6.149999947995 -5.83039 13.0953
187 1 7.450002781995 -6.50775 12.7722
188 1 7.450002781995 -7.80716 12.022
189 1 6.149999947995 -8.42564 11.5969
190 1 6.149999947995 -9.59169 10.6526
191 1 7.450002781995 -10.1361 10.1361
192 1 7.450002781995 -11.14 9.02103
193 1 6.149999947995 -11.5969 8.42564
194 1 6.149999947995 -12.4141 7.16728
195 1 7.450002781995 -12.7722 6.50775
196 1 7.450002781995 -13.3825 5.13704
197 1 6.149999947995 -13.633 4.42962
198 1 6.149999947995 -14.0213 2.98032
199 1 7.450002781995 -14.1581 2.24242
200 1 7.450002781995 -14.3149 0.750212
201 1 6.149999947995 -14.3346 0
202 1 6.149999947995 -14.256 -1.49837
203 1 7.450002781995 -14.1581 -2.24242
204 1 7.450002781995 -13.8461 -3.71005
205 1 6.149999947995 -13.633 -4.42962
206 1 6.149999947995 -13.0953 -5.83039
207 1 7.450002781995 -12.7722 -6.50775
208 1 7.450002781995 -12.022 -7.80716
209 1 6.149999947995 -11.5969 -8.42564
210 1 6.149999947995 -10.6526 -9.59169
211 1 7.450002781995 -10.1361 -10.1361
212 1 7.450002781995 -9.02103 -11.14
213 1 6.149999947995 -8.42564 -11.5969
214 1 6.149999947995 -7.16728 -12.4141
215 1 7.450002781995 -6.50775 -12.7722
216 1 7.450002781995 -5.13704 -13.3825
217 1 6.149999947995 -4.42962 -13.633
218 1 6.149999947995 -2.98032 -14.0213
219 1 7.450002781995 -2.24242 -14.1581
220 1 7.450002781995 -0.750213 -14.3149
221 1 6.149999947995 2.86691e-07 -14.3346
222 1 6.149999947995 1.49837 -14.256
223 1 7.450002781995 2.24242 -14.1581
224 1 7.450002781995 3.71006 -13.8461
225 1 6.149999947995 4.42962 -13.633
226 1 6.149999947995 5.83039 -13.0953
227 1 7.450002781995 6.50775 -12.7722
228 1 7.450002781995 7.80716 -12.022
229 1 6.149999947995 8.42564 -11.5969
230 1 6.149999947995 9.59169 -10.6526
231 1 7.450002781995 10.1361 -10.1361
232 1 7.450002781995 11.14 -9.02103
233 1 6.149999947995 11.5969 -8.42564
234 1 6.149999947995 12.4141 -7.16728
235 1 7.450002781995 12.7722 -6.50775
236 1 7.450002781995 13.3825 -5.13704
237 1 6.149999947995 13.633 -4.42962
238 1 6.149999947995 14.0213 -2.98032
239 1 7.450002781995 14.1581 -2.24242
240 1 7.450002781995 14.3149 -0.750212
241 1 8.749999921995 14.3346 0
242 1 8.749999921995 14.256 1.49837
243 1 10.050002755995 14.1581 2.24242
244 1 10.050002755995 13.8461 3.71005
245 1 8.749999921995 13.633 4.42962
246 1 8.749999921995 13.0953 5.83039
247 1 10.050002755995 12.7722 6.50775
248 1 10.050002755995 12.022 7.80716
249 1 8.749999921995 11.5969 8.42564
250 1 8.749999921995 10.6526 9.59169
251 1 10.050002755995 10.1361 10.1361
252 1 10.050002755995 9.02103 11.14
253 1 8.749999921995 8.42564 11.5969
254 1 8.749999921995 7.16728 12.4141
255 1 10.050002755995 6.50775 12.7722
256 1 10.050002755995 5.13704 13.3825
257 1 8.749999921995 4.42962 13.633
258 1 8.749999921995 2.98032 14.0213
259 1 10.050002755995 2.24242 14.1581
260 1 10.050002755995 0.750213 14.3149
261 1 8.749999921995 -2.86691e-07 14.3346
262 1 8.749999921995 -1.49837 14.256
263 1 10.050002755995 -2.24242 14.1581
264 1 10.050002755995 -3.71006 13.8461
265 1 8.749999921995 -4.42962 13.633
266 1 8.749999921995 -5.83039 13.0953
267 1 10.050002755995 -6.50775 12.7722
268 1 10.050002755995 -7.80716 12.022
269 1 8.749999921995 -8.42564 11.5969
270 1 8.749999921995 -9.59169 10.6526
271 1 10.050002755995 -10.1361 10.1361
272 1 10.050002755995 -11.14 9.02103
273 1 8.749999921995 -11.5969 8.42564
274 1 8.749999921995 -12.4141 7.16728
275 1 10.050002755995 -12.7722 6.50775
276 1 10.050002755995 -13.3825 5.13704
277 1 8.749999921995 -13.633 4.42962
278 1 8.749999921995 -14.0213 2.98032
279 1 10.050002755995 -14.1581 2.24242
280 1 10.050002755995 -14.3149 0.750212
281 1 8.749999921995 -14.3346 0
282 1 8.749999921995 -14.256 -1.49837
283 1 10.050002755995 -14.1581 -2.24242
284 1 10.050002755995 -13.8461 -3.71005
285 1 8.749999921995 -13.633 -4.42962
286 1 8.749999921995 -13.0953 -5.83039
287 1 10.050002755995 -12.7722 -6.50775
288 1 10.050002755995 -12.022 -7.80716
289 1 8.749999921995 -11.5969 -8.42564
290 1 8.749999921995 -10.6526 -9.59169
291 1 10.050002755995 -10.1361 -10.1361
292 1 10.050002755995 -9.02103 -11.14
293 1 8.749999921995 -8.42564 -11.5969
294 1 8.749999921995 -7.16728 -12.4141
295 1 10.050002755995 -6.50775 -12.7722
296 1 10.050002755995 -5.13704 -13.3825
297 1 8.749999921995 -4.42962 -13.633
298 1 8.749999921995 -2.98032 -14.0213
299 1 10.050002755995 -2.24242 -14.1581
300 1 10.050002755995 -0.750213 -14.3149
301 1 8.749999921995 2.86691e-07 -14.3346
302 1 8.749999921995 1.49837 -14.256
303 1 10.050002755995 2.24242 -14.1581
304 1 10.050002755995 3.71006 -13.8461
305 1 8.749999921995 4.42962 -13.633
306 1 8.749999921995 5.83039 -13.0953
307 1 10.050002755995 6.50775 -12.7722
308 1 10.050002755995 7.80716 -12.022
309 1 8.749999921995 8.42564 -11.5969
310 1 8.749999921995 9.59169 -10.6526
311 1 10.050002755995 10.1361 -10.1361
312 1 10.050002755995 11.14 -9.02103
313 1 8.749999921995 11.5969 -8.42564
314 1 8.749999921995 12.4141 -7.16728
315 1 10.050002755995 12.7722 -6.50775
316 1 10.050002755995 13.3825 -5.13704
317 1 8.749999921995 13.633 -4.42962
318 1 8.749999921995 14.0213 -2.98032
319 1 10.050002755995 14.1581 -2.24242
320 1 10.050002755995 14.3149 -0.750212
321 1 11.349999895995 14.3346 0
322 1 11.349999895995 14.256 1.49837
323 1 12.650002729995 14.1581 2.24242
324 1 12.650002729995 13.8461 3.71005
325 1 11.349999895995 13.633 4.42962
326 1 11.349999895995 13.0953 5.83039
327 1 12.650002729995 12.7722 6.50775
328 1 12.650002729995 12.022 7.80716
329 1 11.349999895995 11.5969 8.42564
330 1 11.349999895995 10.6526 9.59169
331 1 12.650002729995 10.1361 10.1361
332 1 12.650002729995 9.02103 11.14
333 1 11.349999895995 8.42564 11.5969
334 1 11.349999895995 7.16728 12.4141
335 1 12.650002729995 6.50775 12.7722
336 1 12.650002729995 5.13704 13.3825
337 1 11.349999895995 4.42962 13.633
338 1 11.349999895995 2.98032 14.0213
339 1 12.650002729995 2.24242 14.1581
340 1 12.650002729995 0.750213 14.3149
341 1 11.349999895995 -2.86691e-07 14.3346
342 1 11.349999895995 -1.49837 14.256
343 1 12.650002729995 -2.24242 14.1581
344 1 12.650002729995 -3.71006 13.8461
345 1 11.349999895995 -4.42962 13.633
346 1 11.349999895995 -5.83039 13.0953
347 1 12.650002729995 -6.50775 12.7722
348 1 12.650002729995 -7.80716 12.022
349 1 11.349999895995 -8.42564 11.5969
350 1 11.349999895995 -9.59169 10.6526
351 1 12.650002729995 -10.1361 10.1361
352 1 12.650002729995 -11.14 9.02103
353 1 11.349999895995 -11.5969 8.42564
354 1 11.349999895995 -12.4141 7.16728
355 1 12.650002729995 -12.7722 6.50775
356 1 12.650002729995 -13.3825 5.13704
357 1 11.349999895995 -13.633 4.42962
358 1 11.349999895995 -14.0213 2.98032
359 1 12.650002729995 -14.1581 2.24242
360 1 12.650002729995 -14.3149 0.750212
361 1 11.349999895995 -14.3346 0
362 1 11.349999895995 -14.256 -1.49837
363 1 12.650002729995 -14.1581 -2.24242
364 1 12.650002729995 -13.8461 -3.71005
365 1 11.349999895995 -13.633 -4.42962
366 1 11.349999895995 -13.0953 -5.83039
367 1 12.650002729995 -12.7722 -6.50775
368 1 12.650002729995 -12.022 -7.80716
369 1 11.349999895995 -11.5969 -8.42564
370 1 11.349999895995 -10.6526 -9.59169
371 1 12.650002729995 -10.1361 -10.1361
372 1 12.650002729995 -9.02103 -11.14
373 1 11.349999895995 -8.42564 -11.5969
374 1 11.349999895995 -7.16728 -12.4141
375 1 12.650002729995 -6.50775 -12.7722
376 1 12.650002729995 -5.13704 -13.3825
377 1 11.349999895995 -4.42962 -13.633
378 1 11.349999895995 -2.98032 -14.0213
379 1 12.650002729995 -2.24242 -14.1581
380 1 12.650002729995 -0.750213 -14.3149
381 1 11.349999895995 2.86691e-07 -14.3346
382 1 11.349999895995 1.49837 -14.256
383 1 12.650002729995 2.24242 -14.1581
384 1 12.650002729995 3.71006 -13.8461
385 1 11.349999895995 4.42962 -13.633
386 1 11.349999895995 5.83039 -13.0953
387 1 12.650002729995 6.50775 -12.7722
388 1 12.650002729995 7.80716 -12.022
389 1 11.349999895995 8.42564 -11.5969
390 1 11.349999895995 9.59169 -10.6526
391 1 12.650002729995 10.1361 -10.1361
392 1 12.650002729995 11.14 -9.02103
393 1 11.349999895995 11.5969 -8.42564
394 1 11.349999895995 12.4141 -7.16728
395 1 12.650002729995 12.7722 -6.50775
396 1 12.650002729995 13.3825 -5.13704
397 1 11.349999895995 13.633 -4.42962
398 1 11.349999895995 14.0213 -2.98032
399 1 12.650002729995 14.1581 -2.24242
400 1 12.650002729995 14.3149 -0.750212
401 1 13.949999869995 14.3346 0
402 1 13.949999869995 14.256 1.49837
403 1 15.250002703995 14.1581 2.24242
404 1 15.250002703995 13.8461 3.71005
405 1 13.949999869995 13.633 4.42962
406 1 13.949999869995 13.0953 5.83039
407 1 15.250002703995 12.7722 6.50775
408 1 15.250002703995 12.022 7.80716
409 1 13.949999869995 11.5969 8.42564
410 1 13.949999869995 10.6526 9.59169
411 1 15.250002703995 10.1361 10.1361
412 1 15.250002703995 9.02103 11.14
413 1 13.949999869995 8.42564 11.5969
414 1 13.949999869995 7.16728 12.4141
415 1 15.250002703995 6.50775 12.7722
416 1 15.250002703995 5.13704 13.3825
417 1 13.949999869995 4.42962 13.633
418 1 13.949999869995 2.98032 14.0213
419 1 15.250002703995 2.24242 14.1581
420 1 15.250002703995 0.750213 14.3149
421 1 13.949999869995 -2.86691e-07 14.3346
422 1 13.949999869995 -1.49837 14.256
423 1 15.250002703995 -2.24242 14.1581
424 1 15.250002703995 -3.71006 13.8461
425 1 13.949999869995 -4.42962 13.633
426 1 13.949999869995 -5.83039 13.0953
427 1 15.250002703995 -6.50775 12.7722
428 1 15.250002703995 -7.80716 12.022
429 1 13.949999869995 -8.42564 11.5969
430 1 13.949999869995 -9.59169 10.6526
431 1 15.250002703995 -10.1361 10.1361
432 1 15.250002703995 -11.14 9.02103
433 1 13.949999869995 -11.5969 8.42564
434 1 13.949999869995 -12.4141 7.16728
435 1 15.250002703995 -12.7722 6.50775
436 1 15.250002703995 -13.3825 5.13704
437 1 13.949999869995 -13.633 4.42962
438 1 13.949999869995 -14.0213 2.98032
439 1 15.250002703995 -14.1581 2.24242
440 1 15.250002703995 -14.3149 0.750212
441 1 13.949999869995 -14.3346 0
442 1 13.949999869995 -14.256 -1.49837
443 1 15.250002703995 -14.1581 -2.24242
444 1 15.250002703995 -13.8461 -3.71005
445 1 13.949999869995 -13.633 -4.42962
446 1 13.949999869995 -13.0953 -5.83039
447 1 15.250002703995 -12.7722 -6.50775
448 1 15.250002703995 -12.022 -7.80716
449 1 13.949999869995 -11.5969 -8.42564
450 1 13.949999869995 -10.6526 -9.59169
451 1 15.250002703995 -10.1361 -10.1361
452 1 15.250002703995 -9.02103 -11.14
453 1 13.949999869995 -8.42564 -11.5969
454 1 13.949999869995 -7.16728 -12.4141
455 1 15.250002703995 -6.50775 -12.7722
456 1 15.250002703995 -5.13704 -13.3825
457 1 13.949999869995 -4.42962 -13.633
458 1 13.949999869995 -2.98032 -14.0213
459 1 15.250002703995 -2.24242 -14.1581
460 1 15.250002703995 -0.750213 -14.3149
461 1 13.949999869995 2.86691e-07 -14.3346
462 1 13.949999869995 1.49837 -14.256
463 1 15.250002703995 2.24242 -14.1581
464 1 15.250002703995 3.71006 -13.8461
465 1 13.949999869995 4.42962 -13.633
466 1 13.949999869995 5.83039 -13.0953
467 1 15.250002703995 6.50775 -12.7722
468 1 15.250002703995 7.80716 -12.022
469 1 13.949999869995 8.42564 -11.5969
470 1 13.949999869995 9.59169 -10.6526
471 1 15.250002703995 10.1361 -10.1361
472 1 15.250002703995 11.14 -9.02103
473 1 13.949999869995 11.5969 -8.42564
474 1 13.949999869995 12.4141 -7.16728
475 1 15.250002703995 12.7722 -6.50775
476 1 15.250002703995 13.3825 -5.13704
477 1 13.949999869995 13.633 -4.42962
478 1 13.949999869995 14.0213 -2.98032
479 1 15.250002703995 14.1581 -2.24242
480 1 15.250002703995 14.3149 -0.750212
481 1 16.549999843995 14.3346 0
482 1 16.549999843995 14.256 1.49837
483 1 17.850002677995 14.1581 2.24242
484 1 17.850002677995 13.8461 3.71005
485 1 16.549999843995 13.633 4.42962
486 1 16.549999843995 13.0953 5.83039
487 1 17.850002677995 12.7722 6.50775
488 1 17.850002677995 12.022 7.80716
489 1 16.549999843995 11.5969 8.42564
490 1 16.549999843995 10.6526 9.59169
491 1 17.850002677995 10.1361 10.1361
492 1 17.850002677995 9.02103 11.14
493 1 16.549999843995 8.42564 11.5969
494 1 16.549999843995 7.16728 12.4141
495 1 17.850002677995 6.50775 12.7722
496 1 17.850002677995 5.13704 13.3825
497 1 16.549999843995 4.42962 13.633
498 1 16.549999843995 2.98032 14.0213
499 1 17.850002677995 2.24242 14.1581
500 1 17.850002677995 0.750213 14.3149
501 1 16.549999843995 -2.86691e-07 14.3346
502 1 16.549999843995 -1.49837 14.256
503 1 17.850002677995 -2.24242 14.1581
504 1 17.850002677995 -3.71006 13.8461
505 1 16.549999843995 -4.42962 13.633
506 1 16.549999843995 -5.83039 13.0953
507 1 17.850002677995 -6.50775 12.7722
508 1 17.850002677995 -7.80716 12.022
509 1 16.549999843995 -8.42564 11.5969
510 1 16.549999843995 -9.59169 10.6526
511 1 17.850002677995 -10.1361 10.1361
512 1 17.850002677995 -11.14 9.02103
513 1 16.549999843995 -11.5969 8.42564
514 1 16.549999843995 -12.4141 7.16728
515 1 17.850002677995 -12.7722 6.50775
516 1 17.850002677995 -13.3825 5.13704
517 1 16.549999843995 -13.633 4.42962
518 1 16.549999843995 -14.0213 2.98032
519 1 17.850002677995 -14.1581 2.24242
520 1 17.850002677995 -14.3149 0.750212
521 1 16.549999843995 -14.3346 0
522 1 16.549999843995 -14.256 -1.49837
523 1 17.850002677995 -14.1581 -2.24242
524 1 17.850002677995 -13.8461 -3.71005
525 1 16.549999843995 -13.633 -4.42962
526 1 16.549999843995 -13.0953 -5.83039
527 1 17.850002677995 -12.7722 -6.50775
528 1 17.850002677995 -12.022 -7.80716
529 1 16.549999843995 -11.5969 -8.42564
530 1 16.549999843995 -10.6526 -9.59169
531 1 17.850002677995 -10.1361 -10.1361
532 1 17.850002677995 -9.02103 -11.14
533 1 16.549999843995 -8.42564 -11.5969
534 1 16.549999843995 -7.16728 -12.4141
535 1 17.850002677995 -6.50775 -12.7722
536 1 17.850002677995 -5.13704 -13.3825
537 1 16.549999843995 -4.42962 -13.633
538 1 16.549999843995 -2.98032 -14.0213
539 1 17.850002677995 -2.24242 -14.1581
540 1 17.850002677995 -0.750213 -14.3149
541 1 16.549999843995 2.86691e-07 -14.3346
542 1 16.549999843995 1.49837 -14.256
543 1 17.850002677995 2.24242 -14.1581
544 1 17.850002677995 3.71006 -13.8461
545 1 16.549999843995 4.42962 -13.633
546 1 16.549999843995 5.83039 -13.0953
547 1 17.850002677995 6.50775 -12.7722
548 1 17.850002677995 7.80716 -12.022
549 1 16.549999843995 8.42564 -11.5969
550 1 16.549999843995 9.59169 -10.6526
551 1 17.850002677995 10.1361 -10.1361
552 1 17.850002677995 11.14 -9.02103
553 1 16.549999843995 11.5969 -8.42564
554 1 16.549999843995 12.4141 -7.16728
555 1 17.850002677995 12.7722 -6.50775
556 1 17.850002677995 13.3825 -5.13704
557 1 16.549999843995 13.633 -4.42962
558 1 16.549999843995 14.0213 -2.98032
559 1 17.850002677995 14.1581 -2.24242
560 1 17.850002677995 14.3149 -0.750212
561 1 19.149999817995 14.3346 0
562 1 19.149999817995 14.256 1.49837
563 1 20.450002651995 14.1581 2.24242
564 1 20.450002651995 13.8461 3.71005
565 1 19.149999817995 13.633 4.42962
566 1 19.149999817995 13.0953 5.83039
567 1 20.450002651995 12.7722 6.50775
568 1 20.450002651995 12.022 7.80716
569 1 19.149999817995 11.5969 8.42564
570 1 19.149999817995 10.6526 9.59169
571 1 20.450002651995 10.1361 10.1361
572 1 20.450002651995 9.02103 11.14
573 1 19.149999817995 8.42564 11.5969
574 1 19.149999817995 7.16728 12.4141
575 1 20.450002651995 6.50775 12.7722
576 1 20.450002651995 5.13704 13.3825
577 1 19.149999817995 4.42962 13.633
578 1 19.149999817995 2.98032 14.0213
579 1 20.450002651995 2.24242 14.1581
580 1 20.450002651995 0.750213 14.3149
581 1 19.149999817995 -2.86691e-07 14.3346
582 1 19.149999817995 -1.49837 14.256
583 1 20.450002651995 -2.24242 14.1581
584 1 20.450002651995 -3.71006 13.8461
585 1 19.149999817995 -4.42962 13.633
586 1 19.149999817995 -5.83039 13.0953
587 1 20.450002651995 -6.50775 12.7722
588 1 20.450002651995 -7.80716 12.022
589 1 19.149999817995 -8.42564 11.5969
590 1 19.149999817995 -9.59169 10.6526
591 1 20.450002651995 -10.1361 10.1361
592 1 20.450002651995 -11.14 9.02103
593 1 19.149999817995 -11.5969 8.42564
594 1 19.149999817995 -12.4141 7.16728
595 1 20.450002651995 -12.7722 6.50775
596 1 20.450002651995 -13.3825 5.13704
597 1 19.149999817995 -13.633 4.42962
598 1 19.149999817995 -14.0213 2.98032
599 1 20.450002651995 -14.1581 2.24242
600 1 20.450002651995 -14.3149 0.750212
601 1 19.149999817995 -14.3346 0
602 1 19.149999817995 -14.256 -1.49837
603 1 20.450002651995 -14.1581 -2.24242
604 1 20.450002651995 -13.8461 -3.71005
605 1 19.149999817995 -13.633 -4.42962
606 1 19.149999817995 -13.0953 -5.83039
607 1 20.450002651995 -12.7722 -6.50775
608 1 20.450002651995 -12.022 -7.80716
609 1 19.149999817995 -11.5969 -8.42564
610 1 19.149999817995 -10.6526 -9.59169
611 1 20.450002651995 -10.1361 -10.1361
612 1 20.450002651995 -9.02103 -11.14
613 1 19.149999817995 -8.42564 -11.5969
614 1 19.149999817995 -7.16728 -12.4141
615 1 20.450002651995 -6.50775 -12.7722
616 1 20.450002651995 -5.13704 -13.3825
617 1 19.149999817995 -4.42962 -13.633
618 1 19.149999817995 -2.98032 -14.0213
619 1 20.450002651995 -2.24242 -14.1581
620 1 20.450002651995 -0.750213 -14.3149
621 1 19.149999817995 2.86691e-07 -14.3346
622 1 19.149999817995 1.49837 -14.256
623 1 20.450002651995 2.24242 -14.1581
624 1 20.450002651995 3.71006 -13.8461
625 1 19.149999817995 4.42962 -13.633
626 1 19.149999817995 5.83039 -13.0953
627 1 20.450002651995 6.50775 -12.7722
628 1 20.450002651995 7.80716 -12.022
629 1 19.149999817995 8.42564 -11.5969
630 1 19.149999817995 9.59169 -10.6526
631 1 20.450002651995 10.1361 -10.1361
632 1 20.450002651995 11.14 -9.02103
633 1 19.149999817995 11.5969 -8.42564
634 1 19.149999817995 12.4141 -7.16728
635 1 20.450002651995 12.7722 -6.50775
636 1 20.450002651995 13.3825 -5.13704
637 1 19.149999817995 13.633 -4.42962
638 1 19.149999817995 14.0213 -2.98032
639 1 20.450002651995 14.1581 -2.24242
640 1 20.450002651995 14.3149 -0.750212
641 1 21.749999791995 14.3346 0
642 1 21.749999791995 14.256 1.49837
643 1 23.050002625995 14.1581 2.24242
644 1 23.050002625995 13.8461 3.71005
645 1 21.749999791995 13.633 4.42962
646 1 21.749999791995 13.0953 5.83039
647 1 23.050002625995 12.7722 6.50775
648 1 23.050002625995 12.022 7.80716
649 1 21.749999791995 11.5969 8.42564
650 1 21.749999791995 10.6526 9.59169
651 1 23.050002625995 10.1361 10.1361
652 1 23.050002625995 9.02103 11.14
653 1 21.749999791995 8.42564 11.5969
654 1 21.749999791995 7.16728 12.4141
655 1 23.050002625995 6.50775 12.7722
656 1 23.050002625995 5.13704 13.3825
657 1 21.749999791995 4.42962 13.633
658 1 21.749999791995 2.98032 14.0213
659 1 23.050002625995 2.24242 14.1581
660 1 23.050002625995 0.750213 14.3149
661 1 21.749999791995 -2.86691e-07 14.3346
662 1 21.749999791995 -1.49837 14.256
663 1 23.050002625995 -2.24242 14.1581
664 1 23.050002625995 -3.71006 13.8461
665 1 21.749999791995 -4.42962 13.633
666 1 21.749999791995 -5.83039 13.0953
667 1 23.050002625995 -6.50775 12.7722
668 1 23.050002625995 -7.80716 12.022
669 1 21.749999791995 -8.42564 11.5969
670 1 21.749999791995 -9.59169 10.6526
671 1 23.050002625995 -10.1361 10.1361
672 1 23.050002625995 -11.14 9.02103
673 1 21.749999791995 -11.5969 8.42564
674 1 21.749999791995 -12.4141 7.16728
675 1 23.050002625995 -12.7722 6.50775
676 1 23.050002625995 -13.3825 5.13704
677 1 21.749999791995 -13.633 4.42962
678 1 21.749999791995 -14.0213 2.98032
679 1 23.050002625995 -14.1581 2.24242
680 1 23.050002625995 -14.3149 0.750212
681 1 21.749999791995 -14.3346 0
682 1 21.749999791995 -14.256 -1.49837
683 1 23.050002625995 -14.1581 -2.24242
684 1 23.050002625995 -13.8461 -3.71005
685 1 21.749999791995 -13.633 -4.42962
686 1 21.749999791995 -13.0953 -5.83039
687 1 23.050002625995 -12.7722 -6.50775
688 1 23.050002625995 -12.022 -7.80716
689 1 21.749999791995 -11.5969 -8.42564
690 1 21.749999791995 -10.6526 -9.59169
691 1 23.050002625995 -10.1361 -10.1361
692 1 23.050002625995 -9.02103 -11.14
693 1 21.749999791995 -8.42564 -11.5969
694 1 21.749999791995 -7.16728 -12.4141
695 1 23.050002625995 -6.50775 -12.7722
696 1 23.050002625995 -5.13704 -13.3825
697 1 21.749999791995 -4.42962 -13.633
698 1 21.749999791995 -2.98032 -14.0213
699 1 23.050002625995 -2.24242 -14.1581
700 1 23.050002625995 -0.750213 -14.3149
701 1 21.749999791995 2.86691e-07 -14.3346
702 1 21.749999791995 1.49837 -14.256
703 1 23.050002625995 2.24242 -14.1581
704 1 23.050002625995 3.71006 -13.8461
705 1 21.749999791995 4.42962 -13.633
706 1 21.749999791995 5.83039 -13.0953
707 1 23.050002625995 6.50775 -12.7722
708 1 23.050002625995 7.80716 -12.022
709 1 21.749999791995 8.42564 -11.5969
710 1 21.749999791995 9.59169 -10.6526
711 1 23.050002625995 10.1361 -10.1361
712 1 23.050002625995 11.14 -9.02103
713 1 21.749999791995 11.5969 -8.42564
714 1 21.749999791995 12.4141 -7.16728
715 1 23.050002625995 12.7722 -6.50775
716 1 23.050002625995 13.3825 -5.13704
717 1 21.749999791995 13.633 -4.42962
718 1 21.749999791995 14.0213 -2.98032
719 1 23.050002625995 14.1581 -2.24242
720 1 23.050002625995 14.3149 -0.750212
721 1 24.349999765995 14.3346 0
722 1 24.349999765995 14.256 1.49837
723 1 25.650002599995 14.1581 2.24242
724 1 25.650002599995 13.8461 3.71005
725 1 24.349999765995 13.633 4.42962
726 1 24.349999765995 13.0953 5.83039
727 1 25.650002599995 12.7722 6.50775
728 1 25.650002599995 12.022 7.80716
729 1 24.349999765995 11.5969 8.42564
730 1 24.349999765995 10.6526 9.59169
731 1 25.650002599995 10.1361 10.1361
732 1 25.650002599995 9.02103 11.14
733 1 24.349999765995 8.42564 11.5969
734 1 24.349999765995 7.16728 12.4141
735 1 25.650002599995 6.50775 12.7722
736 1 25.650002599995 5.13704 13.3825
737 1 24.349999765995 4.42962 13.633
738 1 24.349999765995 2.98032 14.0213
739 1 25.650002599995 2.24242 14.1581
740 1 25.650002599995 0.750213 14.3149
741 1 24.349999765995 -2.86691e-07 14.3346
742 1 24.349999765995 -1.49837 14.256
743 1 25.650002599995 -2.24242 14.1581
744 1 25.650002599995 -3.71006 13.8461
745 1 24.349999765995 -4.42962 13.633
746 1 24.349999765995 -5.83039 13.0953
747 1 25.650002599995 -6.50775 12.7722
748 1 25.650002599995 -7.80716 12.022
749 1 24.349999765995 -8.42564 11.5969
750 1 24.349999765995 -9.59169 10.6526
751 1 25.650002599995 -10.1361 10.1361
752 1 25.650002599995 -11.14 9.02103
753 1 24.349999765995 -11.5969 8.42564
754 1 24.349999765995 -12.4141 7.16728
755 1 25.650002599995 -12.7722 6.50775
756 1 25.650002599995 -13.3825 5.13704
757 1 24.349999765995 -13.633 4.42962
758 1 24.349999765995 -14.0213 2.98032
759 1 25.650002599995 -14.1581 2.24242
760 1 25.650002599995 -14.3149 0.750212
761 1 24.349999765995 -14.3346 0
762 1 24.349999765995 -14.256 -1.49837
763 1 25.650002599995 -14.1581 -2.24242
764 1 25.650002599995 -13.8461 -3.71005
765 1 24.349999765995 -13.633 -4.42962
766 1 24.349999765995 -13.0953 -5.83039
767 1 25.650002599995 -12.7722 -6.50775
768 1 25.650002599995 -12.022 -7.80716
769 1 24.349999765995 -11.5969 -8.42564
770 1 24.349999765995 -10.6526 -9.59169
771 1 25.650002599995 -10.1361 -10.1361
772 1 25.650002599995 -9.02103 -11.14
773 1 24.349999765995 -8.42564 -11.5969
774 1 24.349999765995 -7.16728 -12.4141
775 1 25.650002599995 -6.50775 -12.7722
776 1 25.650002599995 -5.13704 -13.3825
777 1 24.349999765995 -4.42962 -13.633
778 1 24.349999765995 -2.98032 -14.0213