 # C nanotube of type armchair (20,20); radius: 14.335 A..
  
       39420  atoms
           1  atom types
 
0.0 50.0  xlo xhi
0.0 50.0  ylo yhi
0.0 570.0  zlo zhi
0.0 0.0 0.0  xy xz yz
 
Masses
 
            1   12.01100000             # C
 
Atoms # atomic
 
         1    1       14.334551280000       0.000000000000       0.000000000000
         2    1       14.256025174633       1.498368706133       0.000000000000
         3    1       14.158069445079       2.242417848567       1.300002834000
         4    1       13.846113486157       3.710054741052       1.300002834000
         5    1       13.632968456118       4.429619830817       0.000000000000
         6    1       13.095264529672       5.830387506587       0.000000000000
         7    1       12.772178938445       6.507750167647       1.300002834000
         8    1       12.021966436037       7.807156338256       1.300002834000
         9    1       11.596895959583       8.425637998378       0.000000000000
        10    1       10.652647530756       9.591687096267       0.000000000000
        11    1       10.136058398346      10.136058651849       1.300002834000
        12    1        9.021025545350      11.140038883372       1.300002834000
        13    1        8.425637951098      11.596895604827       0.000000000000
        14    1        7.167275640000      12.414085560000       0.000000000000
        15    1        6.507750102883      12.772178796120       1.300002834000
        16    1        5.137043899729      13.382456731940       1.300002834000
        17    1        4.429619746201      13.632968509470       0.000000000000
        18    1        2.980320925362      14.021306927084       0.000000000000
        19    1        2.242417502138      14.158068935192       1.300002834000
        20    1        0.750212502408      14.314906505903       1.300002834000
        21    1       -0.000000286691      14.334551051456       0.000000000000
        22    1       -1.498368856780      14.256025008402       0.000000000000
        23    1       -2.242418075520      14.158068935192       1.300002834000
        24    1       -3.710055087811      13.846113392901       1.300002834000
        25    1       -4.429619746201      13.632968509470       0.000000000000
        26    1       -5.830387223535      13.095264310960       0.000000000000
        27    1       -6.507750102883      12.772178796120       1.300002834000
        28    1       -7.807156247970      12.021966308487       1.300002834000
        29    1       -8.425637951098      11.596895604827       0.000000000000
        30    1       -9.591687185408      10.652647483948       0.000000000000
        31    1      -10.136058398346      10.136058651849       1.300002834000
        32    1      -11.140038328974       9.021025486850       1.300002834000
        33    1      -11.596895386201       8.425637998378       0.000000000000
        34    1      -12.414085219391       7.167275774010       0.000000000000
        35    1      -12.772178938445       6.507750167647       1.300002834000
        36    1      -13.382456117803       5.137043944905       1.300002834000
        37    1      -13.632968456118       4.429619830817       0.000000000000
        38    1      -14.021306931609       2.980321025522       0.000000000000
        39    1      -14.158069445079       2.242417848567       1.300002834000
        40    1      -14.314906350853       0.750212487633       1.300002834000
        41    1      -14.334551280000       0.000000000000       0.000000000000
        42    1      -14.256025174633      -1.498368706133       0.000000000000
        43    1      -14.158069445079      -2.242417848567       1.300002834000
        44    1      -13.846113486157      -3.710054741052       1.300002834000
        45    1      -13.632968456118      -4.429619830817       0.000000000000
        46    1      -13.095264529672      -5.830387506587       0.000000000000
        47    1      -12.772178938445      -6.507750167647       1.300002834000
        48    1      -12.021966436037      -7.807156338256       1.300002834000
        49    1      -11.596895959583      -8.425637998378       0.000000000000
        50    1      -10.652647530756      -9.591687096267       0.000000000000
        51    1      -10.136058398346     -10.136058651849       1.300002834000
        52    1       -9.021025545350     -11.140038883372       1.300002834000
        53    1       -8.425637951098     -11.596895604827       0.000000000000
        54    1       -7.167275640000     -12.414085560000       0.000000000000
        55    1       -6.507750102883     -12.772178796120       1.300002834000
        56    1       -5.137043899729     -13.382456731940       1.300002834000
        57    1       -4.429619746201     -13.632968509470       0.000000000000
        58    1       -2.980320925362     -14.021306927084       0.000000000000
        59    1       -2.242417502138     -14.158068935192       1.300002834000
        60    1       -0.750212502408     -14.314906505903       1.300002834000
        61    1        0.000000286691     -14.334551051456       0.000000000000
        62    1        1.498368856780     -14.256025008402       0.000000000000
        63    1        2.242418075520     -14.158068935192       1.300002834000
        64    1        3.710055087811     -13.846113392901       1.300002834000
        65    1        4.429619746201     -13.632968509470       0.000000000000
        66    1        5.830387223535     -13.095264310960       0.000000000000
        67    1        6.507750102883     -12.772178796120       1.300002834000
        68    1        7.807156247970     -12.021966308487       1.300002834000
        69    1        8.425637951098     -11.596895604827       0.000000000000
        70    1        9.591687185408     -10.652647483948       0.000000000000
        71    1       10.136058398346     -10.136058651849       1.300002834000
        72    1       11.140038328974      -9.021025486850       1.300002834000
        73    1       11.596895386201      -8.425637998378       0.000000000000
        74    1       12.414085219391      -7.167275774010       0.000000000000
        75    1       12.772178938445      -6.507750167647       1.300002834000
        76    1       13.382456117803      -5.137043944905       1.300002834000
        77    1       13.632968456118      -4.429619830817       0.000000000000
        78    1       14.021306931609      -2.980321025522       0.000000000000
        79    1       14.158069445079      -2.242417848567       1.300002834000
        80    1       14.314906350853      -0.750212487633       1.300002834000
        81    1       14.334551280000       0.000000000000       2.599999974000
        82    1       14.256025174633       1.498368706133       2.599999974000
        83    1       14.158069445079       2.242417848567       3.900002808000
        84    1       13.846113486157       3.710054741052       3.900002808000
        85    1       13.632968456118       4.429619830817       2.599999974000
        86    1       13.095264529672       5.830387506587       2.599999974000
        87    1       12.772178938445       6.507750167647       3.900002808000
        88    1       12.021966436037       7.807156338256       3.900002808000
        89    1       11.596895959583       8.425637998378       2.599999974000
        90    1       10.652647530756       9.591687096267       2.599999974000
        91    1       10.136058398346      10.136058651849       3.900002808000
        92    1        9.021025545350      11.140038883372       3.900002808000
        93    1        8.425637951098      11.596895604827       2.599999974000
        94    1        7.167275640000      12.414085560000       2.599999974000
        95    1        6.507750102883      12.772178796120       3.900002808000
        96    1        5.137043899729      13.382456731940       3.900002808000
        97    1        4.429619746201      13.632968509470       2.599999974000
        98    1        2.980320925362      14.021306927084       2.599999974000
        99    1        2.242417502138      14.158068935192       3.900002808000
       100    1        0.750212502408      14.314906505903       3.900002808000
       101    1       -0.000000286691      14.334551051456       2.599999974000
       102    1       -1.498368856780      14.256025008402       2.599999974000
       103    1       -2.242418075520      14.158068935192       3.900002808000
       104    1       -3.710055087811      13.846113392901       3.900002808000
       105    1       -4.429619746201      13.632968509470       2.599999974000
       106    1       -5.830387223535      13.095264310960       2.599999974000
       107    1       -6.507750102883      12.772178796120       3.900002808000
       108    1       -7.807156247970      12.021966308487       3.900002808000
       109    1       -8.425637951098      11.596895604827       2.599999974000
       110    1       -9.591687185408      10.652647483948       2.599999974000
       111    1      -10.136058398346      10.136058651849       3.900002808000
       112    1      -11.140038328974       9.021025486850       3.900002808000
       113    1      -11.596895386201       8.425637998378       2.599999974000
       114    1      -12.414085219391       7.167275774010       2.599999974000
       115    1      -12.772178938445       6.507750167647       3.900002808000
       116    1      -13.382456117803       5.137043944905       3.900002808000
       117    1      -13.632968456118       4.429619830817       2.599999974000
       118    1      -14.021306931609       2.980321025522       2.599999974000
       119    1      -14.158069445079       2.242417848567       3.900002808000
       120    1      -14.314906350853       0.750212487633       3.900002808000
       121    1      -14.334551280000       0.000000000000       2.599999974000
       122    1      -14.256025174633      -1.498368706133       2.599999974000
       123    1      -14.158069445079      -2.242417848567       3.900002808000
       124    1      -13.846113486157      -3.710054741052       3.900002808000
       125    1      -13.632968456118      -4.429619830817       2.599999974000
       126    1      -13.095264529672      -5.830387506587       2.599999974000
       127    1      -12.772178938445      -6.507750167647       3.900002808000
       128    1      -12.021966436037      -7.807156338256       3.900002808000
       129    1      -11.596895959583      -8.425637998378       2.599999974000
       130    1      -10.652647530756      -9.591687096267       2.599999974000
       131    1      -10.136058398346     -10.136058651849       3.900002808000
       132    1       -9.021025545350     -11.140038883372       3.900002808000
       133    1       -8.425637951098     -11.596895604827       2.599999974000
       134    1       -7.167275640000     -12.414085560000       2.599999974000
       135    1       -6.507750102883     -12.772178796120       3.900002808000
       136    1       -5.137043899729     -13.382456731940       3.900002808000
       137    1       -4.429619746201     -13.632968509470       2.599999974000
       138    1       -2.980320925362     -14.021306927084       2.599999974000
       139    1       -2.242417502138     -14.158068935192       3.900002808000
       140    1       -0.750212502408     -14.314906505903       3.900002808000
       141    1        0.000000286691     -14.334551051456       2.599999974000
       142    1        1.498368856780     -14.256025008402       2.599999974000
       143    1        2.242418075520     -14.158068935192       3.900002808000
       144    1        3.710055087811     -13.846113392901       3.900002808000
       145    1        4.429619746201     -13.632968509470       2.599999974000
       146    1        5.830387223535     -13.095264310960       2.599999974000
       147    1        6.507750102883     -12.772178796120       3.900002808000
       148    1        7.807156247970     -12.021966308487       3.900002808000
       149    1        8.425637951098     -11.596895604827       2.599999974000
       150    1        9.591687185408     -10.652647483948       2.599999974000
       151    1       10.136058398346     -10.136058651849       3.900002808000
       152    1       11.140038328974      -9.021025486850       3.900002808000
       153    1       11.596895386201      -8.425637998378       2.599999974000
       154    1       12.414085219391      -7.167275774010       2.599999974000
       155    1       12.772178938445      -6.507750167647       3.900002808000
       156    1       13.382456117803      -5.137043944905       3.900002808000
       157    1       13.632968456118      -4.429619830817       2.599999974000
       158    1       14.021306931609      -2.980321025522       2.599999974000
       159    1       14.158069445079      -2.242417848567       3.900002808000
       160    1       14.314906350853      -0.750212487633       3.900002808000
       161    1       14.334551280000       0.000000000000       5.199999948000
       162    1       14.256025174633       1.498368706133       5.199999948000
       163    1       14.158069445079       2.242417848567       6.500002782000
       164    1       13.846113486157       3.710054741052       6.500002782000
       165    1       13.632968456118       4.429619830817       5.199999948000
       166    1       13.095264529672       5.830387506587       5.199999948000
       167    1       12.772178938445       6.507750167647       6.500002782000
       168    1       12.021966436037       7.807156338256       6.500002782000
       169    1       11.596895959583       8.425637998378       5.199999948000
       170    1       10.652647530756       9.591687096267       5.199999948000
       171    1       10.136058398346      10.136058651849       6.500002782000
       172    1        9.021025545350      11.140038883372       6.500002782000
       173    1        8.425637951098      11.596895604827       5.199999948000
       174    1        7.167275640000      12.414085560000       5.199999948000
       175    1        6.507750102883      12.772178796120       6.500002782000
       176    1        5.137043899729      13.382456731940       6.500002782000
       177    1        4.429619746201      13.632968509470       5.199999948000
       178    1        2.980320925362      14.021306927084       5.199999948000
       179    1        2.242417502138      14.158068935192       6.500002782000
       180    1        0.750212502408      14.314906505903       6.500002782000
       181    1       -0.000000286691      14.334551051456       5.199999948000
       182    1       -1.498368856780      14.256025008402       5.199999948000
       183    1       -2.242418075520      14.158068935192       6.500002782000
       184    1       -3.710055087811      13.846113392901       6.500002782000
       185    1       -4.429619746201      13.632968509470       5.199999948000
       186    1       -5.830387223535      13.095264310960       5.199999948000
       187    1       -6.507750102883      12.772178796120       6.500002782000
       188    1       -7.807156247970      12.021966308487       6.500002782000
       189    1       -8.425637951098      11.596895604827       5.199999948000
       190    1       -9.591687185408      10.652647483948       5.199999948000
       191    1      -10.136058398346      10.136058651849       6.500002782000
       192    1      -11.140038328974       9.021025486850       6.500002782000
       193    1      -11.596895386201       8.425637998378       5.199999948000
       194    1      -12.414085219391       7.167275774010       5.199999948000
       195    1      -12.772178938445       6.507750167647       6.500002782000
       196    1      -13.382456117803       5.137043944905       6.500002782000
       197    1      -13.632968456118       4.429619830817       5.199999948000
       198    1      -14.021306931609       2.980321025522       5.199999948000
       199    1      -14.158069445079       2.242417848567       6.500002782000
       200    1      -14.314906350853       0.750212487633       6.500002782000
       201    1      -14.334551280000       0.000000000000       5.199999948000
       202    1      -14.256025174633      -1.498368706133       5.199999948000
       203    1      -14.158069445079      -2.242417848567       6.500002782000
       204    1      -13.846113486157      -3.710054741052       6.500002782000
       205    1      -13.632968456118      -4.429619830817       5.199999948000
       206    1      -13.095264529672      -5.830387506587       5.199999948000
       207    1      -12.772178938445      -6.507750167647       6.500002782000
       208    1      -12.021966436037      -7.807156338256       6.500002782000
       209    1      -11.596895959583      -8.425637998378       5.199999948000
       210    1      -10.652647530756      -9.591687096267       5.199999948000
       211    1      -10.136058398346     -10.136058651849       6.500002782000
       212    1       -9.021025545350     -11.140038883372       6.500002782000
       213    1       -8.425637951098     -11.596895604827       5.199999948000
       214    1       -7.167275640000     -12.414085560000       5.199999948000
       215    1       -6.507750102883     -12.772178796120       6.500002782000
       216    1       -5.137043899729     -13.382456731940       6.500002782000
       217    1       -4.429619746201     -13.632968509470       5.199999948000
       218    1       -2.980320925362     -14.021306927084       5.199999948000
       219    1       -2.242417502138     -14.158068935192       6.500002782000
       220    1       -0.750212502408     -14.314906505903       6.500002782000
       221    1        0.000000286691     -14.334551051456       5.199999948000
       222    1        1.498368856780     -14.256025008402       5.199999948000
       223    1        2.242418075520     -14.158068935192       6.500002782000
       224    1        3.710055087811     -13.846113392901       6.500002782000
       225    1        4.429619746201     -13.632968509470       5.199999948000
       226    1        5.830387223535     -13.095264310960       5.199999948000
       227    1        6.507750102883     -12.772178796120       6.500002782000
       228    1        7.807156247970     -12.021966308487       6.500002782000
       229    1        8.425637951098     -11.596895604827       5.199999948000
       230    1        9.591687185408     -10.652647483948       5.199999948000
       231    1       10.136058398346     -10.136058651849       6.500002782000
       232    1       11.140038328974      -9.021025486850       6.500002782000
       233    1       11.596895386201      -8.425637998378       5.199999948000
       234    1       12.414085219391      -7.167275774010       5.199999948000
       235    1       12.772178938445      -6.507750167647       6.500002782000
       236    1       13.382456117803      -5.137043944905       6.500002782000
       237    1       13.632968456118      -4.429619830817       5.199999948000
       238    1       14.021306931609      -2.980321025522       5.199999948000
       239    1       14.158069445079      -2.242417848567       6.500002782000
       240    1       14.314906350853      -0.750212487633       6.500002782000
       241    1       14.334551280000       0.000000000000       7.799999922000
       242    1       14.256025174633       1.498368706133       7.799999922000
       243    1       14.158069445079       2.242417848567       9.100002756000
       244    1       13.846113486157       3.710054741052       9.100002756000
       245    1       13.632968456118       4.429619830817       7.799999922000
       246    1       13.095264529672       5.830387506587       7.799999922000
       247    1       12.772178938445       6.507750167647       9.100002756000
       248    1       12.021966436037       7.807156338256       9.100002756000
       249    1       11.596895959583       8.425637998378       7.799999922000
       250    1       10.652647530756       9.591687096267       7.799999922000
       251    1       10.136058398346      10.136058651849       9.100002756000
       252    1        9.021025545350      11.140038883372       9.100002756000
       253    1        8.425637951098      11.596895604827       7.799999922000
       254    1        7.167275640000      12.414085560000       7.799999922000
       255    1        6.507750102883      12.772178796120       9.100002756000
       256    1        5.137043899729      13.382456731940       9.100002756000
       257    1        4.429619746201      13.632968509470       7.799999922000
       258    1        2.980320925362      14.021306927084       7.799999922000
       259    1        2.242417502138      14.158068935192       9.100002756000
       260    1        0.750212502408      14.314906505903       9.100002756000
       261    1       -0.000000286691      14.334551051456       7.799999922000
       262    1       -1.498368856780      14.256025008402       7.799999922000
       263    1       -2.242418075520      14.158068935192       9.100002756000
       264    1       -3.710055087811      13.846113392901       9.100002756000
       265    1       -4.429619746201      13.632968509470       7.799999922000
       266    1       -5.830387223535      13.095264310960       7.799999922000
       267    1       -6.507750102883      12.772178796120       9.100002756000
       268    1       -7.807156247970      12.021966308487       9.100002756000
       269    1       -8.425637951098      11.596895604827       7.799999922000
       270    1       -9.591687185408      10.652647483948       7.799999922000
       271    1      -10.136058398346      10.136058651849       9.100002756000
       272    1      -11.140038328974       9.021025486850       9.100002756000
       273    1      -11.596895386201       8.425637998378       7.799999922000
       274    1      -12.414085219391       7.167275774010       7.799999922000
       275    1      -12.772178938445       6.507750167647       9.100002756000
       276    1      -13.382456117803       5.137043944905       9.100002756000
       277    1      -13.632968456118       4.429619830817       7.799999922000
       278    1      -14.021306931609       2.980321025522       7.799999922000
       279    1      -14.158069445079       2.242417848567       9.100002756000
       280    1      -14.314906350853       0.750212487633       9.100002756000
       281    1      -14.334551280000       0.000000000000       7.799999922000
       282    1      -14.256025174633      -1.498368706133       7.799999922000
       283    1      -14.158069445079      -2.242417848567       9.100002756000
       284    1      -13.846113486157      -3.710054741052       9.100002756000
       285    1      -13.632968456118      -4.429619830817       7.799999922000
       286    1      -13.095264529672      -5.830387506587       7.799999922000
       287    1      -12.772178938445      -6.507750167647       9.100002756000
       288    1      -12.021966436037      -7.807156338256       9.100002756000
       289    1      -11.596895959583      -8.425637998378       7.799999922000
       290    1      -10.652647530756      -9.591687096267       7.799999922000
       291    1      -10.136058398346     -10.136058651849       9.100002756000
       292    1       -9.021025545350     -11.140038883372       9.100002756000
       293    1       -8.425637951098     -11.596895604827       7.799999922000
       294    1       -7.167275640000     -12.414085560000       7.799999922000
       295    1       -6.507750102883     -12.772178796120       9.100002756000
       296    1       -5.137043899729     -13.382456731940       9.100002756000
       297    1       -4.429619746201     -13.632968509470       7.799999922000
       298    1       -2.980320925362     -14.021306927084       7.799999922000
       299    1       -2.242417502138     -14.158068935192       9.100002756000
       300    1       -0.750212502408     -14.314906505903       9.100002756000
       301    1        0.000000286691     -14.334551051456       7.799999922000
       302    1        1.498368856780     -14.256025008402       7.799999922000
       303    1        2.242418075520     -14.158068935192       9.100002756000
       304    1        3.710055087811     -13.846113392901       9.100002756000
       305    1        4.429619746201     -13.632968509470       7.799999922000
       306    1        5.830387223535     -13.095264310960       7.799999922000
       307    1        6.507750102883     -12.772178796120       9.100002756000
       308    1        7.807156247970     -12.021966308487       9.100002756000
       309    1        8.425637951098     -11.596895604827       7.799999922000
       310    1        9.591687185408     -10.652647483948       7.799999922000
       311    1       10.136058398346     -10.136058651849       9.100002756000
       312    1       11.140038328974      -9.021025486850       9.100002756000
       313    1       11.596895386201      -8.425637998378       7.799999922000
       314    1       12.414085219391      -7.167275774010       7.799999922000
       315    1       12.772178938445      -6.507750167647       9.100002756000
       316    1       13.382456117803      -5.137043944905       9.100002756000
       317    1       13.632968456118      -4.429619830817       7.799999922000
       318    1       14.021306931609      -2.980321025522       7.799999922000
       319    1       14.158069445079      -2.242417848567       9.100002756000
       320    1       14.314906350853      -0.750212487633       9.100002756000
       321    1       14.334551280000       0.000000000000      10.399999896000
       322    1       14.256025174633       1.498368706133      10.399999896000
       323    1       14.158069445079       2.242417848567      11.700002730000
       324    1       13.846113486157       3.710054741052      11.700002730000
       325    1       13.632968456118       4.429619830817      10.399999896000
       326    1       13.095264529672       5.830387506587      10.399999896000
       327    1       12.772178938445       6.507750167647      11.700002730000
       328    1       12.021966436037       7.807156338256      11.700002730000
       329    1       11.596895959583       8.425637998378      10.399999896000
       330    1       10.652647530756       9.591687096267      10.399999896000
       331    1       10.136058398346      10.136058651849      11.700002730000
       332    1        9.021025545350      11.140038883372      11.700002730000
       333    1        8.425637951098      11.596895604827      10.399999896000
       334    1        7.167275640000      12.414085560000      10.399999896000
       335    1        6.507750102883      12.772178796120      11.700002730000
       336    1        5.137043899729      13.382456731940      11.700002730000
       337    1        4.429619746201      13.632968509470      10.399999896000
       338    1        2.980320925362      14.021306927084      10.399999896000
       339    1        2.242417502138      14.158068935192      11.700002730000
       340    1        0.750212502408      14.314906505903      11.700002730000
       341    1       -0.000000286691      14.334551051456      10.399999896000
       342    1       -1.498368856780      14.256025008402      10.399999896000
       343    1       -2.242418075520      14.158068935192      11.700002730000
       344    1       -3.710055087811      13.846113392901      11.700002730000
       345    1       -4.429619746201      13.632968509470      10.399999896000
       346    1       -5.830387223535      13.095264310960      10.399999896000
       347    1       -6.507750102883      12.772178796120      11.700002730000
       348    1       -7.807156247970      12.021966308487      11.700002730000
       349    1       -8.425637951098      11.596895604827      10.399999896000
       350    1       -9.591687185408      10.652647483948      10.399999896000
       351    1      -10.136058398346      10.136058651849      11.700002730000
       352    1      -11.140038328974       9.021025486850      11.700002730000
       353    1      -11.596895386201       8.425637998378      10.399999896000
       354    1      -12.414085219391       7.167275774010      10.399999896000
       355    1      -12.772178938445       6.507750167647      11.700002730000
       356    1      -13.382456117803       5.137043944905      11.700002730000
       357    1      -13.632968456118       4.429619830817      10.399999896000
       358    1      -14.021306931609       2.980321025522      10.399999896000
       359    1      -14.158069445079       2.242417848567      11.700002730000
       360    1      -14.314906350853       0.750212487633      11.700002730000
       361    1      -14.334551280000       0.000000000000      10.399999896000
       362    1      -14.256025174633      -1.498368706133      10.399999896000
       363    1      -14.158069445079      -2.242417848567      11.700002730000
       364    1      -13.846113486157      -3.710054741052      11.700002730000
       365    1      -13.632968456118      -4.429619830817      10.399999896000
       366    1      -13.095264529672      -5.830387506587      10.399999896000
       367    1      -12.772178938445      -6.507750167647      11.700002730000
       368    1      -12.021966436037      -7.807156338256      11.700002730000
       369    1      -11.596895959583      -8.425637998378      10.399999896000
       370    1      -10.652647530756      -9.591687096267      10.399999896000
       371    1      -10.136058398346     -10.136058651849      11.700002730000