 # C nanotube of type armchair (20,20); radius: 14.335 A..
  
       39420  atoms
           1  atom types
 
      0.000000000000      50.000000000000  xlo xhi
      0.000000000000      50.000000000000  ylo yhi
      0.000000000000     570.000000000000  zlo zhi
 
Masses
 
            1   12.01100000             # C
 
Atoms # atomic
 
         1    1       39.334551280000      25.000000000000       0.949999999995
         2    1       39.256025174633      26.498368706133       0.949999999995
         3    1       39.158069445079      27.242417848567       2.250002833995
         4    1       38.846113486157      28.710054741052       2.250002833995
         5    1       38.632968456118      29.429619830817       0.949999999995
         6    1       38.095264529672      30.830387506587       0.949999999995
         7    1       37.772178938445      31.507750167647       2.250002833995
         8    1       37.021966436037      32.807156338256       2.250002833995
         9    1       36.596895959583      33.425637998378       0.949999999995
        10    1       35.652647530756      34.591687096267       0.949999999995
        11    1       35.136058398346      35.136058651849       2.250002833995
        12    1       34.021025545350      36.140038883372       2.250002833995
        13    1       33.425637951098      36.596895604827       0.949999999995
        14    1       32.167275640000      37.414085560000       0.949999999995
        15    1       31.507750102883      37.772178796120       2.250002833995
        16    1       30.137043899729      38.382456731940       2.250002833995
        17    1       29.429619746201      38.632968509470       0.949999999995
        18    1       27.980320925362      39.021306927084       0.949999999995
        19    1       27.242417502138      39.158068935192       2.250002833995
        20    1       25.750212502408      39.314906505903       2.250002833995
        21    1       24.999999713309      39.334551051456       0.949999999995
        22    1       23.501631143220      39.256025008402       0.949999999995
        23    1       22.757581924480      39.158068935192       2.250002833995
        24    1       21.289944912189      38.846113392901       2.250002833995
        25    1       20.570380253799      38.632968509470       0.949999999995
        26    1       19.169612776465      38.095264310960       0.949999999995
        27    1       18.492249897117      37.772178796120       2.250002833995
        28    1       17.192843752030      37.021966308487       2.250002833995
        29    1       16.574362048902      36.596895604827       0.949999999995
        30    1       15.408312814592      35.652647483948       0.949999999995
        31    1       14.863941601654      35.136058651849       2.250002833995
        32    1       13.859961671026      34.021025486850       2.250002833995
        33    1       13.403104613799      33.425637998378       0.949999999995
        34    1       12.585914780609      32.167275774010       0.949999999995
        35    1       12.227821061555      31.507750167647       2.250002833995
        36    1       11.617543882197      30.137043944905       2.250002833995
        37    1       11.367031543882      29.429619830817       0.949999999995
        38    1       10.978693068391      27.980321025522       0.949999999995
        39    1       10.841930554921      27.242417848567       2.250002833995
        40    1       10.685093649147      25.750212487633       2.250002833995
        41    1       10.665448720000      25.000000000000       0.949999999995
        42    1       10.743974825367      23.501631293867       0.949999999995
        43    1       10.841930554921      22.757582151433       2.250002833995
        44    1       11.153886513843      21.289945258948       2.250002833995
        45    1       11.367031543882      20.570380169183       0.949999999995
        46    1       11.904735470328      19.169612493413       0.949999999995
        47    1       12.227821061555      18.492249832353       2.250002833995
        48    1       12.978033563963      17.192843661744       2.250002833995
        49    1       13.403104040417      16.574362001622       0.949999999995
        50    1       14.347352469244      15.408312903733       0.949999999995
        51    1       14.863941601654      14.863941348151       2.250002833995
        52    1       15.978974454650      13.859961116628       2.250002833995
        53    1       16.574362048902      13.403104395173       0.949999999995
        54    1       17.832724360000      12.585914440000       0.949999999995
        55    1       18.492249897117      12.227821203880       2.250002833995
        56    1       19.862956100271      11.617543268060       2.250002833995
        57    1       20.570380253799      11.367031490530       0.949999999995
        58    1       22.019679074638      10.978693072916       0.949999999995
        59    1       22.757582497862      10.841931064808       2.250002833995
        60    1       24.249787497592      10.685093494097       2.250002833995
        61    1       25.000000286691      10.665448948544       0.949999999995
        62    1       26.498368856780      10.743974991598       0.949999999995
        63    1       27.242418075520      10.841931064808       2.250002833995
        64    1       28.710055087811      11.153886607099       2.250002833995
        65    1       29.429619746201      11.367031490530       0.949999999995
        66    1       30.830387223535      11.904735689040       0.949999999995
        67    1       31.507750102883      12.227821203880       2.250002833995
        68    1       32.807156247970      12.978033691513       2.250002833995
        69    1       33.425637951098      13.403104395173       0.949999999995
        70    1       34.591687185408      14.347352516052       0.949999999995
        71    1       35.136058398346      14.863941348151       2.250002833995
        72    1       36.140038328974      15.978974513150       2.250002833995
        73    1       36.596895386201      16.574362001622       0.949999999995
        74    1       37.414085219391      17.832724225990       0.949999999995
        75    1       37.772178938445      18.492249832353       2.250002833995
        76    1       38.382456117803      19.862956055095       2.250002833995
        77    1       38.632968456118      20.570380169183       0.949999999995
        78    1       39.021306931609      22.019678974478       0.949999999995
        79    1       39.158069445079      22.757582151433       2.250002833995
        80    1       39.314906350853      24.249787512367       2.250002833995
        81    1       39.334551280000      25.000000000000       3.549999973995
        82    1       39.256025174633      26.498368706133       3.549999973995
        83    1       39.158069445079      27.242417848567       4.850002807995
        84    1       38.846113486157      28.710054741052       4.850002807995
        85    1       38.632968456118      29.429619830817       3.549999973995
        86    1       38.095264529672      30.830387506587       3.549999973995
        87    1       37.772178938445      31.507750167647       4.850002807995
        88    1       37.021966436037      32.807156338256       4.850002807995
        89    1       36.596895959583      33.425637998378       3.549999973995
        90    1       35.652647530756      34.591687096267       3.549999973995
        91    1       35.136058398346      35.136058651849       4.850002807995
        92    1       34.021025545350      36.140038883372       4.850002807995
        93    1       33.425637951098      36.596895604827       3.549999973995
        94    1       32.167275640000      37.414085560000       3.549999973995
        95    1       31.507750102883      37.772178796120       4.850002807995
        96    1       30.137043899729      38.382456731940       4.850002807995
        97    1       29.429619746201      38.632968509470       3.549999973995
        98    1       27.980320925362      39.021306927084       3.549999973995
        99    1       27.242417502138      39.158068935192       4.850002807995
       100    1       25.750212502408      39.314906505903       4.850002807995
       101    1       24.999999713309      39.334551051456       3.549999973995
       102    1       23.501631143220      39.256025008402       3.549999973995
       103    1       22.757581924480      39.158068935192       4.850002807995
       104    1       21.289944912189      38.846113392901       4.850002807995
       105    1       20.570380253799      38.632968509470       3.549999973995
       106    1       19.169612776465      38.095264310960       3.549999973995
       107    1       18.492249897117      37.772178796120       4.850002807995
       108    1       17.192843752030      37.021966308487       4.850002807995
       109    1       16.574362048902      36.596895604827       3.549999973995
       110    1       15.408312814592      35.652647483948       3.549999973995
       111    1       14.863941601654      35.136058651849       4.850002807995
       112    1       13.859961671026      34.021025486850       4.850002807995
       113    1       13.403104613799      33.425637998378       3.549999973995
       114    1       12.585914780609      32.167275774010       3.549999973995
       115    1       12.227821061555      31.507750167647       4.850002807995
       116    1       11.617543882197      30.137043944905       4.850002807995
       117    1       11.367031543882      29.429619830817       3.549999973995
       118    1       10.978693068391      27.980321025522       3.549999973995
       119    1       10.841930554921      27.242417848567       4.850002807995
       120    1       10.685093649147      25.750212487633       4.850002807995
       121    1       10.665448720000      25.000000000000       3.549999973995
       122    1       10.743974825367      23.501631293867       3.549999973995
       123    1       10.841930554921      22.757582151433       4.850002807995
       124    1       11.153886513843      21.289945258948       4.850002807995
       125    1       11.367031543882      20.570380169183       3.549999973995
       126    1       11.904735470328      19.169612493413       3.549999973995
       127    1       12.227821061555      18.492249832353       4.850002807995
       128    1       12.978033563963      17.192843661744       4.850002807995
       129    1       13.403104040417      16.574362001622       3.549999973995
       130    1       14.347352469244      15.408312903733       3.549999973995
       131    1       14.863941601654      14.863941348151       4.850002807995
       132    1       15.978974454650      13.859961116628       4.850002807995
       133    1       16.574362048902      13.403104395173       3.549999973995
       134    1       17.832724360000      12.585914440000       3.549999973995
       135    1       18.492249897117      12.227821203880       4.850002807995
       136    1       19.862956100271      11.617543268060       4.850002807995
       137    1       20.570380253799      11.367031490530       3.549999973995
       138    1       22.019679074638      10.978693072916       3.549999973995
       139    1       22.757582497862      10.841931064808       4.850002807995
       140    1       24.249787497592      10.685093494097       4.850002807995
       141    1       25.000000286691      10.665448948544       3.549999973995
       142    1       26.498368856780      10.743974991598       3.549999973995
       143    1       27.242418075520      10.841931064808       4.850002807995
       144    1       28.710055087811      11.153886607099       4.850002807995
       145    1       29.429619746201      11.367031490530       3.549999973995
       146    1       30.830387223535      11.904735689040       3.549999973995
       147    1       31.507750102883      12.227821203880       4.850002807995
       148    1       32.807156247970      12.978033691513       4.850002807995
       149    1       33.425637951098      13.403104395173       3.549999973995
       150    1       34.591687185408      14.347352516052       3.549999973995
       151    1       35.136058398346      14.863941348151       4.850002807995
       152    1       36.140038328974      15.978974513150       4.850002807995
       153    1       36.596895386201      16.574362001622       3.549999973995
       154    1       37.414085219391      17.832724225990       3.549999973995
       155    1       37.772178938445      18.492249832353       4.850002807995
       156    1       38.382456117803      19.862956055095       4.850002807995
       157    1       38.632968456118      20.570380169183       3.549999973995
       158    1       39.021306931609      22.019678974478       3.549999973995
       159    1       39.158069445079      22.757582151433       4.850002807995
       160    1       39.314906350853      24.249787512367       4.850002807995
       161    1       39.334551280000      25.000000000000       6.149999947995
       162    1       39.256025174633      26.498368706133       6.149999947995
       163    1       39.158069445079      27.242417848567       7.450002781995
       164    1       38.846113486157      28.710054741052       7.450002781995
       165    1       38.632968456118      29.429619830817       6.149999947995
       166    1       38.095264529672      30.830387506587       6.149999947995
       167    1       37.772178938445      31.507750167647       7.450002781995
       168    1       37.021966436037      32.807156338256       7.450002781995
       169    1       36.596895959583      33.425637998378       6.149999947995
       170    1       35.652647530756      34.591687096267       6.149999947995
       171    1       35.136058398346      35.136058651849       7.450002781995
       172    1       34.021025545350      36.140038883372       7.450002781995
       173    1       33.425637951098      36.596895604827       6.149999947995
       174    1       32.167275640000      37.414085560000       6.149999947995
       175    1       31.507750102883      37.772178796120       7.450002781995
       176    1       30.137043899729      38.382456731940       7.450002781995
       177    1       29.429619746201      38.632968509470       6.149999947995
       178    1       27.980320925362      39.021306927084       6.149999947995
       179    1       27.242417502138      39.158068935192       7.450002781995
       180    1       25.750212502408      39.314906505903       7.450002781995
       181    1       24.999999713309      39.334551051456       6.149999947995
       182    1       23.501631143220      39.256025008402       6.149999947995
       183    1       22.757581924480      39.158068935192       7.450002781995
       184    1       21.289944912189      38.846113392901       7.450002781995
       185    1       20.570380253799      38.632968509470       6.149999947995
       186    1       19.169612776465      38.095264310960       6.149999947995
       187    1       18.492249897117      37.772178796120       7.450002781995
       188    1       17.192843752030      37.021966308487       7.450002781995
       189    1       16.574362048902      36.596895604827       6.149999947995
       190    1       15.408312814592      35.652647483948       6.149999947995
       191    1       14.863941601654      35.136058651849       7.450002781995
       192    1       13.859961671026      34.021025486850       7.450002781995
       193    1       13.403104613799      33.425637998378       6.149999947995
       194    1       12.585914780609      32.167275774010       6.149999947995
       195    1       12.227821061555      31.507750167647       7.450002781995
       196    1       11.617543882197      30.137043944905       7.450002781995
       197    1       11.367031543882      29.429619830817       6.149999947995
       198    1       10.978693068391      27.980321025522       6.149999947995
       199    1       10.841930554921      27.242417848567       7.450002781995
       200    1       10.685093649147      25.750212487633       7.450002781995
       201    1       10.665448720000      25.000000000000       6.149999947995
       202    1       10.743974825367      23.501631293867       6.149999947995
       203    1       10.841930554921      22.757582151433       7.450002781995
       204    1       11.153886513843      21.289945258948       7.450002781995
       205    1       11.367031543882      20.570380169183       6.149999947995
       206    1       11.904735470328      19.169612493413       6.149999947995
       207    1       12.227821061555      18.492249832353       7.450002781995
       208    1       12.978033563963      17.192843661744       7.450002781995
       209    1       13.403104040417      16.574362001622       6.149999947995
       210    1       14.347352469244      15.408312903733       6.149999947995
       211    1       14.863941601654      14.863941348151       7.450002781995
       212    1       15.978974454650      13.859961116628       7.450002781995
       213    1       16.574362048902      13.403104395173       6.149999947995
       214    1       17.832724360000      12.585914440000       6.149999947995
       215    1       18.492249897117      12.227821203880       7.450002781995
       216    1       19.862956100271      11.617543268060       7.450002781995
       217    1       20.570380253799      11.367031490530       6.149999947995
       218    1       22.019679074638      10.978693072916       6.149999947995
       219    1       22.757582497862      10.841931064808       7.450002781995
       220    1       24.249787497592      10.685093494097       7.450002781995
       221    1       25.000000286691      10.665448948544       6.149999947995
       222    1       26.498368856780      10.743974991598       6.149999947995
       223    1       27.242418075520      10.841931064808       7.450002781995
       224    1       28.710055087811      11.153886607099       7.450002781995
       225    1       29.429619746201      11.367031490530       6.149999947995
       226    1       30.830387223535      11.904735689040       6.149999947995
       227    1       31.507750102883      12.227821203880       7.450002781995
       228    1       32.807156247970      12.978033691513       7.450002781995
       229    1       33.425637951098      13.403104395173       6.149999947995
       230    1       34.591687185408      14.347352516052       6.149999947995
       231    1       35.136058398346      14.863941348151       7.450002781995
       232    1       36.140038328974      15.978974513150       7.450002781995
       233    1       36.596895386201      16.574362001622       6.149999947995
       234    1       37.414085219391      17.832724225990       6.149999947995
       235    1       37.772178938445      18.492249832353       7.450002781995
       236    1       38.382456117803      19.862956055095       7.450002781995
       237    1       38.632968456118      20.570380169183       6.149999947995
       238    1       39.021306931609      22.019678974478       6.149999947995
       239    1       39.158069445079      22.757582151433       7.450002781995
       240    1       39.314906350853      24.249787512367       7.450002781995
       241    1       39.334551280000      25.000000000000       8.749999921995
       242    1       39.256025174633      26.498368706133       8.749999921995
       243    1       39.158069445079      27.242417848567      10.050002755995
       244    1       38.846113486157      28.710054741052      10.050002755995
       245    1       38.632968456118      29.429619830817       8.749999921995
       246    1       38.095264529672      30.830387506587       8.749999921995
       247    1       37.772178938445      31.507750167647      10.050002755995
       248    1       37.021966436037      32.807156338256      10.050002755995
       249    1       36.596895959583      33.425637998378       8.749999921995
       250    1       35.652647530756      34.591687096267       8.749999921995
       251    1       35.136058398346      35.136058651849      10.050002755995
       252    1       34.021025545350      36.140038883372      10.050002755995
       253    1       33.425637951098      36.596895604827       8.749999921995
       254    1       32.167275640000      37.414085560000       8.749999921995
       255    1       31.507750102883      37.772178796120      10.050002755995
       256    1       30.137043899729      38.382456731940      10.050002755995
       257    1       29.429619746201      38.632968509470       8.749999921995
       258    1       27.980320925362      39.021306927084       8.749999921995
       259    1       27.242417502138      39.158068935192      10.050002755995
       260    1       25.750212502408      39.314906505903      10.050002755995
       261    1       24.999999713309      39.334551051456       8.749999921995
       262    1       23.501631143220      39.256025008402       8.749999921995
       263    1       22.757581924480      39.158068935192      10.050002755995
       264    1       21.289944912189      38.846113392901      10.050002755995
       265    1       20.570380253799      38.632968509470       8.749999921995
       266    1       19.169612776465      38.095264310960       8.749999921995
       267    1       18.492249897117      37.772178796120      10.050002755995
       268    1       17.192843752030      37.021966308487      10.050002755995
       269    1       16.574362048902      36.596895604827       8.749999921995
       270    1       15.408312814592      35.652647483948       8.749999921995
       271    1       14.863941601654      35.136058651849      10.050002755995
       272    1       13.859961671026      34.021025486850      10.050002755995
       273    1       13.403104613799      33.425637998378       8.749999921995
       274    1       12.585914780609      32.167275774010       8.749999921995
       275    1       12.227821061555      31.507750167647      10.050002755995
       276    1       11.617543882197      30.137043944905      10.050002755995
       277    1       11.367031543882      29.429619830817       8.749999921995
       278    1       10.978693068391      27.980321025522       8.749999921995
       279    1       10.841930554921      27.242417848567      10.050002755995
       280    1       10.685093649147      25.750212487633      10.050002755995
       281    1       10.665448720000      25.000000000000       8.749999921995
       282    1       10.743974825367      23.501631293867       8.749999921995
       283    1       10.841930554921      22.757582151433      10.050002755995
       284    1       11.153886513843      21.289945258948      10.050002755995
       285    1       11.367031543882      20.570380169183       8.749999921995
       286    1       11.904735470328      19.169612493413       8.749999921995
       287    1       12.227821061555      18.492249832353      10.050002755995
       288    1       12.978033563963      17.192843661744      10.050002755995
       289    1       13.403104040417      16.574362001622       8.749999921995
       290    1       14.347352469244      15.408312903733       8.749999921995
       291    1       14.863941601654      14.863941348151      10.050002755995
       292    1       15.978974454650      13.859961116628      10.050002755995
       293    1       16.574362048902      13.403104395173       8.749999921995
       294    1       17.832724360000      12.585914440000       8.749999921995
       295    1       18.492249897117      12.227821203880      10.050002755995
       296    1       19.862956100271      11.617543268060      10.050002755995
       297    1       20.570380253799      11.367031490530       8.749999921995
       298    1       22.019679074638      10.978693072916       8.749999921995
       299    1       22.757582497862      10.841931064808      10.050002755995
       300    1       24.249787497592      10.685093494097      10.050002755995
       301    1       25.000000286691      10.665448948544       8.749999921995
       302    1       26.498368856780      10.743974991598       8.749999921995
       303    1       27.242418075520      10.841931064808      10.050002755995
       304    1       28.710055087811      11.153886607099      10.050002755995
       305    1       29.429619746201      11.367031490530       8.749999921995
       306    1       30.830387223535      11.904735689040       8.749999921995
       307    1       31.507750102883      12.227821203880      10.050002755995
       308    1       32.807156247970      12.978033691513      10.050002755995
       309    1       33.425637951098      13.403104395173       8.749999921995
       310    1       34.591687185408      14.347352516052       8.749999921995
       311    1       35.136058398346      14.863941348151      10.050002755995
       312    1       36.140038328974      15.978974513150      10.050002755995
       313    1       36.596895386201      16.574362001622       8.749999921995
       314    1       37.414085219391      17.832724225990       8.749999921995
       315    1       37.772178938445      18.492249832353      10.050002755995
       316    1       38.382456117803      19.862956055095      10.050002755995
       317    1       38.632968456118      20.570380169183       8.749999921995
       318    1       39.021306931609      22.019678974478       8.749999921995
       319    1       39.158069445079      22.757582151433      10.050002755995
       320    1       39.314906350853      24.249787512367      10.050002755995
       321    1       39.334551280000      25.000000000000      11.349999895995
       322    1       39.256025174633      26.498368706133      11.349999895995
       323    1       39.158069445079      27.242417848567      12.650002729995
       324    1       38.846113486157      28.710054741052      12.650002729995
       325    1       38.632968456118      29.429619830817      11.349999895995
       326    1       38.095264529672      30.830387506587      11.349999895995
       327    1       37.772178938445      31.507750167647      12.650002729995
       328    1       37.021966436037      32.807156338256      12.650002729995
       329    1       36.596895959583      33.425637998378      11.349999895995
       330    1       35.652647530756      34.591687096267      11.349999895995
       331    1       35.136058398346      35.136058651849      12.650002729995
       332    1       34.021025545350      36.140038883372      12.650002729995
       333    1       33.425637951098      36.596895604827      11.349999895995
       334    1       32.167275640000      37.414085560000      11.349999895995
       335    1       31.507750102883      37.772178796120      12.650002729995
       336    1       30.137043899729      38.382456731940      12.650002729995
       337    1       29.429619746201      38.632968509470      11.349999895995
       338    1       27.980320925362      39.021306927084      11.349999895995
       339    1       27.242417502138      39.158068935192      12.650002729995
       340    1       25.750212502408      39.314906505903      12.650002729995
       341    1       24.999999713309      39.334551051456      11.349999895995
       342    1       23.501631143220      39.256025008402      11.349999895995
       343    1       22.757581924480      39.158068935192      12.650002729995
       344    1       21.289944912189      38.846113392901      12.650002729995
       345    1       20.570380253799      38.632968509470      11.349999895995
       346    1       19.169612776465      38.095264310960      11.349999895995
       347    1       18.492249897117      37.772178796120      12.650002729995
       348    1       17.192843752030      37.021966308487      12.650002729995
       349    1       16.574362048902      36.596895604827      11.349999895995
       350    1       15.408312814592      35.652647483948      11.349999895995
       351    1       14.863941601654      35.136058651849      12.650002729995
       352    1       13.859961671026      34.021025486850      12.650002729995
       353    1       13.403104613799      33.425637998378      11.349999895995
       354    1       12.585914780609      32.167275774010      11.349999895995
       355    1       12.227821061555      31.507750167647      12.650002729995
       356    1       11.617543882197      30.137043944905      12.650002729995
       357    1       11.367031543882      29.429619830817      11.349999895995
       358    1       10.978693068391      27.980321025522      11.349999895995
       359    1       10.841930554921      27.242417848567      12.650002729995
       360    1       10.685093649147      25.750212487633      12.650002729995
       361    1       10.665448720000      25.000000000000      11.349999895995
       362    1       10.743974825367      23.501631293867      11.349999895995
       363    1       10.841930554921      22.757582151433      12.650002729995
       364    1       11.153886513843      21.289945258948      12.650002729995
       365    1       11.367031543882      20.570380169183      11.349999895995
       366    1       11.904735470328      19.169612493413      11.349999895995
       367    1       12.227821061555      18.492249832353      12.650002729995
       368    1       12.978033563963      17.192843661744      12.650002729995
       369    1       13.403104040417      16.574362001622      11.349999895995
       370    1       14.347352469244      15.408312903733      11.349999895995