# LAMMPS data file written by OVITO Basic 3.8.4

8 atoms
2 atom types

0.0 4.61 xlo xhi
0.0 4.61 ylo yhi
0.0 4.61 zlo zhi

Masses

1 91.224  # Zr
2 14.007  # N

Atoms  # atomic

1 1 0.0 0.0 0.0
2 1 0.0 2.305 2.305
3 1 2.305 0.0 2.305
4 1 2.305 2.305 0.0
5 2 2.305 0.0 0.0
6 2 2.305 2.305 2.305
7 2 0.0 0.0 2.305
8 2 0.0 2.305 0.0
