Siesta Version:                                        siesta-trunk-411
Architecture  : x86_64-unknown-linux-gnu--Intel
Compiler flags: mpif90 -shared-intel -O2
PARALLEL version

* Running on  144 nodes in parallel
>> Start of run:   3-MAR-2014  18:15:30

                           ***********************       
                           *  WELCOME TO SIESTA  *       
                           ***********************       

reinit: Reading from standard input
************************** Dump of input data file ****************************
# Final relaxed coordinates
SystemLabel      ssy_dimer_c2prime_p
NumberOfAtoms    78
NumberOfSpecies  6
%block ChemicalSpeciesLabel
    1    6  C
    2   16  S
    3   11  Na
    4    7  N
    5    8  O
    6    1  H
%endblock ChemicalSpeciesLabel
LatticeConstant 1.0 Ang
%block LatticeParameters
  35.000000  24.000000  24.000000  90.000000  90.000000  90.000000
%endblock LatticeParameters
AtomicCoordinatesFormat NotScaledCartesianAng
%block AtomicCoordinatesAndAtomicSpecies
   24.71807019   13.72410516   12.71823002   5       1  O
   23.92568342   16.07670615   12.31735227   5       2  O
   24.12698295   14.47523456   10.39959212   5       3  O
   23.72869048   14.59172993   11.90072331   2       4  S
   15.51284838   13.64374049   12.32776742   5       5  O
   16.75694205   13.94393281   12.32648655   1       6  C
   16.41621873   16.11364468   12.23836158   6       7  H
   17.20251864   15.35479329   12.26234823   1       8  C
   18.84624223   16.73697721   12.11786839   6       9  H
   18.54450151   15.68749618   12.19447933   1      10  C
   19.61092277   14.67249334   12.21858814   1      11  C
   21.26269649   16.11783106   12.02211498   6      12  H
   20.98876705   15.06482105   12.12342400   1      13  C
   21.99355385   14.07231492   12.16729456   1      14  C
   22.49500667   11.94707886   12.38047872   6      15  H
   21.69030096   12.68544116   12.33536912   1      16  C
   20.07962709   11.23818070   12.53182236   6      17  H
   20.33291717   12.29401291   12.42059639   1      18  C
   19.27164900   13.26344988   12.33697031   1      19  C
   17.82806932   12.87726194   12.35204060   1      20  C
   17.55972488   11.54705019   12.33235423   4      21  N
   15.55099237   11.91253529   12.34229569   6      22  H
   16.27270819   11.15343019   12.32895808   4      23  N
   17.26100779    6.59658099   11.97352940   6      24  H
   16.52523298    7.40036221   12.03828478   1      25  C
   17.98215583    9.03171400   12.13013791   6      26  H
   16.92690746    8.75548114   12.13309732   1      27  C
   15.92642079    9.77734508   12.24120958   1      28  C
   13.77779711   10.23298356   12.30531712   6      29  H
   14.53245527    9.44313823   12.24474482   1      30  C
   13.06679766    7.83148350   12.10934177   6      31  H
   14.12815116    8.08832641   12.13777042   1      32  C
   15.13442813    7.08605296   12.04000363   1      33  C
   15.81979762    4.40989488   12.32809132   5      34  O
   13.42130943    5.00793730   12.79447038   5      35  O
   14.64308857    5.32831834   11.89283974   2      36  S
   14.26326087    4.93753505   10.43721183   5      37  O
   24.48480399    9.33104718   10.93868431   5      38  O
   23.99393601    9.30131198    9.46335682   2      39  S
   25.13932163    9.85452318    8.57621760   5      40  O
   23.76015775    7.81143043    9.08321327   5      41  O
   22.44561022   10.24719608    9.24657682   1      42  C
   22.49151196   11.66104521    9.09102127   1      43  C
   23.44139664   12.20052800    9.08939277   6      44  H
   21.26703450   12.36786847    8.97068105   1      45  C
   21.27515544   13.45763162    8.87073497   6      46  H
   20.02535929   11.65512512    9.02227585   1      47  C
   19.99899242   10.22984268    9.18166453   1      48  C
   19.04132815    9.70997506    9.22121017   6      49  H
   21.21887423    9.52249908    9.28921602   1      50  C
   21.23540820    8.43661704    9.39962937   6      51  H
   18.81800138   12.40182639    8.93846202   4      52  N
   18.79526554   13.44790495    8.92252972   6      53  H
   17.63106621   11.76787643    8.94084429   4      54  N
   16.49548676   12.50704214    8.93232612   1      55  C
   15.21394499   11.74146980    8.94048259   1      56  C
   15.17672711   10.30672708    8.82939353   1      57  C
   16.11226712    9.75837950    8.70562249   6      58  H
   13.95279715    9.60313113    8.89612898   1      59  C
   13.92324265    8.51300011    8.82655911   6      60  H
   12.74422617   10.34575961    9.07347616   1      61  C
   12.72579919   11.75646782    9.14903688   1      62  C
   11.77739097   12.28768633    9.26080116   6      63  H
   13.96689357   12.47568321    9.07173780   1      64  C
   13.98373604   13.94742758    9.12422746   1      65  C
   13.02125626   14.46167690    9.21372234   6      66  H
   15.15722022   14.67920585    9.06221823   1      67  C
   15.16027207   15.77140247    9.10254564   6      68  H
   16.47943227   14.01715746    8.97064360   1      69  C
   17.56309808   14.69545142    8.95643375   5      70  O
   11.17538259    9.43210626    9.28828458   2      71  S
   11.05428205    8.85127674   10.72712352   5      72  O
    9.95696223   10.36840252    9.05558628   5      73  O
   11.07037774    8.24669154    8.29477111   5      74  O
   25.85984540   15.28408044   11.61174183   3      75  Na
    9.21568095    8.32902549    9.50319639   3      76  Na
   14.09310560    3.15016143   11.74177636   3      77  Na
   25.85774472    8.07097469    9.74625022   3      78  Na
%endblock AtomicCoordinatesAndAtomicSpecies
XC.Functional  VDW
XC.Authors  LMKLL
PAO.BasisSize  TZP
%block PAO.Basis                                   # Define Basis set
C     2
n=2    0    3
 9.0 2.7 3.6
 1.0 1.0 1.0
n=2    1    3  P 1
 9.0 2.5 3.6
 1.0 1.0 1.0
N     2
n=2    0    3
 9.0 2.5 4.3
 1.0 1.0 1.0
n=2    1    3  P 1
 9.0 2.4 3.8
 1.0 1.0 1.0
O     2
n=2    0    3
 8.5 2.5 5.0
 1.0 1.0 1.0
n=2    1 3 P 1
 9.0 2.4 5.4
 1.0 1.0 1.0
H  1
n=1  0  3 P 1
 8.0 1.8 4.1
 1.0 1.0 1.0
S     2
n=3    0    3
 8.5 2.5 5.0
 1.0 1.0 1.0
n=3    1    3  P 1
 8.5 2.4 5.4
 1.0 1.0 1.0
%endblock PAO.Basis
PAO.SplitNorm  0.15
PAO.EnergyShift  0.001 Ry
DM.NumberPulay  5
DM.MixingWeight  0.25
SolutionMethod  diagon
MD.TypeOfRun  CG
MD.NumCGSteps  0
MD.MaxForceTol  0.01 eV/Ang
MeshCutoff  300.0 Ry
MaxSCFIterations  500
UseSaveData  true
LongOutput  true
PAO.SplitNormH        0.5
DM.Tolerance         1.d-4
WriteXML false
************************** End of input data file *****************************

reinit: -----------------------------------------------------------------------
reinit: System Name: 
reinit: -----------------------------------------------------------------------
reinit: System Label: ssy_dimer_c2prime_p                                         
reinit: -----------------------------------------------------------------------
 Processed:          148  lines.
 Processed:          148  lines.
 Processed:          148  lines.
 Processed:          148  lines.
 Processed:          148  lines.
 Processed:          148  lines.
 Processed:          148  lines.
 Processed:          148  lines.
 Processed:          148  lines.
 Processed:          148  lines.
 Processed:          148  lines.
 Processed:          148  lines.
 Processed:          148  lines.
 Processed:          148  lines.
 Processed:          148  lines.
 Processed:          148  lines.
 Processed:          148  lines.
 Processed:          148  lines.
 Processed:          148  lines.
 Processed:          148  lines.
 Processed:          148  lines.
 Processed:          148  lines.
 Processed:          148  lines.
 Processed:          148  lines.
 Processed:          148  lines.
 Processed:          148  lines.
 Processed:          148  lines.
 Processed:          148  lines.
 Processed:          148  lines.
 Processed:          148  lines.
 Processed:          148  lines.
 Processed:          148  lines.
 Processed:          148  lines.
 Processed:          148  lines.
 Processed:          148  lines.
 Processed:          148  lines.
 Processed:          148  lines.
 Processed:          148  lines.
 Processed:          148  lines.
 Processed:          148  lines.
 Processed:          148  lines.
 Processed:          148  lines.
 Processed:          148  lines.
 Processed:          148  lines.
 Processed:          148  lines.
 Processed:          148  lines.
 Processed:          148  lines.
 Processed:          148  lines.
 Processed:          148  lines.
 Processed:          148  lines.
 Processed:          148  lines.
 Processed:          148  lines.
 Processed:          148  lines.
 Processed:          148  lines.
 Processed:          148  lines.
 Processed:          148  lines.
 Processed:          148  lines.
 Processed:          148  lines.
 Processed:          148  lines.
 Processed:          148  lines.
 Processed:          148  lines.
 Processed:          148  lines.
 Processed:          148  lines.
 Processed:          148  lines.
 Processed:          148  lines.
 Processed:          148  lines.
 Processed:          148  lines.
 Processed:          148  lines.
 Processed:          148  lines.
 Processed:          148  lines.
 Processed:          148  lines.
 Processed:          148  lines.
 Processed:          148  lines.
 Processed:          148  lines.
 Processed:          148  lines.
 Processed:          148  lines.
 Processed:          148  lines.
 Processed:          148  lines.
 Processed:          148  lines.
 Processed:          148  lines.
 Processed:          148  lines.
 Processed:          148  lines.
 Processed:          148  lines.
 Processed:          148  lines.
 Processed:          148  lines.
 Processed:          148  lines.
 Processed:          148  lines.
 Processed:          148  lines.
 Processed:          148  lines.
 Processed:          148  lines.
 Processed:          148  lines.
 Processed:          148  lines.
 Processed:          148  lines.
 Processed:          148  lines.
 Processed:          148  lines.
 Processed:          148  lines.
 Processed:          148  lines.
 Processed:          148  lines.
 Processed:          148  lines.
 Processed:          148  lines.
 Processed:          148  lines.
 Processed:          148  lines.
 Processed:          148  lines.
 Processed:          148  lines.
 Processed:          148  lines.
 Processed:          148  lines.
 Processed:          148  lines.
 Processed:          148  lines.
 Processed:          148  lines.
 Processed:          148  lines.
 Processed:          148  lines.
 Processed:          148  lines.
 Processed:          148  lines.
 Processed:          148  lines.
 Processed:          148  lines.
 Processed:          148  lines.
 Processed:          148  lines.
 Processed:          148  lines.
 Processed:          148  lines.
 Processed:          148  lines.
 Processed:          148  lines.
 Processed:          148  lines.
 Processed:          148  lines.
 Processed:          148  lines.
 Processed:          148  lines.
 Processed:          148  lines.
 Processed:          148  lines.
 Processed:          148  lines.
 Processed:          148  lines.
 Processed:          148  lines.
 Processed:          148  lines.
 Processed:          148  lines.
 Processed:          148  lines.
 Processed:          148  lines.
 Processed:          148  lines.
 Processed:          148  lines.
 Processed:          148  lines.
 Processed:          148  lines.
 Processed:          148  lines.
 Processed:          148  lines.
 Processed:          148  lines.
 Processed:          148  lines.
 Processed:          148  lines.

initatom: Reading input for the pseudopotentials and atomic orbitals ----------
 Species number:            1  Label: C Atomic number:           6
 Species number:            2  Label: S Atomic number:          16
 Species number:            3  Label: Na Atomic number:          11
 Species number:            4  Label: N Atomic number:           7
 Species number:            5  Label: O Atomic number:           8
 Species number:            6  Label: H Atomic number:           1
Ground state valence configuration:   2s02  2p02
Reading pseudopotential information in formatted form from C.psf

Valence configuration for pseudopotential generation:
2s( 2.00) rc: 1.56
2p( 2.00) rc: 1.56
3d( 0.00) rc: 1.56
4f( 0.00) rc: 1.56
Ground state valence configuration:   3s02  3p04
Reading pseudopotential information in formatted form from S.psf

Valence configuration for pseudopotential generation:
3s( 2.00) rc: 1.61
3p( 4.00) rc: 1.72
3d( 0.00) rc: 1.90
4f( 0.00) rc: 1.90
Ground state valence configuration:   3s01
Reading pseudopotential information in formatted form from Na.psf

Valence configuration for pseudopotential generation:
3s( 1.00) rc: 2.94
3p( 0.00) rc: 3.50
3d( 0.00) rc: 2.94
Ground state valence configuration:   2s02  2p03
Reading pseudopotential information in formatted form from N.psf

Valence configuration for pseudopotential generation:
2s( 2.00) rc: 1.48
2p( 3.00) rc: 1.48
3d( 0.00) rc: 1.48
4f( 0.00) rc: 1.48
Ground state valence configuration:   2s02  2p04
Reading pseudopotential information in formatted form from O.psf

Valence configuration for pseudopotential generation:
2s( 2.00) rc: 1.47
2p( 4.00) rc: 1.47
3d( 0.00) rc: 1.47
4f( 0.00) rc: 1.47
Ground state valence configuration:   1s01
Reading pseudopotential information in formatted form from H.psf

Valence configuration for pseudopotential generation:
1s( 1.00) rc: 1.25
2p( 0.00) rc: 1.25
3d( 0.00) rc: 1.25
4f( 0.00) rc: 1.25
For C, standard SIESTA heuristics set lmxkb to 3
 (one more than the basis l, including polarization orbitals).
Use PS.lmax or PS.KBprojectors blocks to override.
For S, standard SIESTA heuristics set lmxkb to 3
 (one more than the basis l, including polarization orbitals).
Use PS.lmax or PS.KBprojectors blocks to override.
For Na, standard SIESTA heuristics set lmxkb to 2
 (one more than the basis l, including polarization orbitals).
Use PS.lmax or PS.KBprojectors blocks to override.
For N, standard SIESTA heuristics set lmxkb to 3
 (one more than the basis l, including polarization orbitals).
Use PS.lmax or PS.KBprojectors blocks to override.
For O, standard SIESTA heuristics set lmxkb to 3
 (one more than the basis l, including polarization orbitals).
Use PS.lmax or PS.KBprojectors blocks to override.
For H, standard SIESTA heuristics set lmxkb to 2
 (one more than the basis l, including polarization orbitals).
Use PS.lmax or PS.KBprojectors blocks to override.

<basis_specs>
===============================================================================
C                    Z=   6    Mass=  12.010        Charge= 0.17977+309
Lmxo=1 Lmxkb= 3    BasisType=split      Semic=F
L=0  Nsemic=0  Cnfigmx=2
          n=1  nzeta=3  polorb=0
            splnorm:   0.15000    
               vcte:    0.0000    
               rinn:    0.0000    
                rcs:    9.0000      2.7000      3.6000    
            lambdas:    1.0000      1.0000      1.0000    
L=1  Nsemic=0  Cnfigmx=2
          n=1  nzeta=3  polorb=1
            splnorm:   0.15000    
               vcte:    0.0000    
               rinn:    0.0000    
                rcs:    9.0000      2.5000      3.6000    
            lambdas:    1.0000      1.0000      1.0000    
-------------------------------------------------------------------------------
L=0  Nkbl=1  erefs: 0.17977+309
L=1  Nkbl=1  erefs: 0.17977+309
L=2  Nkbl=1  erefs: 0.17977+309
L=3  Nkbl=1  erefs: 0.17977+309
===============================================================================
</basis_specs>

atom: Called for C                     (Z =   6)

read_vps: Pseudopotential generation method:
read_vps: ATM3.3    Troullier-Martins                       
Total valence charge:    4.00000

xc_check: Exchange-correlation functional:
xc_check: VDW LMKLL
xc_check: WARNING: Pseudopotential generated with Unknown atomic XC code functional
V l=0 = -2*Zval/r beyond r=  5.3157
V l=1 = -2*Zval/r beyond r=  5.3157
V l=2 = -2*Zval/r beyond r=  5.3157
V l=3 = -2*Zval/r beyond r=  5.3157
All V_l potentials equal beyond r=  1.5418
This should be close to max(r_c) in ps generation
All pots = -2*Zval/r beyond r=  5.3157
Using large-core scheme for Vlocal

atom: Estimated core radius    5.31569

atom: Including non-local core corrections could be a good idea
atom: Maximum radius for 4*pi*r*r*local-pseudopot. charge    5.72973
atom: Maximum radius for r*vlocal+2*Zval:    5.38256
GHOST: No ghost state for L =  0
GHOST: No ghost state for L =  1
GHOST: No ghost state for L =  2
GHOST: No ghost state for L =  3

KBgen: Kleinman-Bylander projectors: 
   l= 0   rc=  1.600766   el= -1.028746   Ekb=  4.362799   kbcos=  0.292106
   l= 1   rc=  1.600766   el= -0.417779   Ekb= -4.642779   kbcos= -0.389769
   l= 2   rc=  1.600766   el=  0.000137   Ekb= -1.256278   kbcos= -0.011586
   l= 3   rc=  1.600766   el=  0.001231   Ekb= -0.552397   kbcos= -0.001665

KBgen: Total number of  Kleinman-Bylander projectors:   16
atom: -------------------------------------------------------------------------

atom: SANKEY-TYPE ORBITALS:
atom: Selected multiple-zeta basis: split     

SPLIT: Orbitals with angular momentum L= 0

SPLIT: Basis orbitals for state 2s

   izeta = 1
                 lambda =    1.000000
                     rc =    9.099279
                 energy =   -1.028782
                kinetic =    0.818365
    potential(screened) =   -1.847147
       potential(ionic) =   -5.384555

   izeta = 2
                 rmatch =    2.740361
              splitnorm =    0.376993
                 energy =   -0.589586
                kinetic =    1.807161
    potential(screened) =   -2.396748
       potential(ionic) =   -6.344602

   izeta = 3
                 rmatch =    3.607901
              splitnorm =    0.134907
                 energy =   -0.911262
                kinetic =    1.252630
    potential(screened) =   -2.163892
       potential(ionic) =   -5.956700

SPLIT: Orbitals with angular momentum L= 1

SPLIT: Basis orbitals for state 2p

   izeta = 1
                 lambda =    1.000000
                     rc =    9.099279
                 energy =   -0.417701
                kinetic =    2.341737
    potential(screened) =   -2.759439
       potential(ionic) =   -6.120003

   izeta = 2
                 rmatch =    2.542323
              splitnorm =    0.421681
                 energy =    0.194476
                kinetic =    5.514744
    potential(screened) =   -5.320268
       potential(ionic) =   -9.401931

   izeta = 3
                 rmatch =    3.607901
              splitnorm =    0.186223
                 energy =   -0.262948
                kinetic =    3.720245
    potential(screened) =   -3.983193
       potential(ionic) =   -7.803234

POLgen: Perturbative polarization orbital with L=  2

POLgen: Polarization orbital for state 2p

   izeta = 1
                     rc =    9.099279
                 energy =    0.851019
                kinetic =    1.874696
    potential(screened) =   -1.023677
       potential(ionic) =   -3.588173
atom: Total number of Sankey-type orbitals: 17

atm_pop: Valence configuration (for local Pseudopot. screening):
 2s( 2.00)                                                            
 2p( 2.00)                                                            
Vna: chval, zval:    4.00000   4.00000

Vna:  Cut-off radius for the neutral-atom potential:   9.099279

atom: _________________________________________________________________________

<basis_specs>
===============================================================================
S                    Z=  16    Mass=  32.070        Charge= 0.17977+309
Lmxo=1 Lmxkb= 3    BasisType=split      Semic=F
L=0  Nsemic=0  Cnfigmx=3
          n=1  nzeta=3  polorb=0
            splnorm:   0.15000    
               vcte:    0.0000    
               rinn:    0.0000    
                rcs:    8.5000      2.5000      5.0000    
            lambdas:    1.0000      1.0000      1.0000    
L=1  Nsemic=0  Cnfigmx=3
          n=1  nzeta=3  polorb=1
            splnorm:   0.15000    
               vcte:    0.0000    
               rinn:    0.0000    
                rcs:    8.5000      2.4000      5.4000    
            lambdas:    1.0000      1.0000      1.0000    
-------------------------------------------------------------------------------
L=0  Nkbl=1  erefs: 0.17977+309
L=1  Nkbl=1  erefs: 0.17977+309
L=2  Nkbl=1  erefs: 0.17977+309
L=3  Nkbl=1  erefs: 0.17977+309
===============================================================================
</basis_specs>

atom: Called for S                     (Z =  16)

read_vps: Pseudopotential generation method:
read_vps: ATM3.3    Troullier-Martins                       
Total valence charge:    6.00000

xc_check: Exchange-correlation functional:
xc_check: VDW LMKLL
xc_check: WARNING: Pseudopotential generated with Unknown atomic XC code functional
V l=0 = -2*Zval/r beyond r=  6.0641
V l=1 = -2*Zval/r beyond r=  6.0641
V l=2 = -2*Zval/r beyond r=  6.0641
V l=3 = -2*Zval/r beyond r=  6.0641
All V_l potentials equal beyond r=  1.8726
This should be close to max(r_c) in ps generation
All pots = -2*Zval/r beyond r=  6.0641
Using large-core scheme for Vlocal

atom: Estimated core radius    6.06410

atom: Including non-local core corrections could be a good idea
atom: Maximum radius for 4*pi*r*r*local-pseudopot. charge    2.55960
atom: Maximum radius for r*vlocal+2*Zval:    6.14038
GHOST: No ghost state for L =  0
GHOST: No ghost state for L =  1
GHOST: No ghost state for L =  2
GHOST: No ghost state for L =  3

KBgen: Kleinman-Bylander projectors: 
   l= 0   rc=  1.944163   el= -1.280897   Ekb=  6.395246   kbcos=  0.283459
   l= 1   rc=  1.944163   el= -0.534686   Ekb=  1.645939   kbcos=  0.250402
   l= 2   rc=  1.944163   el=  0.000165   Ekb= -3.764048   kbcos= -0.059734
   l= 3   rc=  1.944163   el=  0.001272   Ekb= -1.091229   kbcos= -0.004621

KBgen: Total number of  Kleinman-Bylander projectors:   16
atom: -------------------------------------------------------------------------

atom: SANKEY-TYPE ORBITALS:
atom: Selected multiple-zeta basis: split     

SPLIT: Orbitals with angular momentum L= 0

SPLIT: Basis orbitals for state 3s

   izeta = 1
                 lambda =    1.000000
                     rc =    8.605429
                 energy =   -1.280962
                kinetic =    0.826070
    potential(screened) =   -2.107032
       potential(ionic) =   -7.040627

   izeta = 2
                 rmatch =    2.527802
              splitnorm =    0.583939
                 energy =    0.038605
                kinetic =    3.083455
    potential(screened) =   -3.044850
       potential(ionic) =   -8.363708

   izeta = 3
                 rmatch =    5.090524
              splitnorm =    0.013701
                 energy =   -1.269004
* WARNING: effective split_norm is quite small. Orbitals will be very similar.
                kinetic =    0.936613
    potential(screened) =   -2.205617
       potential(ionic) =   -7.226785

SPLIT: Orbitals with angular momentum L= 1

SPLIT: Basis orbitals for state 3p

   izeta = 1
                 lambda =    1.000000
                     rc =    8.605429
                 energy =   -0.534578
                kinetic =    1.389438
    potential(screened) =   -1.924015
       potential(ionic) =   -6.449639

   izeta = 2
                 rmatch =    2.404512
              splitnorm =    0.643930
                 energy =    0.750024
                kinetic =    4.180831
    potential(screened) =   -3.430807
       potential(ionic) =   -8.937179

   izeta = 3
                 rmatch =    5.487008
              splitnorm =    0.036903
                 energy =   -0.510885
* WARNING: effective split_norm is quite small. Orbitals will be very similar.
                kinetic =    1.634978
    potential(screened) =   -2.145863
       potential(ionic) =   -6.883370

POLgen: Perturbative polarization orbital with L=  2

POLgen: Polarization orbital for state 3p

   izeta = 1
                     rc =    8.605429
                 energy =    0.525734
                kinetic =    1.769545
    potential(screened) =   -1.243810
       potential(ionic) =   -5.158576
atom: Total number of Sankey-type orbitals: 17

atm_pop: Valence configuration (for local Pseudopot. screening):
 3s( 2.00)                                                            
 3p( 4.00)                                                            
Vna: chval, zval:    6.00000   6.00000

Vna:  Cut-off radius for the neutral-atom potential:   8.605429

atom: _________________________________________________________________________

<basis_specs>
===============================================================================
Na                   Z=  11    Mass=  22.990        Charge= 0.17977+309
Lmxo=0 Lmxkb= 2    BasisType=split      Semic=F
L=0  Nsemic=0  Cnfigmx=3
          n=1  nzeta=3  polorb=1
            splnorm:   0.15000    
               vcte:    0.0000    
               rinn:    0.0000    
                rcs:    0.0000      0.0000      0.0000    
            lambdas:    1.0000      1.0000      1.0000    
-------------------------------------------------------------------------------
L=0  Nkbl=1  erefs: 0.17977+309
L=1  Nkbl=1  erefs: 0.17977+309
L=2  Nkbl=1  erefs: 0.17977+309
===============================================================================
</basis_specs>

atom: Called for Na                    (Z =  11)

read_vps: Pseudopotential generation method:
read_vps: ATM3.3    Troullier-Martins                       
Total valence charge:    1.00000

xc_check: Exchange-correlation functional:
xc_check: VDW LMKLL
xc_check: WARNING: Pseudopotential generated with Unknown atomic XC code functional
V l=0 = -2*Zval/r beyond r= 10.7734
V l=1 = -2*Zval/r beyond r= 10.7734
V l=2 = -2*Zval/r beyond r= 10.7734
All V_l potentials equal beyond r=  3.2447
This should be close to max(r_c) in ps generation
All pots = -2*Zval/r beyond r= 10.7734
Using large-core scheme for Vlocal

atom: Estimated core radius   10.77344

atom: Including non-local core corrections could be a good idea
atom: Maximum radius for 4*pi*r*r*local-pseudopot. charge   11.32582
atom: Maximum radius for r*vlocal+2*Zval:   10.90896
GHOST: No ghost state for L =  0
GHOST: No ghost state for L =  1
GHOST: No ghost state for L =  2

KBgen: Kleinman-Bylander projectors: 
   l= 0   rc=  3.326887   el= -0.223037   Ekb=  0.939964   kbcos=  0.286137
   l= 1   rc=  3.497472   el= -0.067121   Ekb=  0.240696   kbcos=  0.324664
   l= 2   rc=  3.368737   el=  0.000162   Ekb= -1.792814   kbcos= -0.038461

KBgen: Total number of  Kleinman-Bylander projectors:    9
atom: -------------------------------------------------------------------------

atom: SANKEY-TYPE ORBITALS:
atom: Selected multiple-zeta basis: split     

SPLIT: Orbitals with angular momentum L= 0

SPLIT: Basis orbitals for state 3s

SPLIT: PAO cut-off radius determined from an
SPLIT: energy shift=  0.001000 Ry

   izeta = 1
                 lambda =    1.000000
                     rc =   11.612537
                 energy =   -0.222079
                kinetic =    0.147697
    potential(screened) =   -0.369777
       potential(ionic) =   -0.537811

   izeta = 2
                 rmatch =    8.710933
              splitnorm =    0.150000
                 energy =   -0.200365
                kinetic =    0.229153
    potential(screened) =   -0.429518
       potential(ionic) =   -0.594738

   izeta = 3
                 rmatch =    9.748190
              splitnorm =    0.075000
                 energy =   -0.210516
                kinetic =    0.202428
    potential(screened) =   -0.412944
       potential(ionic) =   -0.579751

POLgen: Perturbative polarization orbital with L=  1

POLgen: Polarization orbital for state 3s

   izeta = 1
                     rc =   11.612537
                 energy =   -0.044013
                kinetic =    0.282735
    potential(screened) =   -0.326748
       potential(ionic) =   -0.491619
atom: Total number of Sankey-type orbitals:  6

atm_pop: Valence configuration (for local Pseudopot. screening):
 3s( 1.00)                                                            
Vna: chval, zval:    1.00000   1.00000

Vna:  Cut-off radius for the neutral-atom potential:  11.612537

atom: _________________________________________________________________________

<basis_specs>
===============================================================================
N                    Z=   7    Mass=  14.010        Charge= 0.17977+309
Lmxo=1 Lmxkb= 3    BasisType=split      Semic=F
L=0  Nsemic=0  Cnfigmx=2
          n=1  nzeta=3  polorb=0
            splnorm:   0.15000    
               vcte:    0.0000    
               rinn:    0.0000    
                rcs:    9.0000      2.5000      4.3000    
            lambdas:    1.0000      1.0000      1.0000    
L=1  Nsemic=0  Cnfigmx=2
          n=1  nzeta=3  polorb=1
            splnorm:   0.15000    
               vcte:    0.0000    
               rinn:    0.0000    
                rcs:    9.0000      2.4000      3.8000    
            lambdas:    1.0000      1.0000      1.0000    
-------------------------------------------------------------------------------
L=0  Nkbl=1  erefs: 0.17977+309
L=1  Nkbl=1  erefs: 0.17977+309
L=2  Nkbl=1  erefs: 0.17977+309
L=3  Nkbl=1  erefs: 0.17977+309
===============================================================================
</basis_specs>

atom: Called for N                     (Z =   7)

read_vps: Pseudopotential generation method:
read_vps: ATM3.3    Troullier-Martins                       
Total valence charge:    5.00000

xc_check: Exchange-correlation functional:
xc_check: VDW LMKLL
xc_check: WARNING: Pseudopotential generated with Unknown atomic XC code functional
V l=0 = -2*Zval/r beyond r=  4.3886
V l=1 = -2*Zval/r beyond r=  4.3886
V l=2 = -2*Zval/r beyond r=  4.3886
V l=3 = -2*Zval/r beyond r=  4.3886
All V_l potentials equal beyond r=  1.4606
This should be close to max(r_c) in ps generation
All pots = -2*Zval/r beyond r=  4.3886
Using large-core scheme for Vlocal

atom: Estimated core radius    4.38860

atom: Including non-local core corrections could be a good idea
atom: Maximum radius for 4*pi*r*r*local-pseudopot. charge    4.78993
atom: Maximum radius for r*vlocal+2*Zval:    4.44380
GHOST: No ghost state for L =  0
GHOST: No ghost state for L =  1
GHOST: No ghost state for L =  2
GHOST: No ghost state for L =  3

KBgen: Kleinman-Bylander projectors: 
   l= 0   rc=  1.516426   el= -1.384037   Ekb=  5.003330   kbcos=  0.248027
   l= 1   rc=  1.516426   el= -0.553554   Ekb= -6.239124   kbcos= -0.455113
   l= 2   rc=  1.516426   el=  0.000157   Ekb= -1.621527   kbcos= -0.009557
   l= 3   rc=  1.516426   el=  0.001260   Ekb= -0.721831   kbcos= -0.001322

KBgen: Total number of  Kleinman-Bylander projectors:   16
atom: -------------------------------------------------------------------------

atom: SANKEY-TYPE ORBITALS:
atom: Selected multiple-zeta basis: split     

SPLIT: Orbitals with angular momentum L= 0

SPLIT: Basis orbitals for state 2s

   izeta = 1
                 lambda =    1.000000
                     rc =    9.061646
                 energy =   -1.384083
                kinetic =    1.138478
    potential(screened) =   -2.522561
       potential(ionic) =   -8.023340

   izeta = 2
                 rmatch =    2.531849
              splitnorm =    0.279302
                 energy =   -0.984788
                kinetic =    2.167047
    potential(screened) =   -3.151835
       potential(ionic) =   -9.249578

   izeta = 3
                 rmatch =    4.280232
              splitnorm =    0.017802
                 energy =   -1.364927
* WARNING: effective split_norm is quite small. Orbitals will be very similar.
                kinetic =    1.305680
    potential(screened) =   -2.670607
       potential(ionic) =   -8.325817

SPLIT: Orbitals with angular momentum L= 1

SPLIT: Basis orbitals for state 2p

   izeta = 1
                 lambda =    1.000000
                     rc =    9.061646
                 energy =   -0.553581
                kinetic =    3.375830
    potential(screened) =   -3.929411
       potential(ionic) =   -9.175051

   izeta = 2
                 rmatch =    2.408352
              splitnorm =    0.319803
                 energy =   -0.019422
                kinetic =    6.675109
    potential(screened) =   -6.694530
       potential(ionic) =  -12.919528

   izeta = 3
                 rmatch =    3.777250
              splitnorm =    0.083818
                 energy =   -0.477376
                kinetic =    4.399373
    potential(screened) =   -4.876748
       potential(ionic) =  -10.589170

POLgen: Perturbative polarization orbital with L=  2

POLgen: Polarization orbital for state 2p

   izeta = 1
                     rc =    9.061646
                 energy =    1.274251
                kinetic =    2.706331
    potential(screened) =   -1.432079
       potential(ionic) =   -5.376240
atom: Total number of Sankey-type orbitals: 17

atm_pop: Valence configuration (for local Pseudopot. screening):
 2s( 2.00)                                                            
 2p( 3.00)                                                            
Vna: chval, zval:    5.00000   5.00000

Vna:  Cut-off radius for the neutral-atom potential:   9.061646

atom: _________________________________________________________________________

<basis_specs>
===============================================================================
O                    Z=   8    Mass=  16.000        Charge= 0.17977+309
Lmxo=1 Lmxkb= 3    BasisType=split      Semic=F
L=0  Nsemic=0  Cnfigmx=2
          n=1  nzeta=3  polorb=0
            splnorm:   0.15000    
               vcte:    0.0000    
               rinn:    0.0000    
                rcs:    8.5000      2.5000      5.0000    
            lambdas:    1.0000      1.0000      1.0000    
L=1  Nsemic=0  Cnfigmx=2
          n=1  nzeta=3  polorb=1
            splnorm:   0.15000    
               vcte:    0.0000    
               rinn:    0.0000    
                rcs:    9.0000      2.4000      5.4000    
            lambdas:    1.0000      1.0000      1.0000    
-------------------------------------------------------------------------------
L=0  Nkbl=1  erefs: 0.17977+309
L=1  Nkbl=1  erefs: 0.17977+309
L=2  Nkbl=1  erefs: 0.17977+309
L=3  Nkbl=1  erefs: 0.17977+309
===============================================================================
</basis_specs>

atom: Called for O                     (Z =   8)

read_vps: Pseudopotential generation method:
read_vps: ATM3.3    Troullier-Martins                       
Total valence charge:    6.00000

xc_check: Exchange-correlation functional:
xc_check: VDW LMKLL
xc_check: WARNING: Pseudopotential generated with Unknown atomic XC code functional
V l=0 = -2*Zval/r beyond r=  2.6723
V l=1 = -2*Zval/r beyond r=  2.6723
V l=2 = -2*Zval/r beyond r=  2.6723
V l=3 = -2*Zval/r beyond r=  2.6723
All V_l potentials equal beyond r=  1.4482
This should be close to max(r_c) in ps generation
All pots = -2*Zval/r beyond r=  2.6723
Using large-core scheme for Vlocal

atom: Estimated core radius    2.67231

atom: Including non-local core corrections could be a good idea
atom: Maximum radius for 4*pi*r*r*local-pseudopot. charge    3.14389
atom: Maximum radius for r*vlocal+2*Zval:    2.70593
GHOST: No ghost state for L =  0
GHOST: No ghost state for L =  1
GHOST: No ghost state for L =  2
GHOST: No ghost state for L =  3

KBgen: Kleinman-Bylander projectors: 
   l= 0   rc=  1.503585   el= -1.779675   Ekb= -9.464596   kbcos= -0.084701
   l= 1   rc=  1.503585   el= -0.699088   Ekb= -8.000316   kbcos= -0.523182
   l= 2   rc=  1.503585   el=  0.000197   Ekb= -1.973137   kbcos= -0.008602
   l= 3   rc=  1.503585   el=  0.001319   Ekb= -0.877897   kbcos= -0.001222

KBgen: Total number of  Kleinman-Bylander projectors:   16
atom: -------------------------------------------------------------------------

atom: SANKEY-TYPE ORBITALS:
atom: Selected multiple-zeta basis: split     

SPLIT: Orbitals with angular momentum L= 0

SPLIT: Basis orbitals for state 2s

   izeta = 1
                 lambda =    1.000000
                     rc =    8.546503
                 energy =   -1.779728
                kinetic =    1.517373
    potential(screened) =   -3.297102
       potential(ionic) =  -11.177458

   izeta = 2
                 rmatch =    2.510382
              splitnorm =    0.165477
                 energy =   -1.504871
                kinetic =    2.431996
    potential(screened) =   -3.936867
       potential(ionic) =  -12.514426

   izeta = 3
                 rmatch =    5.055603
              splitnorm =    0.001104
                 energy =   -1.778115
* WARNING: effective split_norm is quite small. Orbitals will be very similar.
                kinetic =    1.561881
    potential(screened) =   -3.339996
       potential(ionic) =  -11.273025

SPLIT: Orbitals with angular momentum L= 1

SPLIT: Basis orbitals for state 2p

   izeta = 1
                 lambda =    1.000000
                     rc =    8.984708
                 energy =   -0.699155
                kinetic =    4.481222
    potential(screened) =   -5.180377
       potential(ionic) =  -12.692538

   izeta = 2
                 rmatch =    2.387934
              splitnorm =    0.223278
                 energy =   -0.294690
                kinetic =    7.512089
    potential(screened) =   -7.806779
       potential(ionic) =  -16.470490

   izeta = 3
                 rmatch =    5.449379
              splitnorm =    0.004964
                 energy =   -0.694858
* WARNING: effective split_norm is quite small. Orbitals will be very similar.
                kinetic =    4.668557
    potential(screened) =   -5.363415
       potential(ionic) =  -13.004195

POLgen: Perturbative polarization orbital with L=  2

POLgen: Polarization orbital for state 2p

   izeta = 1
                     rc =    8.984708
                 energy =    1.782562
                kinetic =    3.710549
    potential(screened) =   -1.927987
       potential(ionic) =   -7.553219
atom: Total number of Sankey-type orbitals: 17

atm_pop: Valence configuration (for local Pseudopot. screening):
 2s( 2.00)                                                            
 2p( 4.00)                                                            
Vna: chval, zval:    6.00000   6.00000

Vna:  Cut-off radius for the neutral-atom potential:   8.984708

atom: _________________________________________________________________________

<basis_specs>
===============================================================================
H                    Z=   1    Mass=  1.0100        Charge= 0.17977+309
Lmxo=0 Lmxkb= 2    BasisType=split      Semic=F
L=0  Nsemic=0  Cnfigmx=1
          n=1  nzeta=3  polorb=1
            splnorm:   0.50000    
               vcte:    0.0000    
               rinn:    0.0000    
                rcs:    8.0000      1.8000      4.1000    
            lambdas:    1.0000      1.0000      1.0000    
-------------------------------------------------------------------------------
L=0  Nkbl=1  erefs: 0.17977+309
L=1  Nkbl=1  erefs: 0.17977+309
L=2  Nkbl=1  erefs: 0.17977+309
===============================================================================
</basis_specs>

atom: Called for H                     (Z =   1)

read_vps: Pseudopotential generation method:
read_vps: ATM3.3    Troullier-Martins                       
Total valence charge:    1.00000

xc_check: Exchange-correlation functional:
xc_check: VDW LMKLL
xc_check: WARNING: Pseudopotential generated with Unknown atomic XC code functional
V l=0 = -2*Zval/r beyond r=  1.3644
V l=1 = -2*Zval/r beyond r=  1.3474
V l=2 = -2*Zval/r beyond r=  1.3474
All V_l potentials equal beyond r=  1.2343
This should be close to max(r_c) in ps generation
All pots = -2*Zval/r beyond r=  1.3644

VLOCAL1: 99.0% of the norm of Vloc inside     28.493 Ry
VLOCAL1: 99.9% of the norm of Vloc inside     64.935 Ry
atom: Maximum radius for 4*pi*r*r*local-pseudopot. charge    1.45251
atom: Maximum radius for r*vlocal+2*Zval:    1.21892
GHOST: No ghost state for L =  0
GHOST: No ghost state for L =  1
GHOST: No ghost state for L =  2

KBgen: Kleinman-Bylander projectors: 
   l= 0   rc=  1.625762   el= -0.519992   Ekb= -2.047279   kbcos= -0.354363
   l= 1   rc=  2.519390   el= -0.000771   Ekb= -0.506821   kbcos= -0.022580
   l= 2   rc=  2.927514   el=  0.000176   Ekb= -0.221733   kbcos= -0.002090

KBgen: Total number of  Kleinman-Bylander projectors:    9
atom: -------------------------------------------------------------------------

atom: SANKEY-TYPE ORBITALS:
atom: Selected multiple-zeta basis: split     

SPLIT: Orbitals with angular momentum L= 0

SPLIT: Basis orbitals for state 1s

   izeta = 1
                 lambda =    1.000000
                     rc =    7.962068
                 energy =   -0.519774
                kinetic =    0.910189
    potential(screened) =   -1.429963
       potential(ionic) =   -1.906963

   izeta = 2
                 rmatch =    1.819640
              splitnorm =    0.711859
                 energy =    1.124022
                kinetic =    4.644871
    potential(screened) =   -3.520849
       potential(ionic) =   -3.960301

   izeta = 3
                 rmatch =    4.155379
              splitnorm =    0.140914
                 energy =   -0.434175
                kinetic =    1.462160
    potential(screened) =   -1.896335
       potential(ionic) =   -2.393173

POLgen: Perturbative polarization orbital with L=  1

POLgen: Polarization orbital for state 1s

   izeta = 1
                     rc =    7.962068
                 energy =    0.477749
                kinetic =    1.090716
    potential(screened) =   -0.612967
       potential(ionic) =   -1.043837
atom: Total number of Sankey-type orbitals:  6

atm_pop: Valence configuration (for local Pseudopot. screening):
 1s( 1.00)                                                            
Vna: chval, zval:    1.00000   1.00000

Vna:  Cut-off radius for the neutral-atom potential:   7.962068

atom: _________________________________________________________________________

prinput: Basis input ----------------------------------------------------------

PAO.BasisType split     

%block ChemicalSpeciesLabel
    1    6 C                       # Species index, atomic number, species label
    2   16 S                       # Species index, atomic number, species label
    3   11 Na                      # Species index, atomic number, species label
    4    7 N                       # Species index, atomic number, species label
    5    8 O                       # Species index, atomic number, species label
    6    1 H                       # Species index, atomic number, species label
%endblock ChemicalSpeciesLabel

%block PAO.Basis                 # Define Basis set
C                     2                    # Species label, number of l-shells
 n=2   0   3                         # n, l, Nzeta 
   9.099      2.740      3.608   
   1.000      1.000      1.000   
 n=2   1   3 P   1                   # n, l, Nzeta, Polarization, NzetaPol
   9.099      2.542      3.608   
   1.000      1.000      1.000   
S                     2                    # Species label, number of l-shells
 n=3   0   3                         # n, l, Nzeta 
   8.605      2.528      5.091   
   1.000      1.000      1.000   
 n=3   1   3 P   1                   # n, l, Nzeta, Polarization, NzetaPol
   8.605      2.405      5.487   
   1.000      1.000      1.000   
Na                    1                    # Species label, number of l-shells
 n=3   0   3 P   1                   # n, l, Nzeta, Polarization, NzetaPol
  11.613      8.711      9.748   
   1.000      1.000      1.000   
N                     2                    # Species label, number of l-shells
 n=2   0   3                         # n, l, Nzeta 
   9.062      2.532      4.280   
   1.000      1.000      1.000   
 n=2   1   3 P   1                   # n, l, Nzeta, Polarization, NzetaPol
   9.062      2.408      3.777   
   1.000      1.000      1.000   
O                     2                    # Species label, number of l-shells
 n=2   0   3                         # n, l, Nzeta 
   8.547      2.510      5.056   
   1.000      1.000      1.000   
 n=2   1   3 P   1                   # n, l, Nzeta, Polarization, NzetaPol
   8.985      2.388      5.449   
   1.000      1.000      1.000   
H                     1                    # Species label, number of l-shells
 n=1   0   3 P   1                   # n, l, Nzeta, Polarization, NzetaPol
   7.962      1.820      4.155   
   1.000      1.000      1.000   
%endblock PAO.Basis

prinput: ----------------------------------------------------------------------

coor:   Atomic-coordinates input format  =     Cartesian coordinates
coor:                                          (in Angstroms)

siesta: WARNING: XV file not found

siesta: Atomic coordinates (Bohr) and species
siesta:     46.71040  25.93481  24.03398  5        1
siesta:     45.21301  30.38058  23.27643  5        2
siesta:     45.59341  27.35424  19.65239  5        3
siesta:     44.84074  27.57438  22.48912  2        4
siesta:     29.31505  25.78294  23.29611  5        5
siesta:     31.66604  26.35022  23.29369  1        6
siesta:     31.02217  30.45039  23.12716  6        7
siesta:     32.50806  29.01637  23.17249  1        8
siesta:     35.61425  31.62832  22.89946  6        9
siesta:     35.04404  29.64508  23.04424  1       10
siesta:     37.05929  27.72701  23.08979  1       11
siesta:     40.18069  30.45830  22.71851  6       12
siesta:     39.66304  28.46840  22.90996  1       13
siesta:     41.56181  26.59283  22.99286  1       14
siesta:     42.50942  22.57672  23.39572  6       15
siesta:     40.98874  23.97202  23.31048  1       16
siesta:     37.94501  21.23709  23.68172  6       17
siesta:     38.42366  23.23233  23.47153  1       18
siesta:     36.41815  25.06430  23.31350  1       19
siesta:     33.69018  24.33451  23.34198  1       20
siesta:     33.18308  21.82077  23.30478  4       21
siesta:     29.38713  22.51144  23.32357  6       22
siesta:     30.75097  21.07694  23.29836  4       23
siesta:     32.61859  12.46574  22.62670  6       24
siesta:     31.22818  13.98466  22.74907  1       25
siesta:     33.98136  17.06747  22.92265  6       26
siesta:     31.98723  16.54547  22.92824  1       27
siesta:     30.09659  18.47651  23.13254  1       28
siesta:     26.03627  19.33754  23.25369  6       29
siesta:     27.46237  17.84495  23.13922  1       30
siesta:     24.69268  14.79936  22.88335  6       31
siesta:     26.69835  15.28473  22.93707  1       32
siesta:     28.59994  13.39070  22.75232  1       33
siesta:     29.89510   8.33350  23.29673  5       34
siesta:     25.36261   9.46363  24.17805  5       35
siesta:     27.67144  10.06907  22.47422  2       36
siesta:     26.95367   9.33059  19.72348  5       37
siesta:     46.26959  17.63313  20.67113  5       38
siesta:     45.34199  17.57694  17.88316  2       39
siesta:     47.50645  18.62236  16.20671  5       40
siesta:     44.90021  14.76147  17.16479  5       41
siesta:     42.41607  19.36440  17.47350  1       42
siesta:     42.50281  22.03619  17.17955  1       43
siesta:     44.29784  23.05567  17.17647  6       44
siesta:     40.18889  23.37189  16.95214  1       45
siesta:     40.20423  25.43125  16.76327  6       46
siesta:     37.84246  22.02500  17.04964  1       47
siesta:     37.79263  19.33161  17.35084  1       48
siesta:     35.98291  18.34920  17.42557  6       49
siesta:     40.09788  17.99492  17.55408  1       50
siesta:     40.12912  15.94290  17.76273  6       51
siesta:     35.56088  23.43606  16.89125  4       52
siesta:     35.51792  25.41287  16.86114  6       53
siesta:     33.31790  22.23807  16.89575  4       54
siesta:     31.17196  23.63489  16.87966  1       55
siesta:     28.75020  22.18817  16.89507  1       56
siesta:     28.67987  19.47690  16.68514  1       57
siesta:     30.44778  18.44067  16.45125  6       58
siesta:     26.36698  18.14730  16.81125  1       59
siesta:     26.31113  16.08725  16.67979  6       60
siesta:     24.08311  19.55066  17.14639  1       61
siesta:     24.04828  22.21651  17.28918  1       62
siesta:     22.25605  23.22037  17.50038  6       63
siesta:     26.39361  23.57563  17.14311  1       64
siesta:     26.42544  26.35683  17.24230  1       65
siesta:     24.60662  27.32862  17.41142  6       66
siesta:     28.64301  27.73969  17.12512  1       67
siesta:     28.64877  29.80364  17.20133  6       68
siesta:     31.14163  26.48860  16.95207  1       69
siesta:     33.18946  27.77039  16.92521  5       70
siesta:     21.11842  17.82410  17.55232  2       71
siesta:     20.88957  16.72650  20.27133  5       72
siesta:     18.81594  19.59345  17.11258  5       73
siesta:     20.91999  15.58399  15.67485  5       74
siesta:     48.86804  28.88274  21.94302  3       75
siesta:     17.41512  15.73958  17.95845  3       76
siesta:     26.63212   5.95294  22.18875  3       77
siesta:     48.86408  15.25194  18.41775  3       78

siesta: System type = molecule  

initatomlists: Number of atoms, orbitals, and projectors:     78  1062  1080

siesta: ******************** Simulation parameters ****************************
siesta:
siesta: The following are some of the parameters of the simulation.
siesta: A complete list of the parameters used, including default values,
siesta: can be found in file out.fdf
siesta:
redata: Non-Collinear-spin run           =     F
redata: SpinPolarized (Up/Down) run      =     F
redata: Number of spin components        =     1
redata: Long output                      =     T
redata: Number of Atomic Species         =        6
redata: Charge density info will appear in .RHO file
redata: Write Mulliken Pop.              =     Atomic and Orbital charges
redata: Mesh Cutoff                      =   300.0000  Ry
redata: Net charge of the system         =     0.0000 |e|
redata: Max. number of SCF Iter          =      500
redata: Performing Pulay mixing using    =     5 iterations
redata: Mix DM in first SCF step ?       =     F
redata: Write Pulay info on disk?        =     F
redata: Discard 1st Pulay DM after  kick =     F
redata: New DM Mixing Weight             =     0.2500
redata: New DM Occupancy tolerance       = 0.000000000001
redata: No kicks to SCF
redata: DM Mixing Weight for Kicks       =     0.5000
redata: DM Tolerance for SCF             =     0.000100
redata: Require Energy convergence for SCF =     F
redata: DM Energy tolerance for SCF      =     0.000100 eV
redata: Require Harris convergence for SCF =     F
redata: DM Harris energy tolerance for SCF =     0.000100 eV
redata: Using Saved Data (generic)   =     T
redata: Use continuation files for DM    =     T
redata: Neglect nonoverlap interactions  =     F
redata: Method of Calculation            =     Diagonalization
redata: Divide and Conquer               =     T
redata: Electronic Temperature           =     0.0019  Ry
redata: Fix the spin of the system       =     F
redata: Dynamics option                  =     CG coord. optimization
redata: Variable cell                    =     F
redata: Use continuation files for CG    =     T
redata: Max atomic displ per move        =     0.2000  Bohr
redata: Maximum number of CG moves       =        0
redata: Force tolerance                  =     0.0004  Ry/Bohr
redata: ***********************************************************************
Total number of electrons:   280.000000
Total ionic charge:   280.000000

* ProcessorY, Blocksize:    9   8

 Kpoints in:            1 . Kpoints trimmed:            1

siesta: k-point coordinates (Bohr**-1) and weights:
siesta:    1    0.000000    0.000000    0.000000       1.000000

siesta: k-grid: Number of k-points =     1
siesta: k-grid: Cutoff (effective) =    12.000 Ang
siesta: k-grid: Supercell and displacements
siesta: k-grid:    1   0   0      0.000
siesta: k-grid:    0   1   0      0.000
siesta: k-grid:    0   0   1      0.000

siesta:                 ==============================
                            Begin CG move =      0
                        ==============================

outcoor: Atomic coordinates (Ang):                          
   24.71807019   13.72410516   12.71823002   5       1  O
   23.92568342   16.07670615   12.31735227   5       2  O
   24.12698295   14.47523456   10.39959212   5       3  O
   23.72869048   14.59172993   11.90072331   2       4  S
   15.51284838   13.64374049   12.32776742   5       5  O
   16.75694205   13.94393281   12.32648655   1       6  C
   16.41621873   16.11364468   12.23836158   6       7  H
   17.20251864   15.35479329   12.26234823   1       8  C
   18.84624223   16.73697721   12.11786839   6       9  H
   18.54450151   15.68749618   12.19447933   1      10  C
   19.61092277   14.67249334   12.21858814   1      11  C
   21.26269649   16.11783106   12.02211498   6      12  H
   20.98876705   15.06482105   12.12342400   1      13  C
   21.99355385   14.07231492   12.16729456   1      14  C
   22.49500667   11.94707886   12.38047872   6      15  H
   21.69030096   12.68544116   12.33536912   1      16  C
   20.07962709   11.23818070   12.53182236   6      17  H
   20.33291717   12.29401291   12.42059639   1      18  C
   19.27164900   13.26344988   12.33697031   1      19  C
   17.82806932   12.87726194   12.35204060   1      20  C
   17.55972488   11.54705019   12.33235423   4      21  N
   15.55099237   11.91253529   12.34229569   6      22  H
   16.27270819   11.15343019   12.32895808   4      23  N
   17.26100779    6.59658099   11.97352940   6      24  H
   16.52523298    7.40036221   12.03828478   1      25  C
   17.98215583    9.03171400   12.13013791   6      26  H
   16.92690746    8.75548114   12.13309732   1      27  C
   15.92642079    9.77734508   12.24120958   1      28  C
   13.77779711   10.23298356   12.30531712   6      29  H
   14.53245527    9.44313823   12.24474482   1      30  C
   13.06679766    7.83148350   12.10934177   6      31  H
   14.12815116    8.08832641   12.13777042   1      32  C
   15.13442813    7.08605296   12.04000363   1      33  C
   15.81979762    4.40989488   12.32809132   5      34  O
   13.42130943    5.00793730   12.79447038   5      35  O
   14.64308857    5.32831834   11.89283974   2      36  S
   14.26326087    4.93753505   10.43721183   5      37  O
   24.48480399    9.33104718   10.93868431   5      38  O
   23.99393601    9.30131198    9.46335682   2      39  S
   25.13932163    9.85452318    8.57621760   5      40  O
   23.76015775    7.81143043    9.08321327   5      41  O
   22.44561022   10.24719608    9.24657682   1      42  C
   22.49151196   11.66104521    9.09102127   1      43  C
   23.44139664   12.20052800    9.08939277   6      44  H
   21.26703450   12.36786847    8.97068105   1      45  C
   21.27515544   13.45763162    8.87073497   6      46  H
   20.02535929   11.65512512    9.02227585   1      47  C
   19.99899242   10.22984268    9.18166453   1      48  C
   19.04132815    9.70997506    9.22121017   6      49  H
   21.21887423    9.52249908    9.28921602   1      50  C
   21.23540820    8.43661704    9.39962937   6      51  H
   18.81800138   12.40182639    8.93846202   4      52  N
   18.79526554   13.44790495    8.92252972   6      53  H
   17.63106621   11.76787643    8.94084429   4      54  N
   16.49548676   12.50704214    8.93232612   1      55  C
   15.21394499   11.74146980    8.94048259   1      56  C
   15.17672711   10.30672708    8.82939353   1      57  C
   16.11226712    9.75837950    8.70562249   6      58  H
   13.95279715    9.60313113    8.89612898   1      59  C
   13.92324265    8.51300011    8.82655911   6      60  H
   12.74422617   10.34575961    9.07347616   1      61  C
   12.72579919   11.75646782    9.14903688   1      62  C
   11.77739097   12.28768633    9.26080116   6      63  H
   13.96689357   12.47568321    9.07173780   1      64  C
   13.98373604   13.94742758    9.12422746   1      65  C
   13.02125626   14.46167690    9.21372234   6      66  H
   15.15722022   14.67920585    9.06221823   1      67  C
   15.16027207   15.77140247    9.10254564   6      68  H
   16.47943227   14.01715746    8.97064360   1      69  C
   17.56309808   14.69545142    8.95643375   5      70  O
   11.17538259    9.43210626    9.28828458   2      71  S
   11.05428205    8.85127674   10.72712352   5      72  O
    9.95696223   10.36840252    9.05558628   5      73  O
   11.07037774    8.24669154    8.29477111   5      74  O
   25.85984540   15.28408044   11.61174183   3      75  Na
    9.21568095    8.32902549    9.50319639   3      76  Na
   14.09310560    3.15016143   11.74177636   3      77  Na
   25.85774472    8.07097469    9.74625022   3      78  Na

outcell: Unit cell vectors (Ang):
       35.000000    0.000000    0.000000
        0.000000   24.000000    0.000000
        0.000000    0.000000   24.000000

outcell: Cell vector modules (Ang)   :   35.000000   24.000000   24.000000
outcell: Cell angles (23,13,12) (deg):     90.0000     90.0000     90.0000
outcell: Cell volume (Ang**3)        :  20160.0000
New_DM. Step:     1
Initializing Density Matrix...
New grid distribution:   1
           1       1:  192    1:   15    1:    8
           2       1:  192    1:   15    9:   16
           3       1:  192    1:   15   17:   24
           4       1:  192    1:   15   25:   32
           5       1:  192    1:   15   33:   40
           6       1:  192    1:   15   41:   48
           7       1:  192    1:   15   49:   56
           8       1:  192    1:   15   57:   64
           9       1:  192    1:   15   65:   72
          10       1:  192    1:   15   73:   80
          11       1:  192    1:   15   81:   88
          12       1:  192    1:   15   89:   96
          13       1:  192    1:   15   97:  104
          14       1:  192    1:   15  105:  112
          15       1:  192    1:   15  113:  120
          16       1:  192    1:   15  121:  128
          17       1:  192   16:   30    1:    8
          18       1:  192   16:   30    9:   16
          19       1:  192   16:   30   17:   24
          20       1:  192   16:   30   25:   32
          21       1:  192   16:   30   33:   40
          22       1:  192   16:   30   41:   48
          23       1:  192   16:   30   49:   56
          24       1:  192   16:   30   57:   64
          25       1:  192   16:   30   65:   72
          26       1:  192   16:   30   73:   80
          27       1:  192   16:   30   81:   88
          28       1:  192   16:   30   89:   96
          29       1:  192   16:   30   97:  104
          30       1:  192   16:   30  105:  112
          31       1:  192   16:   30  113:  120
          32       1:  192   16:   30  121:  128
          33       1:  192   31:   44    1:    8
          34       1:  192   31:   44    9:   16
          35       1:  192   31:   44   17:   24
          36       1:  192   31:   44   25:   32
          37       1:  192   31:   44   33:   40
          38       1:  192   31:   44   41:   48
          39       1:  192   31:   44   49:   56
          40       1:  192   31:   44   57:   64
          41       1:  192   31:   44   65:   72
          42       1:  192   31:   44   73:   80
          43       1:  192   31:   44   81:   88
          44       1:  192   31:   44   89:   96
          45       1:  192   31:   44   97:  104
          46       1:  192   31:   44  105:  112
          47       1:  192   31:   44  113:  120
          48       1:  192   31:   44  121:  128
          49       1:  192   45:   58    1:    8
          50       1:  192   45:   58    9:   16
          51       1:  192   45:   58   17:   24
          52       1:  192   45:   58   25:   32
          53       1:  192   45:   58   33:   40
          54       1:  192   45:   58   41:   48
          55       1:  192   45:   58   49:   56
          56       1:  192   45:   58   57:   64
          57       1:  192   45:   58   65:   72
          58       1:  192   45:   58   73:   80
          59       1:  192   45:   58   81:   88
          60       1:  192   45:   58   89:   96
          61       1:  192   45:   58   97:  104
          62       1:  192   45:   58  105:  112
          63       1:  192   45:   58  113:  120
          64       1:  192   45:   58  121:  128
          65       1:  192   59:   72    1:    8
          66       1:  192   59:   72    9:   16
          67       1:  192   59:   72   17:   24
          68       1:  192   59:   72   25:   32
          69       1:  192   59:   72   33:   40
          70       1:  192   59:   72   41:   48
          71       1:  192   59:   72   49:   56
          72       1:  192   59:   72   57:   64
          73       1:  192   59:   72   65:   72
          74       1:  192   59:   72   73:   80
          75       1:  192   59:   72   81:   88
          76       1:  192   59:   72   89:   96
          77       1:  192   59:   72   97:  104
          78       1:  192   59:   72  105:  112
          79       1:  192   59:   72  113:  120
          80       1:  192   59:   72  121:  128
          81       1:  192   73:   86    1:    8
          82       1:  192   73:   86    9:   16
          83       1:  192   73:   86   17:   24
          84       1:  192   73:   86   25:   32
          85       1:  192   73:   86   33:   40
          86       1:  192   73:   86   41:   48
          87       1:  192   73:   86   49:   56
          88       1:  192   73:   86   57:   64
          89       1:  192   73:   86   65:   72
          90       1:  192   73:   86   73:   80
          91       1:  192   73:   86   81:   88
          92       1:  192   73:   86   89:   96
          93       1:  192   73:   86   97:  104
          94       1:  192   73:   86  105:  112
          95       1:  192   73:   86  113:  120
          96       1:  192   73:   86  121:  128
          97       1:  192   87:  100    1:    8
          98       1:  192   87:  100    9:   16
          99       1:  192   87:  100   17:   24
         100       1:  192   87:  100   25:   32
         101       1:  192   87:  100   33:   40
         102       1:  192   87:  100   41:   48
         103       1:  192   87:  100   49:   56
         104       1:  192   87:  100   57:   64
         105       1:  192   87:  100   65:   72
         106       1:  192   87:  100   73:   80
         107       1:  192   87:  100   81:   88
         108       1:  192   87:  100   89:   96
         109       1:  192   87:  100   97:  104
         110       1:  192   87:  100  105:  112
         111       1:  192   87:  100  113:  120
         112       1:  192   87:  100  121:  128
         113       1:  192  101:  114    1:    8
         114       1:  192  101:  114    9:   16
         115       1:  192  101:  114   17:   24
         116       1:  192  101:  114   25:   32
         117       1:  192  101:  114   33:   40
         118       1:  192  101:  114   41:   48
         119       1:  192  101:  114   49:   56
         120       1:  192  101:  114   57:   64
         121       1:  192  101:  114   65:   72
         122       1:  192  101:  114   73:   80
         123       1:  192  101:  114   81:   88
         124       1:  192  101:  114   89:   96
         125       1:  192  101:  114   97:  104
         126       1:  192  101:  114  105:  112
         127       1:  192  101:  114  113:  120
         128       1:  192  101:  114  121:  128
         129       1:  192  115:  128    1:    8
         130       1:  192  115:  128    9:   16
         131       1:  192  115:  128   17:   24
         132       1:  192  115:  128   25:   32
         133       1:  192  115:  128   33:   40
         134       1:  192  115:  128   41:   48
         135       1:  192  115:  128   49:   56
         136       1:  192  115:  128   57:   64
         137       1:  192  115:  128   65:   72
         138       1:  192  115:  128   73:   80
         139       1:  192  115:  128   81:   88
         140       1:  192  115:  128   89:   96
         141       1:  192  115:  128   97:  104
         142       1:  192  115:  128  105:  112
         143       1:  192  115:  128  113:  120
         144       1:  192  115:  128  121:  128

InitMesh: MESH =   384 x   256 x   256 =    25165824
InitMesh: (bp) =   192 x   128 x   128 =     3145728
InitMesh: Mesh cutoff (required, used) =   300.000   314.455 Ry
ExtMesh (bp) on 0 =   328 x   147 x   140 =     6750240
New grid distribution:   2
           1     129:  192    1:   53    1:   47
           2      69:   78    1:   49    1:   47
           3     123:  192   54:   64   48:   52
           4      84:   88   69:  128   49:   56
           5       1:   68    1:   49    1:   47
           6     123:  192   54:   64   53:   57
           7      92:   96   70:  128   57:   63
           8       1:   71    1:   44   57:   63
           9     123:  192    1:   57   64:  128
          10      73:   80    1:   39   64:  128
          11     119:  192   58:   67   64:   68
          12      89:   96   69:  128   49:   52
          13       1:   72    1:   39   64:  128
          14      81:   87    1:   40   65:  128
          15      84:   90   60:   70    1:   48
          16      89:   96   69:  128   53:   56
          17     124:  192   68:   75   66:  128
          18      79:   86    1:   50    1:   48
          19      87:   96    1:   46   49:   56
          20      86:   96   41:   56   65:   70
          21       1:   71   45:   56   57:   63
          22      70:   80   40:   56   64:   68
          23     128:  192    1:   53   48:   57
          24     112:  123    1:   57   58:   63
          25     112:  122    1:   57   64:  128
          26      97:  101    1:   54   65:  128
          27      70:   78    1:   44   48:   56
          28     116:  122   54:   64   48:   57
          29     102:  111    1:   54   65:  128
          30      77:   85   57:   64   63:  128
          31     103:  113   75:  128   65:   70
          32      72:   80   45:   56   57:   63
          33     116:  128    1:   53    1:   47
          34     105:  115    1:   53   50:   57
          35      97:  104    1:   53   50:   57
          36     112:  123   58:   67   58:   63
          37     106:  115    1:   56    1:   49
          38      67:   78   45:   59   53:   56
          39     116:  127    1:   53   48:   57
          40     103:  111    1:   57   58:   64
          41       1:   69    1:   44   48:   56
          42      81:   85   41:   56   65:  128
          43      88:   96    1:   46   57:   64
          44     114:  123   68:   76   58:   65
          45     124:  192   65:   72    1:   49
          46       1:   74   60:   66   48:   56
          47      91:   96   60:   70    1:   48
          48     102:  111   55:   67   65:   69
          49       1:   68   50:   59    1:   47
          50      69:   78   50:   59    1:   47
          51      79:   87   51:   59    1:   48
          52      81:   88   47:   56   57:   64
          53      97:  105    1:   56    1:   49
          54      88:   96   51:   59    1:   48
          55       1:   66   45:   59   48:   56
          56      97:  102    1:   57   58:   64
          57       1:   69   40:   56   64:  128
          58      70:   80   40:   56   69:  128
          59      92:   96   57:   66   64:  128
          60      89:   96   47:   56   57:   64
          61      87:   96    1:   50    1:   48
          62      86:   96   41:   56   71:  128
          63      97:  104   57:   64    1:   49
          64      85:   96   47:   59   53:   56
          65     127:  192   54:   64    1:   47
          66     116:  126   54:   64    1:   47
          67     104:  112   65:   73    1:   49
          68      85:   96   47:   59   49:   52
          69       1:   72   60:   68    1:   47
          70      67:   78   45:   59   48:   52
          71     124:  192   65:   71   50:   57
          72     124:  192   68:   76   58:   65
          73     105:  113   68:   74   65:  128
          74     119:  192   58:   67   69:  128
          75     102:  111   55:   67   70:  128
          76      79:   84   47:   59   49:   56
          77       1:   76   57:   64   63:  128
          78     114:  123   68:   75   66:  128
          79      86:   91   57:   66   64:  128
          80     113:  123   65:   71   50:   57
          81       1:   75   69:  128    1:   47
          82      76:   83   69:  128    1:   47
          83      97:  103   65:   73    1:   49
          84      76:   85   57:   66   57:   62
          85     122:  192   73:  128    1:   49
          86      84:   90   71:  128    1:   48
          87      73:   83   67:  128   48:   52
          88      97:  101   73:  128   50:   57
          89       1:   76   65:  128   63:  128
          90      86:   89   67:  128   64:  128
          91      97:  104   68:   74   65:  128
          92     104:  112   65:   72   50:   57
          93      77:   85   65:  128   68:  128
          94      73:   83   60:   68    1:   47
          95      78:   85   67:  128   57:   62
          96     103:  115   54:   64   50:   53
          97     113:  121   73:  128    1:   49
          98      97:  103   74:  128    1:   49
          99      79:   86    1:   46   49:   56
         100     103:  115   54:   64   54:   57
         101      91:   96   71:  128    1:   48
         102      75:   83   60:   66   48:   56
         103       1:   72   67:  128   48:   56
         104     105:  113   77:  128   58:   64
         105      97:  102   75:  128   65:  128
         106     121:  192   76:  128   73:  128
         107      97:  104   77:  128   58:   64
         108     105:  113   68:   76   58:   64
         109     103:  113   75:  128   71:  128
         110     112:  118   58:   67   64:  128
         111      77:   85   65:  128   63:   67
         112     104:  111   58:   67   58:   64
         113     104:  112   74:  128    1:   49
         114       1:   75   57:   66   57:   62
         115      72:   80    1:   44   57:   63
         116      86:   91   57:   69   57:   63
         117     113:  118   72:  128   50:   57
         118      97:  102   54:   64   50:   57
         119     119:  192   72:  128   50:   53
         120     124:  192   77:  128   58:   65
         121     121:  192   76:  128   66:   72
         122     105:  115   57:   64    1:   49
         123      73:   83   67:  128   53:   56
         124      97:  104   68:   76   58:   64
         125      90:   96   67:  128   70:  128
         126     113:  123   65:   72    1:   49
         127      90:   96   67:  128   64:   69
         128      84:   90   60:   68   49:   56
         129     124:  192    1:   57   58:   63
         130      97:  101   55:   67   65:  128
         131      81:   87    1:   46   57:   64
         132      97:  103   58:   67   58:   64
         133      86:   91   70:  128   57:   63
         134      92:   96   57:   69   57:   63
         135     119:  192   72:  128   54:   57
         136       1:   77   67:  128   57:   62
         137     114:  123   77:  128   58:   65
         138     114:  120   76:  128   66:  128
         139     102:  112   73:  128   50:   53
         140      97:  103   65:   72   50:   57
         141      88:   96    1:   40   65:  128
         142     124:  192   58:   67   58:   63
         143     102:  112   73:  128   54:   57
         144      91:   96   60:   68   49:   56
New grid distribution:   3
           1     150:  192    1:   40    1:   41
           2      48:   63    1:   37    1:   40
           3      46:   63   38:   51    1:   40
           4      48:   70   24:   48   69:   78
           5       1:   47    1:   37    1:   40
           6      46:   70   30:   48   57:   68
           7     152:  192    1:   33   42:   58
           8     111:  131    1:   40   59:   70
           9      64:   78    1:   33    1:   41
          10     147:  192    1:   42   69:  128
          11     150:  192   34:   58   42:   50
          12      88:   98   49:   85   57:   70
          13       1:   60    1:   23   69:  128
          14      99:  106    1:   43   71:  128
          15       1:   46   52:   65   42:   56
          16      81:   98    1:   21   42:   56
          17      99:  123    1:   43    1:   42
          18     124:  136    1:   43    1:   42
          19     150:  192   34:   58   51:   58
          20      55:   70    1:   29   57:   68
          21      86:   98   75:  128    1:   40
          22       1:   50    1:   28   41:   56
          23     115:  136    1:   31   43:   58
          24      99:  110    1:   40   59:   70
          25       1:   54    1:   29   57:   68
          26     107:  131    1:   43   71:  128
          27     137:  151    1:   33   42:   58
          28      76:   98   22:   51   42:   49
          29     132:  146    1:   42   69:  128
          30      84:   98    1:   19   73:  128
          31     136:  151   90:  128   59:   71
          32      34:   63   29:   51   41:   48
          33      73:   85   75:  128    1:   40
          34       1:   45   38:   51    1:   40
          35      64:   78   34:   51    1:   41
          36      34:   63   29:   51   49:   56
          37      79:   98    1:   33    1:   41
          38     137:  149    1:   40    1:   41
          39     137:  149   34:   58   42:   58
          40       1:   45   30:   48   57:   68
          41     150:  192    1:   42   59:   68
          42       1:   47   24:   48   69:  128
          43     110:  132   79:  128   52:   58
          44      80:   98   20:   48   73:   82
          45      48:   70   24:   48   79:  128
          46      71:   79   20:   48   73:  128
          47      99:  114    1:   31   43:   58
          48      47:   72   52:   65   42:   56
          49     152:  192   41:   58    1:   41
          50      79:   98   34:   51    1:   41
          51     137:  151   41:   58    1:   41
          52     132:  152   43:   68   59:   68
          53       1:   50   52:   64    1:   41
          54      99:  108   44:   68   71:  128
          55      99:  111   32:   58   43:   58
          56     153:  192   43:   68   59:   68
          57       1:   49   49:   68   57:   66
          58      57:   76   49:   61   67:  128
          59     142:  192   43:   68   76:  128
          60     133:  152   59:   79   46:   58
          61       1:   56   49:   61   67:  128
          62     132:  141   43:   68   69:  128
          63      64:   76   62:  128   67:   75
          64     116:  132   59:   78   43:   58
          65     147:  192   59:   78    1:   45
          66      71:   83    1:   19   73:  128
          67      82:   98   78:  128   41:   49
          68      99:  115   59:   78   43:   58
          69      80:   98   20:   48   83:  128
          70      61:   70    1:   23   69:  128
          71     153:  192   59:   79   46:   58
          72      99:  115   41:   68   59:   70
          73     142:  192   43:   68   69:   75
          74     152:  192   69:   83   72:  128
          75      88:   98   49:   72   71:  128
          76      99:  117   69:   90   59:   71
          77     109:  131   44:   68   80:  128
          78      77:   87   49:   72   71:  128
          79     133:  144   80:  128   46:   58
          80      73:   85   52:   77   41:   56
          81       1:   61   65:  128    1:   41
          82     136:  151   69:   83   72:  128
          83     132:  149    1:   42   59:   68
          84      86:   98   52:   77   41:   56
          85     133:  146   59:   78    1:   45
          86      56:   72   66:  128   42:   49
          87       1:   55   66:  128   42:   56
          88      77:   87   49:   85   57:   70
          89     156:  192   69:   89   59:   71
          90       1:   63   62:  128   67:  128
          91      99:  117   69:   82   72:  128
          92      64:   75   22:   51   42:   56
          93      64:   76   62:  128   76:  128
          94     118:  135   69:   82   72:  128
          95      56:   72   66:  128   50:   56
          96      50:   76   49:   68   57:   66
          97     148:  192   79:  128    1:   45
          98      99:  118   44:   58    1:   42
          99      73:   81   78:  128   41:   56
         100     112:  136   32:   58   51:   58
         101     113:  132   76:  128    1:   42
         102     110:  132   79:  128   43:   51
         103     145:  192   80:  128   46:   52
         104     136:  155   69:   89   59:   71
         105      99:  115   91:  128   59:   71
         106     146:  192   84:  128   72:   79
         107     146:  192   84:  128   80:  128
         108     112:  136   32:   58   43:   50
         109     111:  135   83:  128   80:  128
         110       1:   33   29:   51   41:   56
         111      65:   76   69:  128   57:   66
         112      85:   98   25:   48   57:   72
         113     133:  147   79:  128    1:   45
         114     116:  132   59:   75    1:   42
         115      88:   98   86:  128   57:   70
         116     116:  131   41:   68   59:   70
         117      71:   84   25:   48   57:   72
         118      99:  109   79:  128   43:   58
         119     145:  192   80:  128   53:   58
         120       1:   64   69:  128   57:   66
         121     152:  192   90:  128   59:   71
         122     111:  135   83:  128   72:   79
         123      85:   98   73:  128   79:  128
         124      85:   98    1:   24   57:   72
         125      99:  110   83:  128   72:  128
         126      99:  115   59:   75    1:   42
         127      77:   87   86:  128   57:   70
         128      71:   84    1:   24   57:   72
         129      99:  112   76:  128    1:   42
         130      86:   98   52:   74    1:   40
         131      85:   98   73:  128   71:   78
         132      64:   80    1:   21   42:   56
         133      62:   72   65:  128    1:   41
         134      73:   85   52:   74    1:   40
         135     109:  131   44:   68   71:   79
         136     116:  135   91:  128   59:   71
         137      51:   72   52:   64    1:   41
         138      77:   84   73:  128   71:  128
         139      82:   98   78:  128   50:   56
         140     118:  135   69:   90   59:   71
         141     136:  145   84:  128   72:  128
         142     119:  136   44:   58    1:   42
         143      51:   63    1:   28   41:   56
         144      76:   98   22:   51   50:   56
Setting up quadratic distribution...
ExtMesh (bp) on 0 =   200 x   185 x   179 =     6623000
PhiOnMesh: Number of (b)points on node 0 =               159424
PhiOnMesh: nlist on node 0 =               769327

stepf: Fermi-Dirac step function

siesta: Program's energy decomposition (eV):
siesta: Ebs     =     -4842.086330
siesta: Eions   =     18316.795456
siesta: Ena     =      2204.426064
siesta: Ekin    =      8067.495154
siesta: Enl     =     -2124.783515
siesta: DEna    =         0.000005
siesta: DUscf   =         0.000000
siesta: DUext   =         0.000000
siesta: Exc     =     -3535.588820
siesta: eta*DQ  =         0.000000
siesta: Emadel  =         0.000000
siesta: Emeta   =         0.000000
siesta: Emolmec =         0.000000
siesta: Ekinion =         0.000000
siesta: Eharris =    -13741.321703
siesta: Etot    =    -13705.246568
siesta: FreeEng =    -13705.246568

siesta: iscf   Eharris(eV)      E_KS(eV)   FreeEng(eV)   dDmax  Ef(eV)
siesta:    1   -13741.3217   -13705.2466   -13705.2466 10.7249 -8.4545
timer: Routine,Calls,Time,% =    IterSCF     1      13.050  33.43
[...]
              0.038   0.613   0.514   0.583   0.290   0.302   0.356   0.339

              0.355
  39  6.148   0.849   0.065   0.471   0.351   0.439   0.522   0.032   0.041
              0.021   0.648   0.508   0.556   0.362   0.340   0.353   0.308

              0.282
  71  6.153   0.902   0.065   0.422   0.420   0.440   0.471   0.033   0.041
              0.019   0.565   0.503   0.625   0.346   0.325   0.354   0.321

              0.300

Species: Na                  
Atom  Qatom  Qorb
               3s      3s      3s      3Ppy    3Ppz    3Ppx    
  75  0.182   0.018   0.045   0.069   0.015   0.016   0.018
  76  0.181   0.019   0.053   0.059   0.015   0.017   0.017
  77  0.184   0.011   0.026   0.097   0.019   0.016   0.015
  78  0.185   0.014   0.035   0.086   0.017   0.016   0.018

Species: N                   
Atom  Qatom  Qorb
               2s      2s      2s      2py     2pz     2px     2py     2pz     
               2px     2py     2pz     2px     2Pdxy   2Pdyz   2Pdz2   2Pdxz   
               2Pdx2-y2
  21  5.171   1.331   0.114   0.067   1.155   0.852   1.019   0.117   0.015
              0.096   0.008   0.208   0.035   0.035   0.031   0.011   0.033

              0.044
  23  4.859   0.658   0.198   0.424   0.435   0.949   0.480   0.189   0.011
              0.188   0.410   0.412   0.337   0.059   0.025   0.009   0.025

              0.050
  52  4.863   0.672   0.197   0.413   0.448   0.952   0.466   0.194   0.010
              0.184   0.436   0.413   0.312   0.050   0.009   0.009   0.040

              0.059
  54  5.167   1.319   0.115   0.073   1.487   0.854   0.676   0.046   0.014
              0.169  -0.031   0.208   0.082   0.044   0.017   0.011   0.047

              0.036

Species: O                   
Atom  Qatom  Qorb
               2s      2s      2s      2py     2pz     2px     2py     2pz     
               2px     2py     2pz     2px     2Pdxy   2Pdyz   2Pdz2   2Pdxz   
               2Pdx2-y2
   1  6.384   1.839  -0.014  -0.012   1.616   1.838   1.489   0.025   0.024
              0.049  -0.098  -0.297  -0.106   0.009   0.007   0.002   0.009

              0.004
   2  6.395   1.848  -0.019  -0.017   1.465   2.033   1.450   0.151  -0.026
             -0.046  -0.396  -0.327   0.246   0.008   0.008   0.003   0.001

              0.012
   3  6.385   1.751  -0.016   0.084   1.709   1.331   1.457  -0.040   0.148
             -0.033   0.030  -0.258   0.193   0.000   0.006   0.016   0.010

             -0.001
   5  6.337   1.258   0.038   0.461   1.778   1.124   1.302  -0.028  -0.013
              0.116   0.006   0.299  -0.054   0.012   0.001   0.004   0.017

              0.015
  34  6.389   1.883  -0.019  -0.053   1.366   2.001   1.497   0.031  -0.023
              0.072   0.062  -0.304  -0.156   0.013   0.004   0.003   0.004

              0.006
  35  6.396   1.733  -0.016   0.098   1.629   1.835   1.644  -0.035   0.034
              0.091   0.038  -0.332  -0.355   0.006   0.004   0.003   0.013

              0.006
  37  6.396   1.692  -0.013   0.137   1.573   1.333   1.976  -0.032   0.139
             -0.024   0.077  -0.219  -0.275   0.000   0.010   0.014   0.006

             -0.001
  38  6.392   1.685  -0.014   0.146   1.699   1.324   1.705  -0.042   0.144
             -0.022   0.035  -0.230  -0.067  -0.001   0.006   0.015   0.010

              0.000
  40  6.393   1.768  -0.013   0.059   1.775   1.831   1.523  -0.017   0.033
              0.078  -0.124  -0.322  -0.229   0.006   0.005   0.003   0.012

              0.006
  41  6.392   1.870  -0.019  -0.038   1.420   2.019   1.453   0.154  -0.028
             -0.048  -0.374  -0.306   0.259   0.007   0.008   0.003   0.000

              0.014
  70  6.336   1.251   0.039   0.465   1.838   1.120   1.232  -0.003  -0.012
              0.091  -0.160   0.301   0.124   0.015   0.006   0.004   0.012

              0.012
  72  6.373   1.746  -0.015   0.087   1.881   1.360   1.038  -0.010   0.133
             -0.044  -0.247  -0.232   0.646  -0.001   0.009   0.013   0.008

              0.001
  73  6.392   1.879  -0.016  -0.051   1.479   2.066   1.363   0.025  -0.036
              0.093   0.013  -0.324  -0.130   0.013   0.001   0.003   0.006

              0.009
  74  6.392   1.749  -0.016   0.082   1.587   1.754   1.653   0.087   0.048
             -0.043  -0.291  -0.305   0.054   0.003   0.014   0.004   0.005

              0.007

Species: H                   
Atom  Qatom  Qorb
               1s      1s      1s      1Ppy    1Ppz    1Ppx    
   7  1.107   0.622   0.065   0.331   0.030   0.032   0.026
   9  1.092   0.595   0.065   0.347   0.032   0.030   0.024
  12  1.098   0.605   0.065   0.332   0.036   0.030   0.030
  15  1.069   0.557   0.067   0.353   0.030   0.030   0.032
  17  1.095   0.590   0.066   0.341   0.035   0.031   0.031
  22  0.986   0.470   0.075   0.261   0.090   0.052   0.038
  24  1.086   0.582   0.066   0.343   0.035   0.031   0.029
  26  1.099   0.592   0.066   0.340   0.032   0.034   0.035
  29  1.094   0.600   0.065   0.338   0.028   0.032   0.030
  31  1.061   0.539   0.068   0.355   0.026   0.032   0.040
  44  1.061   0.543   0.068   0.353   0.032   0.032   0.034
  46  1.094   0.600   0.065   0.338   0.033   0.033   0.025
  49  1.097   0.586   0.066   0.343   0.029   0.034   0.039
  51  1.086   0.585   0.066   0.341   0.036   0.031   0.028
  53  0.986   0.476   0.075   0.258   0.089   0.051   0.037
  58  1.094   0.587   0.066   0.344   0.028   0.031   0.039
  60  1.070   0.565   0.066   0.348   0.035   0.030   0.025
  63  1.098   0.605   0.065   0.331   0.029   0.030   0.037
  66  1.093   0.596   0.065   0.346   0.025   0.030   0.030
  68  1.107   0.621   0.065   0.331   0.033   0.032   0.023

mulliken: Qtot =      280.000

siesta: Eigenvalues (eV):
  ik is    eps
   1  1 -27.57 -27.55 -27.45 -27.43 -26.42 -26.38 -25.57 -25.54 -23.98 -23.97
        -23.91 -23.89 -23.86 -23.83 -23.79 -23.77 -22.36 -22.32 -21.89 -21.84
        -21.12 -21.10 -20.51 -20.50 -19.54 -19.51 -19.12 -19.11 -18.85 -18.83
        -18.80 -18.77 -17.68 -17.64 -16.52 -16.49 -16.47 -16.44 -16.25 -16.23
        -15.90 -15.88 -15.23 -15.21 -14.87 -14.85 -14.79 -14.76 -14.09 -14.06
        -13.80 -13.78 -13.14 -13.11 -12.69 -12.67 -12.61 -12.60 -12.43 -12.42
        -11.98 -11.93 -11.89 -11.86 -11.76 -11.63 -11.63 -11.44 -11.42 -11.34
        -11.32 -11.31 -11.29 -11.23 -11.22 -11.20 -11.18 -11.15 -11.00 -10.98
        -10.92 -10.91 -10.89 -10.88 -10.54 -10.52 -10.44 -10.37 -10.36 -10.35
         -9.82  -9.76  -9.73  -9.54  -9.51  -9.48  -9.45  -9.34  -9.30  -9.28
         -8.41  -8.30  -8.25  -8.23  -8.18  -8.14  -8.13  -8.11  -8.08  -8.02
         -8.01  -7.99  -7.98  -7.95  -7.92  -7.91  -7.83  -7.81  -7.50  -7.35
         -7.22  -7.20  -7.11  -7.10  -7.08  -7.06  -7.01  -7.00  -6.79  -6.72
         -6.48  -6.44  -6.35  -6.31  -6.13  -6.11  -6.01  -5.98  -5.87  -5.81
         -4.25  -4.01  -2.81  -2.76  -2.28  -2.22  -2.20  -2.15  -2.09  -1.91
         -1.78  -1.77  -1.65  -1.63  -1.08  -0.99  -0.57  -0.44  -0.34  -0.30
         -0.15  -0.10  -0.02  -0.01  -0.01   0.13   0.14   0.16   0.17   0.24
          0.26   0.42   0.44   0.55   0.59   0.67   0.71   0.78   0.85   0.86
          0.89   0.96   0.98   1.05   1.06   1.13   1.35   1.41   1.50   1.51
          1.57   1.60   1.62   1.74   1.92   1.94   2.03   2.09   2.17   2.20
          2.20   2.26   2.27   2.35   2.39   2.47   2.53   2.59   2.67   2.69
          2.74   2.78   2.80   2.83   2.94   2.97   3.00   3.07   3.16   3.27
          3.28   3.36   3.48   3.56   3.60   3.63   3.65   3.73   3.79   3.86
          3.90   3.92   4.03   4.13   4.20   4.24   4.26   4.31   4.44   4.51
          4.55   4.60   4.69   4.79   4.83   4.87   4.93   5.02   5.06   5.10
          5.17   5.19   5.36   5.39   5.47   5.50   5.55   5.58   5.70   5.74
          5.78   5.79   5.87   5.97   6.00   6.03   6.09   6.12   6.17   6.21
          6.29   6.38   6.42   6.49   6.51   6.55   6.59   6.62   6.64   6.69
          6.73   6.90   6.94   6.98   7.04   7.08   7.14   7.20   7.27   7.29
          7.32   7.36   7.37   7.43   7.49   7.53   7.56   7.67   7.69   7.75
          7.81   7.92   7.93   8.03   8.07   8.12   8.19   8.21   8.31   8.37
          8.40   8.44   8.51   8.54   8.69   8.72   8.83   8.85   8.89   8.91
          8.96   9.04   9.07   9.10   9.15   9.19   9.23   9.31   9.35   9.47
          9.54   9.61   9.65   9.76   9.79   9.84   9.90   9.95  10.04  10.05
         10.12  10.19  10.27  10.39  10.46  10.52  10.68  10.72  10.76  10.91
         11.00  11.08  11.12  11.22  11.27  11.31  11.60  11.61  11.65  11.69
         11.83  11.91  11.93  12.14  12.44  12.55  12.61  12.71  12.72  12.76
         12.89  12.93  13.06  13.13  13.13  13.28  13.41  13.50  13.54  13.61
         13.66  13.72  13.80  13.87  13.94  13.96  14.09  14.13  14.18  14.23
         14.33  14.38  14.47  14.54  14.73  14.78  14.81  14.92  15.01  15.12
         15.17  15.27  15.30  15.40  15.48  15.60  15.63  15.70  15.82  15.89
         16.04  16.10  16.17  16.22  16.33  16.46  16.56  16.62  16.64  16.74
         16.90  16.93  17.09  17.18  17.26  17.34  17.37  17.43  17.50  17.66
         17.84  17.90  17.91  17.97  18.06  18.14  18.23  18.28  18.34  18.67
         18.70  18.73  18.80  18.88  19.01  19.10  19.29  19.36  19.44  19.51
         19.57  19.66  19.70  19.79  19.83  20.10  20.13  20.26  20.29  20.42
         20.49  20.67  20.75  20.82  20.95  21.06  21.10  21.27  21.38  21.42
         21.50  21.60  21.71  21.86  21.96  22.06  22.20  22.35  22.37  22.59
         22.68  22.91  23.00  23.15  23.41  23.56  23.61  23.70  23.79  24.00
         24.10  24.16  24.28  24.29  24.35  24.76  24.91  24.97  24.99  25.19
         25.21  25.29  25.35  25.45  25.70  25.74  25.79  25.85  25.98  26.02
         26.11  26.21  26.24  26.40  26.45  26.58  26.63  26.68  26.86  26.91
         27.08  27.23  27.29  27.40  27.48  27.51  27.66  27.96  28.10  28.17
         28.26  28.50  28.60  28.65  28.68  28.71  28.81  28.84  28.91  28.92
         28.96  29.04  29.13  29.25  29.38  29.40  29.52  29.67  29.73  29.75
         29.83  29.89  29.95  30.04  30.08  30.18  30.22  30.25  30.36  30.42
         30.45  30.53  30.55  30.62  30.66  30.73  30.78  30.89  31.00  31.10
         31.25  31.28  31.39  31.42  31.48  31.59  31.66  31.68  31.73  31.94
         31.95  32.02  32.19  32.23  32.30  32.37  32.46  32.55  32.64  32.77
         32.83  32.93  33.25  33.34  33.41  33.57  33.66  33.82  33.86  33.99
         34.01  34.16  34.23  34.31  34.37  34.54  34.61  34.64  34.76  34.76
         34.93  35.08  35.12  35.20  35.35  35.49  35.58  35.65  35.73  35.81
         35.96  36.02  36.11  36.20  36.25  36.45  36.54  36.65  36.85  36.89
         37.03  37.06  37.09  37.14  37.23  37.32  37.36  37.51  37.58  37.61
         37.68  37.84  37.92  37.93  38.15  38.17  38.36  38.39  38.47  38.49
         38.52  38.66  38.67  38.99  39.03  39.19  39.35  39.60  39.63  39.78
         39.85  40.10  40.12  40.19  40.34  40.47  40.54  40.58  40.64  40.65
         40.81  40.95  41.03  41.13  41.13  41.26  41.31  41.40  41.58  41.69
         41.89  41.95  42.07  42.18  42.29  42.52  42.69  42.71  42.78  42.89
         42.97  43.21  43.29  43.39  43.40  43.51  43.75  43.81  43.97  44.05
         44.18  44.26  44.38  44.50  44.55  44.62  44.71  44.80  44.82  44.92
         45.01  45.20  45.24  45.56  45.58  45.79  45.88  45.94  46.00  46.19
         46.33  46.38  46.49  46.61  46.67  46.92  46.94  47.11  47.20  47.25
         47.32  47.38  47.41  47.51  47.67  47.71  47.72  47.83  47.91  48.00
         48.03  48.09  48.15  48.20  48.25  48.36  48.43  48.62  48.70  48.73
         48.81  48.85  48.90  49.08  49.11  49.18  49.36  49.42  49.46  49.55
         49.66  49.78  49.90  50.00  50.04  50.11  50.32  50.48  50.58  50.65
         50.75  50.77  51.04  51.14  51.26  51.30  51.60  51.82  51.86  52.00
         52.04  52.10  52.45  52.48  52.59  52.61  52.79  52.88  52.98  53.06
         53.15  53.30  53.38  53.75  53.86  53.94  54.09  54.15  54.37  54.42
         54.47  54.71  54.75  54.86  54.92  55.13  55.39  55.62  55.73  55.82
         56.28  56.49  56.57  56.77  56.90  57.10  57.25  57.47  57.63  57.86
         57.92  58.14  58.27  58.52  58.65  58.68  58.89  59.11  59.12  59.23
         59.40  59.54  59.57  59.67  59.87  59.90  60.03  60.16  60.27  60.40
         60.71  60.89  61.05  61.21  61.33  61.39  61.45  61.70  61.80  62.00
         62.18  62.21  62.34  62.49  62.50  62.75  62.78  62.98  63.10  63.16
         63.33  63.59  63.68  63.73  63.79  63.98  63.98  64.06  64.47  64.53
         64.65  64.72  64.92  65.29  65.45  65.64  65.69  65.95  65.98  66.09
         66.43  66.48  66.71  66.76  67.00  67.23  67.37  67.44  67.69  67.71
         67.80  67.91  67.97  68.38  68.45  68.53  68.58  68.76  68.82  68.91
         69.16  69.21  69.27  69.49  69.64  69.82  69.97  69.99  70.13  70.38
         70.48  70.65  70.72  70.97  71.07  71.28  71.33  71.59  71.63  71.69
         72.03  72.11  72.50  72.55  72.70  72.92  73.26  73.51  73.58  73.69
         73.74  74.17  74.19  74.33  74.43  74.50  74.73  74.84  74.96  75.34
         75.48  75.68  76.22  76.30  76.41  76.70  76.90  77.36  77.54  77.67
         78.05  78.22  78.84  79.53  80.15  80.75  81.30  81.76  82.18  82.39
         83.83  84.35  84.41  84.97  86.22  86.80  87.08  87.30  88.13  88.54
         89.00  89.32  89.50  89.84  90.37  90.71  90.89  91.12  91.32  91.78
         91.98  92.09  93.10  93.53  94.31  94.74  94.97  95.02  96.46  96.56
         97.27  97.36  97.62  97.69  98.05  98.19  98.26  98.49  98.82  99.23
         99.36  99.58  99.94 100.35 100.39 100.65 101.71 102.07 102.36 103.18
        103.90 104.19 104.81 104.98 105.30 105.37 106.47 106.58 107.16 107.31
        107.64 107.89 108.31 108.68 109.87 110.08 110.48 110.78 110.93 111.57
        112.84 113.12 114.79 114.83 115.58 115.78 117.21 117.24 117.72 117.93
        118.16 118.48 119.25 119.45 120.15 120.23 120.83 121.12 121.71 122.10
        125.41 126.11 127.96 129.16 130.49 131.38 132.15 132.56 135.62 136.17
        138.33 140.31
siesta: Fermi energy =      -5.043388 eV

siesta: Program's energy decomposition (eV):
siesta: Ebs     =     -3727.386624
siesta: Eions   =     18316.795456
siesta: Ena     =      2204.426064
siesta: Ekin    =      9267.287615
siesta: Enl     =     -2883.421186
siesta: DEna    =      -295.867378
siesta: DUscf   =        45.327271
siesta: DUext   =         0.000000
siesta: Exc     =     -3709.965322
siesta: eta*DQ  =         0.000000
siesta: Emadel  =         0.000000
siesta: Emeta   =         0.000000
siesta: Emolmec =         0.000000
siesta: Ekinion =         0.000000
siesta: Eharris =    -13689.008049
siesta: Etot    =    -13689.008392
siesta: FreeEng =    -13689.008392

siesta: Final energy (eV):
siesta:  Band Struct. =   -3727.386624
siesta:       Kinetic =    9267.287615
siesta:       Hartree =   60789.347349
siesta:    Ext. field =       0.000000
siesta:   Exch.-corr. =   -3709.965322
siesta:  Ion-electron = -129820.329725
siesta:       Ion-ion =   49784.651692
siesta:       Ekinion =       0.000000
siesta:         Total =  -13689.008392

siesta: Atomic forces (eV/Ang):
siesta:      1   -0.190357    0.188881   -0.193940
siesta:      2   -0.017874   -0.311006   -0.102762
siesta:      3   -0.060180    0.038212    0.323185
siesta:      4   -0.001958    0.014858    0.051209
siesta:      5    0.626222    0.178282    0.012532
siesta:      6   -0.091903    0.102488    0.001203
siesta:      7    0.255939   -0.235845    0.005358
siesta:      8    0.392021   -0.138133   -0.009139
siesta:      9   -0.102119   -0.329498    0.013485
siesta:     10   -0.303054   -0.296823    0.048138
siesta:     11    0.104265    0.043665   -0.003697
siesta:     12   -0.095821   -0.334274    0.027463
siesta:     13   -0.016528   -0.423627    0.030454
siesta:     14   -0.477768   -0.074963    0.031692
siesta:     15   -0.266172    0.233935   -0.013005
siesta:     16   -0.315999    0.260643   -0.013974
siesta:     17    0.094887    0.329667   -0.034719
siesta:     18    0.133530    0.335831   -0.036112
siesta:     19    0.108851   -0.009504    0.006050
siesta:     20    0.043853   -0.087027   -0.011048
siesta:     21   -0.455226    0.458809    0.024713
siesta:     22    0.259446   -0.292487    0.000410
siesta:     23    0.208010   -0.016824   -0.019370
siesta:     24   -0.230641    0.272952    0.019421
siesta:     25   -0.261362    0.276852    0.014500
siesta:     26   -0.334905   -0.104968   -0.001455
siesta:     27   -0.378851   -0.116609    0.009801
siesta:     28   -0.086369   -0.261867   -0.017085
siesta:     29    0.238041   -0.243313   -0.016316
siesta:     30    0.233206   -0.304982   -0.020852
siesta:     31    0.362595    0.082681    0.010451
siesta:     32    0.393965    0.111740    0.002823
siesta:     33    0.126257    0.450125    0.030806
siesta:     34   -0.272520    0.174561   -0.116457
siesta:     35    0.245934    0.044739   -0.205325
siesta:     36    0.029307    0.027848    0.070538
siesta:     37    0.072080    0.063987    0.290266
siesta:     38   -0.081472   -0.020329   -0.298315
siesta:     39   -0.034874   -0.001194   -0.064023
siesta:     40   -0.224241   -0.120691    0.213798
siesta:     41    0.078710    0.315002    0.104710
siesta:     42   -0.398870    0.245599   -0.031065
siesta:     43   -0.364177   -0.191895    0.005381
siesta:     44   -0.317787   -0.182202   -0.001901
siesta:     45    0.035236   -0.379826    0.041262
siesta:     46   -0.008377   -0.354146    0.028733
siesta:     47    0.244740   -0.133437    0.019374
siesta:     48    0.362307    0.167418   -0.017603
siesta:     49    0.316976    0.153627   -0.006818
siesta:     50   -0.010516    0.386895   -0.034392
siesta:     51   -0.017041    0.352210   -0.033699
siesta:     52   -0.143351   -0.153380    0.015317
siesta:     53    0.022517   -0.402226   -0.002545
siesta:     54   -0.013269    0.647337   -0.027271
siesta:     55    0.024488   -0.086285    0.005403
siesta:     56   -0.062887   -0.079200   -0.010904
siesta:     57   -0.334523    0.135717    0.039237
siesta:     58   -0.306018    0.165479    0.044496
siesta:     59    0.037171    0.403584    0.020396
siesta:     60    0.019975    0.349407    0.020398
siesta:     61    0.384589    0.284716   -0.024684
siesta:     62    0.322355   -0.283798   -0.035310
siesta:     63    0.310349   -0.170097   -0.033039
siesta:     64   -0.092237   -0.043821    0.004622
siesta:     65    0.413620    0.007786   -0.046529
siesta:     66    0.309175   -0.157845   -0.017513
siesta:     67   -0.175529   -0.369541    0.000197
siesta:     68   -0.008299   -0.343288   -0.012295
siesta:     69   -0.005431    0.128747   -0.000716
siesta:     70   -0.568774   -0.327573   -0.003521
siesta:     71   -0.022162    0.028404   -0.035916
siesta:     72    0.002598    0.102271   -0.310855
siesta:     73    0.245984   -0.224107    0.065572
siesta:     74    0.002737    0.237586    0.214097
siesta:     75    0.093091    0.035462   -0.015820
siesta:     76   -0.087009   -0.042368    0.017591
siesta:     77   -0.021950   -0.119433   -0.004796
siesta:     78    0.096596   -0.067412    0.007188
siesta: ----------------------------------------
siesta:    Tot   -0.006780    0.002160    0.007481

siesta: Stress tensor (static) (eV/Ang**3):
siesta:     0.001241    0.000024   -0.000029
siesta:     0.000024    0.001226   -0.000009
siesta:    -0.000029   -0.000009    0.000129

siesta: Cell volume =      20160.000000 Ang**3

siesta: Pressure (static):
siesta:                Solid            Molecule  Units
siesta:          -0.00000942         -0.00000003  Ry/Bohr**3
siesta:          -0.00086522         -0.00000297  eV/Ang**3
siesta:          -1.38624530         -0.00476071  kBar
(Free)E+ p_basis*V_orbitals  =      -13557.901329
(Free)Eharris+ p_basis*V_orbitals  =      -13557.900708

siesta: Electric dipole (a.u.)  =    0.813839   -2.005790    0.046499
siesta: Electric dipole (Debye) =    2.068575   -5.098212    0.118188
>> End of run:   3-MAR-2014  18:21:43
