LAMMPS data file via write_data, version 11 Aug 2017, timestep = 3800000

8069 atoms
8 atom types
4745 bonds
5 bond types
7667 angles
6 angle types
3297 dihedrals
2 dihedral types

-7.5967513371196560e-01 5.5783453685310214e+01 xlo xhi
-7.5967513371196560e-01 5.5783453685310214e+01 ylo yhi
-7.5967513371196560e-01 5.5783453685310214e+01 zlo zhi

Masses

1 30.9738
2 32.066
3 30.9738
4 32.066
5 32.066
6 30.9738
7 32.066
8 6.941

Bond Coeffs # class2

1 2.058 181.497 58.1043 40.2771
2 2.06993 161.072 21.6278 556.095
3 2.28618 78.2615 18.8148 284.987
4 2.09744 121.563 6.356 644.743
5 2.31455 157.603 150.088 143.735

Angle Coeffs # class2

1 104.305 32.4491 48.6496 183.885
2 115.313 42.4781 63.8853 431.709
3 116.46 85.0402 10.9476 474.391
4 114.173 51.6291 11.6247 45.6632
5 105.522 35.6433 9.12177 99.6474
6 109.46 48.2328 17.9674 192.083

BondBond Coeffs

1 5.15375 2.26144 2.05203
2 10.4361 1.96742 2.07272
3 95.1087 2.09524 2.12546
4 21.473 2.06174 2.02696
5 11.4089 2.07712 2.13569
6 30.5069 2.17645 2.18138

BondAngle Coeffs

1 4.69868 26.746 2.26144 2.05203
2 43.8527 53.6314 1.96742 2.07272
3 50.5195 59.567 2.09524 2.12546
4 21.3283 20.088 2.06174 2.02696
5 17.8438 24.848 2.07712 2.13569
6 16.9159 23.001 2.17645 2.18138

Dihedral Coeffs # class2

1 0 0 0 0 0 0
2 0.638244 195.783 0.757404 103.391 0.458612 133.865

AngleAngleTorsion Coeffs

1 0 0 0
2 0 0 0

EndBondTorsion Coeffs

1 0 0 0 0 0 0 0 0
2 0 0 0 0 0 0 0 0

MiddleBondTorsion Coeffs

1 0 0 0 0
2 0 0 0 0

BondBond13 Coeffs

1 0 0 0
2 0 0 0

AngleTorsion Coeffs

1 0 0 0 0 0 0 0 0
2 0 0 0 0 0 0 0 0

Atoms # full

2133 2867 3 5.5465100000000001e-01 2.5650302859023597e+00 5.1299289296648398e+00 1.2998064062052435e+00 0 1 0
2135 2867 4 -5.3452554465310598e-01 2.0075333194354119e+00 3.2115055855230898e+00 1.7776705367940360e+00 0 1 0
3896 3062 4 -5.3452554465310598e-01 3.0656061584934089e+00 4.8107807076864999e+00 5.5911173241906553e+00 0 -1 0
3891 3062 5 -3.4214873208136398e-01 1.1216786505098555e+00 7.3865055877154067e+00 4.5032130445163370e+00 0 -1 0
2140 2867 4 -5.3452554465310598e-01 1.0844679074875145e+00 6.5608975867518211e+00 1.1790890363388087e+00 0 1 0
4945 3223 7 -5.9410399999999997e-01 3.8566726655932779e+00 8.2502304735417797e-01 4.1788156554745530e+00 1 1 0
3892 3062 3 5.5465100000000001e-01 1.3265106748532260e+00 5.8042719119986321e+00 6.0309165382228320e+00 0 -1 0
2134 2867 4 -5.3452554465310598e-01 4.3821489493251624e+00 5.8717488629648740e+00 1.8986416028676185e+00 0 1 0
986 2739 4 -5.3452554465310598e-01 3.3419528822164573e+00 3.7597832382114227e-01 2.1326838779139656e-01 1 0 0
794 2718 4 -5.3452554465310598e-01 4.9169609284404663e+00 1.8586938433720896e+00 7.3887269713862640e+00 1 1 0
6820 1370 8 6.0999999999999999e-01 1.9914215622827585e+00 2.7472634824182771e+00 4.9042934494876249e+00 -3 -1 1
2681 2927 4 -5.3452554465310598e-01 5.6447493335575283e+00 7.2105969604400908e+00 6.3759949774452833e+00 0 0 0
5533 83 8 6.0999999999999999e-01 4.8489930229904168e+00 5.8419468854974186e+00 4.3539474025179317e+00 0 3 0
3894 3062 4 -5.3452554465310598e-01 1.1278785991003304e+00 6.4727282539628517e+00 7.9119903561085128e+00 0 -1 0
7463 2013 8 6.0999999999999999e-01 -3.5993059018651508e-01 4.6966130821158876e+00 8.4092239932030965e-01 1 1 4
3166 2981 4 -5.3452554465310598e-01 9.4923975605527233e-02 1.1554048257672602e+00 5.0391220211538803e+00 1 0 0
5505 55 8 6.0999999999999999e-01 3.6017838691750441e+00 7.5821430470291826e+00 7.5328429181700329e+00 -1 -2 -2
7335 1885 8 6.0999999999999999e-01 5.3013343738295760e+00 2.2977146746122288e+00 5.1020988859737058e+00 4 -1 1
6800 1350 8 6.0999999999999999e-01 1.1824244624100704e+01 2.0098463802309641e+00 -2.4442537537700382e-01 0 1 -1
6002 552 8 6.0999999999999999e-01 2.7767399966242046e+00 3.6012549133642686e+00 7.7403038791957517e+00 1 1 2
619 2697 2 -6.0722533333333295e-01 1.6577987801655163e+00 1.5990447030114612e+00 8.3055391480221701e+00 1 0 0
2678 2927 4 -5.3452554465310598e-01 6.4148099001177057e+00 8.1750415025560610e+00 3.4625057338644050e+00 0 0 0
7529 2079 8 6.0999999999999999e-01 6.1929933038241947e+00 8.4695428908511428e+00 8.0004952469586721e-01 -2 0 1
987 2739 4 -5.3452554465310598e-01 6.5778128839612497e+00 -5.6922447121375652e-01 9.0519684571897874e-01 1 0 0
7657 2207 8 6.0999999999999999e-01 2.8327989779458425e+00 -2.4327456681118675e-01 2.2778799556073408e+00 -5 -2 -1
2677 2927 3 5.5465100000000001e-01 7.1493543080564228e+00 8.2212014467956624e+00 5.4354963653983752e+00 0 0 0
6022 572 8 6.0999999999999999e-01 6.1742668446178932e+00 5.3489308730839396e+00 -3.6699130617837822e-01 -1 1 1
3893 3062 4 -5.3452554465310598e-01 -5.9887833059390938e-02 4.5294376842044670e+00 5.5035134885706487e+00 0 -1 0
2060 2858 4 -5.3452554465310598e-01 1.0214705664660595e+01 4.0985808885747783e+00 4.8694008347620903e+00 2 0 0
3430 3011 4 -5.3452554465310598e-01 7.8801469441847143e+00 6.1571240363883630e+00 1.0251711005068289e+00 0 1 1
2054 2858 4 -5.3452554465310598e-01 9.8315156814016316e+00 -1.5125116538527772e-02 2.7235239649932708e-01 2 0 0
3433 3011 3 5.5465100000000001e-01 1.2013087799367288e+01 8.3489212737782541e+00 2.4114198783332457e+00 0 1 1
6945 1495 8 6.0999999999999999e-01 1.1748517697084051e+01 4.1639912130977814e+00 2.7289099154701888e+00 5 2 1
2053 2858 4 -5.3452554465310598e-01 1.1723325903786700e+01 1.4627843028292391e+00 2.8574445091695324e+00 2 0 0
6900 1450 8 6.0999999999999999e-01 8.4622040777989067e+00 1.7634336110104778e+00 -2.9454165644453889e-01 -1 1 -3
2673 2927 3 5.5465100000000001e-01 1.0257010331663659e+01 7.8636708760332645e+00 7.6075999127352656e+00 0 0 0
2055 2858 5 -3.4214873208136398e-01 8.5586193731140874e+00 2.2895862161466249e+00 2.4062366288559089e+00 2 0 0
7250 1800 8 6.0999999999999999e-01 1.0966303573903874e+01 6.4686971323011511e-01 5.0672211512342278e+00 1 4 3
2675 2927 4 -5.3452554465310598e-01 1.1619501827915595e+01 6.1835311514712341e+00 7.7125714123562759e+00 0 0 0
2676 2927 5 -3.4214873208136398e-01 8.8745464159775942e+00 7.0826349242218463e+00 5.8248094732011895e+00 0 0 0
2056 2858 3 5.5465100000000001e-01 8.4966841859449485e+00 3.2118678120780877e+00 4.5024022512993209e+00 2 0 0
2052 2858 3 5.5465100000000001e-01 9.9143364851387084e+00 7.9101459175301381e-01 2.2074122610585927e+00 2 0 0
3431 3011 4 -5.3452554465310598e-01 1.0404591230478243e+01 4.2214708284168312e+00 8.2832991178865556e-02 0 1 1
2057 2858 4 -5.3452554465310598e-01 8.2837716358219460e+00 1.5966733730258014e+00 5.5970206268397797e+00 2 0 0
3432 3011 5 -3.4214873208136398e-01 1.1209756102651465e+01 6.4341779910732120e+00 2.1952893275518637e+00 0 1 1
2058 2858 4 -5.3452554465310598e-01 6.7843681038059689e+00 4.3191472770063228e+00 4.3716887560641764e+00 2 0 0
7555 2105 8 6.0999999999999999e-01 1.0450640420136699e+01 4.2493275861579534e+00 7.2589972060619044e+00 0 0 1
6644 1194 8 6.0999999999999999e-01 8.2830778910095049e+00 6.0018860560209806e+00 3.4606309530732631e+00 2 0 0
7034 1584 8 6.0999999999999999e-01 1.5147623900146185e+00 2.1552383654530600e+00 -4.3855169607945510e-01 -2 2 -3
3429 3011 3 5.5465100000000001e-01 9.8450036415115854e+00 6.1208588993660475e+00 3.9259214191221004e-01 0 1 1
3437 3011 4 -5.3452554465310598e-01 1.3008509539581889e+01 8.4041664814555457e+00 4.2917798266507621e+00 0 1 1
6235 785 8 6.0999999999999999e-01 3.3927894581477016e+00 3.2770362536449205e-01 8.2008774987590201e+00 0 3 1
3161 2981 4 -5.3452554465310598e-01 4.4494048350919901e-01 -6.8553321268647560e-01 2.3092260017074309e+00 1 0 0
5537 87 8 6.0999999999999999e-01 8.2983136893407021e+00 1.5838254374939575e-02 7.2386986525178258e+00 2 0 -1
725 2710 2 -6.0722533333333295e-01 1.2961960945605998e+01 1.9878073399640561e+00 6.4055952801030243e+00 0 0 1
7257 1807 8 6.0999999999999999e-01 5.1241830642062380e-01 -3.7466270396519546e-01 6.8838494364264671e+00 2 2 2
985 2739 3 5.5465100000000001e-01 5.3218953395791608e+00 3.7268604524602655e-01 -3.5275342576845720e-01 1 0 0
799 2718 4 -5.3452554465310598e-01 7.8638274005844959e+00 3.8656748994817782e+00 8.0624804927744389e+00 1 1 0
984 2739 5 -3.4214873208136398e-01 6.1420902244088813e+00 2.4780649742444814e+00 -6.1834080215248211e-01 1 0 0
5640 190 8 6.0999999999999999e-01 -6.3456236572969749e-01 8.0457952617918451e+00 7.7077117826911135e+00 1 2 1
6076 626 8 6.0999999999999999e-01 1.2795154764701195e+01 7.9575679616415123e+00 6.5629689192032892e+00 2 2 2
8059 2609 8 6.0999999999999999e-01 6.7655211648991749e+00 6.2454793939114674e+00 8.3780094169582728e+00 0 -2 0
721 2710 1 6.0167599999999999e-01 1.3347653004814701e+01 1.2484630173473512e+00 8.5287806488792164e+00 0 0 1
792 2718 3 5.5465100000000001e-01 5.9419504022322638e+00 3.1564184815959373e+00 8.6187753134320761e+00 1 1 0
3568 3026 3 5.5465100000000001e-01 4.4253374589221668e+00 3.6208131824270575e+00 1.5352804176584730e+01 0 1 1
3570 3026 4 -5.3452554465310598e-01 3.9594142207064564e+00 2.9778224725871536e+00 1.3457221195833805e+01 0 1 1
1002 2741 5 -3.4214873208136398e-01 2.9905418218154249e+00 7.3507572606680469e+00 1.1924712875695947e+01 1 1 0
1000 2741 4 -5.3452554465310598e-01 1.4788111588476118e+00 5.5312160687828538e+00 1.3953719024850555e+01 1 1 0
623 2697 2 -6.0722533333333295e-01 1.0244381116883412e+00 3.8374847417821085e+00 1.0625988648558206e+01 1 0 0
618 2697 1 6.0167599999999999e-01 1.9686379783141073e-01 2.3033804299522713e+00 9.4758073083105003e+00 1 0 0
621 2697 2 -6.0722533333333295e-01 5.0565468977918004e-01 1.1167419824336500e+00 1.2685667522193960e+01 1 0 0
3567 3026 5 -3.4214873208136398e-01 4.5744771118611665e+00 5.7728712105915703e+00 1.5478063134309760e+01 0 1 1
6151 701 8 6.0999999999999999e-01 3.7005128944734178e+00 5.1010136970329247e+00 1.2154338966958846e+01 -3 -2 1
3572 3026 4 -5.3452554465310598e-01 2.7974049463253237e+00 3.3129069097909740e+00 1.6619604184141732e+01 0 1 1
999 2741 3 5.5465100000000001e-01 1.1455472798382822e+00 7.4075773547038271e+00 1.3235522880751024e+01 1 1 0
5559 109 8 6.0999999999999999e-01 9.3157910627163165e-02 3.7731952513533891e+00 1.3192227020139219e+01 0 -1 2
793 2718 4 -5.3452554465310598e-01 4.9231006450908597e+00 4.7779900924045835e+00 8.9785793719240434e+00 1 1 0
5693 243 8 6.0999999999999999e-01 1.2065079124799740e+00 5.1173584365311182e+00 1.6469818408440108e+01 1 0 2
6417 967 8 6.0999999999999999e-01 2.2568820142396215e+00 1.5434255823760017e+00 1.5033233157836841e+01 2 -2 2
796 2718 3 5.5465100000000001e-01 6.3937358683547245e+00 4.5437730508410934e-02 1.0668047669454543e+01 1 1 0
7939 2489 8 6.0999999999999999e-01 1.1565840368792308e+01 4.7888056935914296e+00 1.7112180857963953e+01 -3 1 2
2123 2865 4 -5.3452554465310598e-01 3.3564409567586599e+00 8.3396531782252037e-02 1.7913942511345684e+01 1 0 0
3569 3026 4 -5.3452554465310598e-01 6.1666159183563662e+00 2.5123334729152274e+00 1.5917270735126817e+01 0 1 1
3564 3026 3 5.5465100000000001e-01 6.1787369527758491e+00 6.6777432836655555e+00 1.4245751439534068e+01 0 1 1
7530 2080 8 6.0999999999999999e-01 6.1218255736912219e+00 3.1926629273662597e+00 1.2684543468378072e+01 -2 1 1
795 2718 5 -3.4214873208136398e-01 6.5833866205948546e+00 2.2472781048144665e+00 1.0464654917460948e+01 1 1 0
3571 3026 4 -5.3452554465310598e-01 6.2367379582498144e+00 5.5873745858658843e+00 1.2460689650262196e+01 0 1 1
260 2652 2 -6.0722533333333295e-01 -2.9356830920099791e-01 1.3926255944495458e+00 1.6117217803168213e+01 0 1 1
7058 1608 8 6.0999999999999999e-01 5.1496406832234545e+00 7.3291211969361605e+00 1.7134897715652919e+01 4 1 1
617 2697 1 6.0167599999999999e-01 -4.7501855020351214e-01 6.1926115927816006e-01 1.0898855945474907e+01 1 0 0
1004 2741 4 -5.3452554465310598e-01 4.9736071268704443e+00 8.4489647407755442e+00 9.6725033673046692e+00 1 1 0
7902 2452 8 6.0999999999999999e-01 1.2463227734380764e+01 5.8319353596264509e+00 1.0231719077161122e+01 0 -1 -3
5892 442 8 6.0999999999999999e-01 1.1318825778122832e+00 8.6227259527868743e+00 1.6960792103301113e+01 1 4 1
2680 2927 4 -5.3452554465310598e-01 8.8113646506651104e+00 8.0587146308189919e+00 8.9798986536013423e+00 0 0 0
3566 3026 4 -5.3452554465310598e-01 5.9102176790644494e+00 8.6456968077543763e+00 1.4008689430795862e+01 0 1 1
7557 2107 8 6.0999999999999999e-01 9.4159249964395002e+00 5.3629820647005810e-01 1.3187133438075804e+01 -1 0 -3
4845 3203 7 -5.9410399999999997e-01 9.6579175818050000e+00 5.9477836683673084e+00 1.8017091196474556e+01 0 -1 1
800 2718 4 -5.3452554465310598e-01 7.1402737509974719e+00 -2.9910006937382599e-01 1.2569190822364352e+01 1 1 0
722 2710 1 6.0167599999999999e-01 1.1431746448401043e+01 6.8534558616097918e-02 9.0101730515409830e+00 0 0 1
7798 2348 8 6.0999999999999999e-01 1.2264526598189155e+01 1.5587670629105146e+00 1.5538641494035847e+01 -1 -1 -2
7030 1580 8 6.0999999999999999e-01 8.2225491134245416e+00 3.9071963488237298e+00 1.6228252714067285e+01 0 1 1
798 2718 4 -5.3452554465310598e-01 4.3529179048655804e+00 -4.1523232468332338e-02 1.0708791031978947e+01 1 1 0
296 2656 2 -6.0722533333333295e-01 9.0387718384556468e+00 -2.6902041202387822e-01 1.5834742813500643e+01 1 1 0
6653 1203 8 6.0999999999999999e-01 8.9147431468057476e+00 3.2972727201378156e+00 1.0141895299998028e+01 1 -2 0
6056 606 8 6.0999999999999999e-01 6.8595576302105350e+00 3.3406161765933251e-01 1.6396082338209997e+01 -4 0 -3
3565 3026 4 -5.3452554465310598e-01 7.8332745172843872e+00 6.1554828891828715e+00 1.5201993229268915e+01 0 1 1
3129 2977 4 -5.3452554465310598e-01 1.0344581815913028e+01 2.2993399941895389e+00 1.7403486397280624e+01 0 0 -1
2043 2857 3 5.5465100000000001e-01 1.0600530347602886e+01 3.5555318812188110e+00 1.3018992186890429e+01 1 1 2
2045 2857 4 -5.3452554465310598e-01 1.1825536563463990e+01 1.8372840693613761e+00 1.3133129681007016e+01 1 1 2
2050 2857 4 -5.3452554465310598e-01 1.0552964818987681e+01 4.6990368511048048e+00 1.1311627407174115e+01 1 1 2
7282 1832 8 6.0999999999999999e-01 8.7333466838416154e+00 6.0846305577294766e+00 1.2500342793653134e+01 1 1 0
7349 1899 8 6.0999999999999999e-01 -7.3514557801864555e-01 5.4816206219669423e+00 9.3324185297800444e+00 3 -1 4
2044 2857 4 -5.3452554465310598e-01 8.8318325676183083e+00 2.7340605604426962e+00 1.3471191058857839e+01 1 1 2
2046 2857 5 -3.4214873208136398e-01 1.1368463324693883e+01 4.7002714798304019e+00 1.4642634128857598e+01 1 1 2
727 2710 2 -6.0722533333333295e-01 1.0045023972749711e+01 1.2179762585193405e+00 9.6632198466961299e+00 0 0 1
5188 3272 7 -5.9410399999999997e-01 9.0767185357771503e+00 8.5648077397647615e+00 1.2688316933993267e+01 -1 1 0
1001 2741 4 -5.3452554465310598e-01 -4.9146033717838461e-01 7.8557244282438994e+00 1.2018674997573790e+01 1 1 0
5326 3300 6 5.4641600000000001e-01 2.3651843892177764e+00 7.5574000919951754e+00 1.9810425205040307e+01 -1 0 -1
4935 3221 7 -5.9410399999999997e-01 2.8758963269628950e+00 2.5553364902073676e+00 2.3554394882687117e+01 0 0 0
4931 3221 6 5.4641600000000001e-01 4.0433565369200712e+00 1.9939234133500050e+00 2.2048530699545573e+01 0 0 0
5328 3300 7 -5.9410399999999997e-01 2.1446432324604370e+00 6.5556198578718519e+00 2.1659960096894459e+01 -1 0 -1
4934 3221 7 -5.9410399999999997e-01 3.4506613439319000e+00 2.9993716974467670e+00 2.0350510138583505e+01 0 0 0
6510 1060 8 6.0999999999999999e-01 9.0816815337461643e-01 3.6873252816351103e+00 2.4373947017539990e+01 3 -2 1
4232 3100 4 -5.3452554465310598e-01 5.2541389089088497e+00 6.2355021882623847e+00 2.3494039911658870e+01 1 0 0
4230 3100 3 5.5465100000000001e-01 5.3308414294434643e+00 6.5865190368738142e+00 2.5547558722863219e+01 1 0 0
6399 949 8 6.0999999999999999e-01 3.6411379017609926e+00 4.9055260266773892e+00 2.2139441261851413e+01 -1 1 1
4231 3100 4 -5.3452554465310598e-01 3.7675688186012390e+00 7.7306755355062045e+00 2.6245770687303903e+01 1 0 0
6620 1170 8 6.0999999999999999e-01 1.5438961779348301e+00 7.7142527994915007e+00 2.4988449970788785e+01 0 1 0
4933 3221 7 -5.9410399999999997e-01 3.9917973878347555e+00 -1.7380410088373999e-01 2.1986680923628079e+01 0 0 0
5943 493 8 6.0999999999999999e-01 5.1009026787981835e+00 4.9452320120446625e-01 2.3943976808018441e+01 2 1 1
1716 2820 4 -5.3452554465310598e-01 -6.8684425888237310e-02 9.1660460039057856e-01 1.9883916243616959e+01 -1 0 0
4233 3100 5 -3.4214873208136398e-01 4.7371912954021882e+00 4.5597416453597299e+00 2.6476538718995982e+01 1 0 0
4932 3221 7 -5.9410399999999997e-01 6.0018254231152408e+00 2.3846539031165288e+00 2.2600690506238543e+01 0 0 0
5538 88 8 6.0999999999999999e-01 4.3084526051489087e+00 8.5603637025204851e+00 2.1891110269411783e+01 -1 0 6
5796 346 8 6.0999999999999999e-01 9.8855894459638769e+00 8.4779648077378678e+00 1.8553343393447715e+01 1 -1 0
4092 3084 4 -5.3452554465310598e-01 1.2649181604862367e+01 7.8840009573712972e+00 1.9092819542095647e+01 -1 0 0
1256 2769 4 -5.3452554465310598e-01 -1.8393158249295349e-01 6.0073830688550496e+00 2.4600083342478055e+01 1 1 0
7466 2016 8 6.0999999999999999e-01 9.6626446042107048e+00 7.8162215676909117e+00 2.6586762144277092e+01 -3 -1 -1
2653 2924 4 -5.3452554465310598e-01 2.1310623194932328e+00 -1.1869604434583958e-01 2.7488783412814016e+01 0 2 0
6829 1379 8 6.0999999999999999e-01 4.6215462989046197e+00 3.1453512775284764e+00 1.8448200997314235e+01 -2 3 5
5427 3320 7 -5.9410399999999997e-01 -2.9977668303357941e-01 3.1069834320764840e+00 2.6748648494702774e+01 -1 0 -1
7131 1681 8 6.0999999999999999e-01 -4.2873765775701234e-02 2.9221860478537414e+00 2.1170598413268632e+01 0 0 0
5327 3300 7 -5.9410399999999997e-01 1.7312909579495774e+00 6.5344716073791149e+00 1.8183158930092009e+01 -1 0 -1
5330 3300 7 -5.9410399999999997e-01 4.3485829163035028e+00 8.3607783767734691e+00 1.9495776309960629e+01 -1 0 -1
7602 2152 8 6.0999999999999999e-01 1.7111277529177324e+00 -1.5555799606112375e-01 2.1551273285000093e+01 -2 -3 3
600 2694 2 -6.0722533333333295e-01 1.0239094891239908e+01 -3.5874684515931404e-01 2.6989637781621628e+01 0 2 0
6303 853 8 6.0999999999999999e-01 6.9352235883248605e+00 4.8393028955397783e+00 2.1308057985481828e+01 2 0 -2
3131 2977 4 -5.3452554465310598e-01 9.5790385416764234e+00 3.2806085534079887e+00 2.0578995800120516e+01 0 0 -1
5477 27 8 6.0999999999999999e-01 8.5609848774020083e+00 2.2485571569081175e+00 2.2630378460113434e+01 1 -1 1
7928 2478 8 6.0999999999999999e-01 6.6959036343460916e+00 4.1161373984794380e+00 2.5438107451469094e+01 2 1 0
1992 2851 5 -3.4214873208136398e-01 1.1126195387688377e+01 5.9578826860367569e+00 2.5634269880227663e+01 0 -1 1
5925 475 8 6.0999999999999999e-01 9.3103353469618053e+00 6.5933733853415966e+00 2.3228360011153928e+01 3 0 2
4237 3100 4 -5.3452554465310598e-01 7.3041765164130208e+00 6.6978162983916327e+00 2.6185048718953610e+01 1 0 0
1996 2851 4 -5.3452554465310598e-01 1.0545354652484182e+01 3.0169678966147488e+00 2.6769404044945205e+01 0 -1 1
4843 3203 7 -5.9410399999999997e-01 6.2698227800385293e+00 4.9265365125223513e+00 1.8867462921494784e+01 0 -1 1
4842 3203 7 -5.9410399999999997e-01 7.5509446812104422e+00 8.2558556367305833e+00 1.8170846094744924e+01 0 -1 1
3128 2977 4 -5.3452554465310598e-01 7.5144460824212036e+00 9.1700915123551185e-01 1.8870633646588839e+01 0 0 -1
598 2694 2 -6.0722533333333295e-01 7.2899887929883516e+00 5.9946593153886707e-01 2.5883687814064611e+01 0 2 0
4088 3084 4 -5.3452554465310598e-01 1.3292286400162121e+01 4.5093760954272124e+00 1.8875532963228178e+01 -1 0 0
1990 2851 4 -5.3452554465310598e-01 1.1832487470867564e+01 3.2364437723290931e+00 2.3519305145280928e+01 0 -1 1
7116 1666 8 6.0999999999999999e-01 1.0900695012814088e+01 9.3995231862116646e-01 2.5054303915603871e+01 -1 -1 1
3126 2977 5 -3.4214873208136398e-01 1.0560340463999816e+01 2.4159243291934085e-02 1.9756761285335440e+01 0 0 -1
3127 2977 3 5.5465100000000001e-01 9.4108923997475138e+00 1.8441084489949353e+00 1.9146631547766805e+01 0 0 -1
1989 2851 3 5.5465100000000001e-01 1.0399461878430872e+01 3.9174020399264773e+00 2.4922720866333798e+01 0 -1 1
1997 2851 4 -5.3452554465310598e-01 1.1670758420791886e+01 6.8603717349453763e+00 2.2497380422546396e+01 0 -1 1
6613 1163 8 6.0999999999999999e-01 1.3148966695484132e+01 1.9822811660551096e+00 1.9788838123227126e+01 -2 2 -1
5451 1 8 6.0999999999999999e-01 -4.3932669582850969e-01 7.5279670804644265e+00 2.0644579662187869e+01 5 0 -3
7330 1880 8 6.0999999999999999e-01 1.1072704433333383e+01 5.1989106817596618e+00 2.0556115539143509e+01 3 0 0
4841 3203 6 5.4641600000000001e-01 7.7148232536999313e+00 6.3340442746453514e+00 1.9048732129854770e+01 0 -1 1
1991 2851 4 -5.3452554465310598e-01 8.5839352323101679e+00 4.3026827147482765e+00 2.4074163279523081e+01 0 -1 1
1993 2851 3 5.5465100000000001e-01 1.2453883163208673e+01 6.9228012662238720e+00 2.4374276670827946e+01 0 -1 1
4844 3203 7 -5.9410399999999997e-01 8.4140952938061080e+00 6.6102746662728231e+00 2.1045187480229153e+01 0 -1 1
3130 2977 4 -5.3452554465310598e-01 9.8339320940384987e+00 1.6893985791615806e-01 2.3103687902185964e+01 0 0 -1
1711 2820 4 -5.3452554465310598e-01 -2.5370616945681868e-01 1.4591973492887256e+00 2.3304645072867480e+01 -1 0 0
7694 2244 8 6.0999999999999999e-01 1.2799626682457266e+00 1.9364069502505528e+00 1.8153759850464962e+01 2 1 2
4723 3179 7 -5.9410399999999997e-01 1.0548038620182547e+00 4.4445467040763260e+00 3.0087024278743996e+01 1 0 -1
1417 2787 3 5.5465100000000001e-01 4.9900327517508503e+00 2.3259083527769957e+00 3.4466587410265404e+01 0 0 0
4724 3179 7 -5.9410399999999997e-01 1.7303875813592797e+00 6.0716043020271329e+00 3.2959463167193057e+01 1 0 -1
4235 3100 4 -5.3452554465310598e-01 5.1728961371009605e+00 6.3490154389862061e+00 2.9400171876291584e+01 1 0 0
4234 3100 3 5.5465100000000001e-01 5.2071231603570896e+00 4.5117384213650702e+00 2.8625619168147544e+01 1 0 0
7616 2166 8 6.0999999999999999e-01 3.3424943349421223e+00 5.0250906476080859e+00 3.1214477077163640e+01 1 2 -2
1419 2787 4 -5.3452554465310598e-01 4.1748445036377584e+00 3.6974930792276952e+00 3.3289263055044941e+01 0 0 0
1418 2787 4 -5.3452554465310598e-01 5.0375409245731460e+00 4.4135186432237705e-01 3.3506356540837707e+01 0 0 0
4721 3179 6 5.4641600000000001e-01 2.3498989483828303e-01 5.4553254450927247e+00 3.1600254870128701e+01 1 0 -1
3261 2992 5 -3.4214873208136398e-01 5.8252043454492810e+00 6.2840116015023364e+00 3.4973371094113162e+01 0 1 0
5055 3245 7 -5.9410399999999997e-01 9.7366605729339062e-01 2.6564768070764440e+00 3.5538762087205569e+01 0 1 0
2648 2924 4 -5.3452554465310598e-01 1.4960192511604959e+00 3.7733265391987580e-01 3.0860967391050988e+01 0 2 0
4238 3100 4 -5.3452554465310598e-01 4.2474652357673026e+00 3.0468753472061927e+00 2.9656685588874783e+01 1 0 0
2710 2931 4 -5.3452554465310598e-01 1.2249954190730891e+01 4.8713350693430897e+00 3.5603332688864647e+01 1 0 0
5614 164 8 6.0999999999999999e-01 2.0439866260092909e+00 7.7431624683800848e+00 3.4789313961820362e+01 0 0 0
6531 1081 8 6.0999999999999999e-01 5.6246129868208978e+00 1.0639554667889535e+00 3.1105321314354182e+01 -1 -2 1
6901 1451 8 6.0999999999999999e-01 1.9194275235975340e+00 4.6139832904835982e+00 3.4653120317856562e+01 1 5 2
7103 1653 8 6.0999999999999999e-01 2.5227481066831214e+00 -2.6205386051981405e-01 3.5497579900407196e+01 1 0 -5
1421 2787 4 -5.3452554465310598e-01 3.9372054564749197e+00 2.3427621695061078e+00 3.6312227223774883e+01 0 0 0
6714 1264 8 6.0999999999999999e-01 1.0264666194716769e+00 2.4681637296595622e+00 2.8634756651832795e+01 3 -3 -2
3263 2992 4 -5.3452554465310598e-01 7.4694314396181500e+00 5.9819802639167721e+00 3.2099596771899805e+01 0 1 0
5591 141 8 6.0999999999999999e-01 1.2329085400088395e+01 9.6173331553074060e-01 2.8630552304286901e+01 1 0 0
732 2711 5 -3.4214873208136398e-01 9.9591322303371257e+00 4.5087591612455991e-01 3.3166538349001584e+01 0 1 0
2156 2869 4 -5.3452554465310598e-01 1.3253525110257016e+01 5.2763862633067999e+00 3.0961608057597260e+01 0 1 0
1416 2787 5 -3.4214873208136398e-01 7.2691898525378829e+00 2.9173783400843654e+00 3.4859880592060691e+01 0 0 0
6128 678 8 6.0999999999999999e-01 1.2456034099961997e+01 3.3513001167488081e+00 3.3020162196745858e+01 3 -1 -1
729 2711 3 5.5465100000000001e-01 1.1947493868328262e+01 -4.1883547698270968e-01 3.3167836502966182e+01 0 1 0
5052 3245 7 -5.9410399999999997e-01 8.1109120701639270e-01 6.0462814955559230e+00 3.6313106865284794e+01 0 1 0
5788 338 8 6.0999999999999999e-01 1.1795496491360984e+01 1.3049944588234252e+00 3.6018154359835265e+01 1 -2 -1
5941 491 8 6.0999999999999999e-01 7.7705931158303425e+00 -3.0311174098005528e-01 3.3232048703614787e+01 0 -1 -1
6564 1114 8 6.0999999999999999e-01 6.4781791823568691e+00 3.7686982897885706e+00 3.2689110697294922e+01 0 -4 1
3258 2992 3 5.5465100000000001e-01 5.1882429549251272e+00 7.4231226250346829e+00 3.6710529741548889e+01 0 1 0
3630 3033 5 -3.4214873208136398e-01 1.0011749340718866e+01 8.4189261950727357e+00 3.1834468771477503e+01 -1 0 1
1420 2787 4 -5.3452554465310598e-01 9.8653747196923796e+00 2.4358521023323871e+00 3.6864915802166614e+01 0 0 0
7102 1652 8 6.0999999999999999e-01 8.7799615499313912e+00 1.6955217005699366e+00 2.8837653343363002e+01 2 -2 1
4725 3179 7 -5.9410399999999997e-01 -6.9154186910391546e-01 7.1222205331084147e+00 3.0892758102691211e+01 1 0 -1
736 2711 4 -5.3452554465310598e-01 1.3200502112089371e+01 1.0563814809537957e+00 3.3833761806317256e+01 0 1 0
7508 2058 8 6.0999999999999999e-01 9.6684770025721125e+00 4.2906005035642263e+00 3.5034476820100700e+01 4 -3 0
735 2711 4 -5.3452554465310598e-01 1.0202598888438827e+01 3.8121093407542830e+00 3.2753456309997830e+01 0 1 0
3262 2992 3 5.5465100000000001e-01 7.4310240608496763e+00 7.1148003886464108e+00 3.3869073219703274e+01 0 1 0
1414 2787 4 -5.3452554465310598e-01 7.5562303794339059e+00 1.3836449980934029e-02 3.6450560771981372e+01 0 0 0
734 2711 4 -5.3452554465310598e-01 1.0635185991533705e+01 2.0328848530115335e+00 2.9967907929543546e+01 0 1 0
5545 95 8 6.0999999999999999e-01 7.2837965667042361e+00 6.7384139087877042e+00 2.8737678458782472e+01 -1 -1 -1
6861 1411 8 6.0999999999999999e-01 9.7642425251587976e+00 6.1031417508264258e+00 3.1692111365457770e+01 5 -1 -4
6170 720 8 6.0999999999999999e-01 1.1384077236724716e+01 4.6423986073578192e+00 2.8296971631887349e+01 2 -1 -2
4236 3100 4 -5.3452554465310598e-01 7.1409139977874538e+00 3.7495042318920051e+00 2.8394957189012310e+01 1 0 0
737 2711 4 -5.3452554465310598e-01 7.6646000234989948e+00 2.0817387505083063e+00 3.1415363963928542e+01 0 1 0
3632 3033 4 -5.3452554465310598e-01 9.7756600261705806e+00 6.7181086072738516e+00 2.8937644565463877e+01 -1 0 1
3264 2992 4 -5.3452554465310598e-01 8.9853960179304995e+00 6.7543210672218930e+00 3.5032026024989712e+01 0 1 0
733 2711 3 5.5465100000000001e-01 9.5462776465705410e+00 2.1184624761161190e+00 3.1835602964939334e+01 0 1 0
5051 3245 6 5.4641600000000001e-01 1.9246322751005951e-01 4.0606215153299576e+00 3.6842853029094883e+01 0 1 0
7416 1966 8 6.0999999999999999e-01 6.8349899925624102e-01 2.6555953889789570e+00 3.1625153198215870e+01 4 -1 4
1413 2787 3 5.5465100000000001e-01 7.8376362549626961e+00 2.0090730539629087e+00 3.6730801914715464e+01 0 0 0
5795 345 8 6.0999999999999999e-01 3.8289677495746934e+00 8.1957660091432789e+00 2.8527646367708606e+01 0 2 4
3631 3033 3 5.5465100000000001e-01 9.8988451636990451e+00 8.6438906627098575e+00 2.9760591600337627e+01 -1 0 1
597 2694 2 -6.0722533333333295e-01 7.3358466784471617e+00 -6.6298721580988607e-01 2.8894004019794597e+01 0 2 0
730 2711 4 -5.3452554465310598e-01 1.2104594587187842e+01 -6.9837544547884534e-01 3.1182033575852323e+01 0 1 0
2646 2924 3 5.5465100000000001e-01 2.5025271657803425e+00 -6.9814414186031115e-01 2.9490718885078593e+01 0 2 0
3350 3002 4 -5.3452554465310598e-01 2.6418333973715145e+00 6.5967770861082906e+00 4.0780932077063987e+01 1 0 0
3348 3002 3 5.5465100000000001e-01 1.1814706148865490e+00 7.1240899822806041e+00 4.2198815077146023e+01 1 0 0
4801 3195 6 5.4641600000000001e-01 3.5317172400034931e+00 2.9325366837502935e+00 4.2392444723371788e+01 1 1 0
4803 3195 7 -5.9410399999999997e-01 1.4879776526189876e+00 3.4150289579181319e+00 4.2561710480912289e+01 1 1 0
4805 3195 7 -5.9410399999999997e-01 3.8757825688316316e+00 9.3942885833883749e-01 4.2909731011806826e+01 1 1 0
4802 3195 7 -5.9410399999999997e-01 4.1459550475718974e+00 2.9474741490725491e+00 4.0333125656424215e+01 1 1 0
7924 2474 8 6.0999999999999999e-01 3.5937301968284556e+00 5.2461701247793524e-01 4.0539654095836561e+01 1 0 -4
5054 3245 7 -5.9410399999999997e-01 5.2286521226157245e-01 3.3509256669393288e+00 3.8824680941356910e+01 0 1 0
4804 3195 7 -5.9410399999999997e-01 4.5759260038648177e+00 4.4143865593624909e+00 4.3476732252507823e+01 1 1 0
7727 2277 8 6.0999999999999999e-01 4.0013052529265787e+00 6.4772953436544585e+00 4.2489561863313256e+01 4 2 4
3349 3002 4 -5.3452554465310598e-01 1.8065120853097221e+00 7.1461444258713946e+00 4.4197268291844047e+01 1 0 0
1535 2800 4 -5.3452554465310598e-01 -7.6458456505943184e-02 1.6393375663081557e+00 4.6154192507536258e+01 1 1 -1
5701 251 8 6.0999999999999999e-01 3.9545228934804335e+00 2.3653595575841861e+00 4.5063652530046504e+01 0 2 2
6704 1254 8 6.0999999999999999e-01 2.9855884325640356e+00 3.3098467382911556e+00 3.8228693265959308e+01 2 3 0
8024 2574 8 6.0999999999999999e-01 1.2735929356938485e+01 5.8112634560222265e+00 3.9194556544926819e+01 -6 2 -2
6834 1384 8 6.0999999999999999e-01 2.1778649795619955e+00 7.2334896582901456e+00 3.8434822680347082e+01 1 -4 -5
539 2687 2 -6.0722533333333295e-01 9.9590629279519423e+00 -2.6711109698985064e-01 4.3325352061347317e+01 0 0 -1
7911 2461 8 6.0999999999999999e-01 6.8316731284062748e-01 4.6635850267161985e+00 4.0693026227849103e+01 2 0 -2
7999 2549 8 6.0999999999999999e-01 2.8269631241297799e-01 4.9213396068511113e+00 4.5162338721190793e+01 0 1 -1
7306 1856 8 6.0999999999999999e-01 6.5235908745780096e+00 1.4734739710938132e+00 4.0575873873230634e+01 1 0 2
3354 3002 4 -5.3452554465310598e-01 -3.2276352387672169e-01 8.4365639699691037e+00 3.8898104923699989e+01 1 0 0
5304 3295 7 -5.9410399999999997e-01 1.0505981916487275e+00 -2.0306312726360964e-02 4.0430386532893799e+01 1 0 1
6338 888 8 6.0999999999999999e-01 7.0696339250567792e+00 7.9157064824876162e+00 4.6110159294101379e+01 -1 1 2