# LAMMPS data file written by OVITO Basic 3.8.4

8 atoms
2 atom types

0.0 4.3707 xlo xhi
0.0 4.3707 ylo yhi
0.0 4.3707 zlo zhi

Masses

1 183.8500  # W
2 12.0107  # C

Atoms  # atomic

1 1 0.0 0.0 0.0
2 1 0.0 2.18535 2.18535
3 1 2.18535 0.0 2.18535
4 1 2.18535 2.18535 0.0
5 2 2.18535 0.0 0.0
6 2 2.18535 2.18535 2.18535
7 2 0.0 0.0 2.18535
8 2 0.0 2.18535 0.0
