ITEM: TIMESTEP
0
ITEM: NUMBER OF ATOMS
3600
ITEM: BOX BOUNDS xy xz yz pp pp pp
-4.8045124226188562e-01 7.2448451242262166e+01 0.0000000000000000e+00
-1.5280815579186502e-01 2.1743208155792324e+01 0.0000000000000000e+00
-3.6980599753644938e-01 2.6129805997535939e+01 0.0000000000000000e+00
ITEM: ATOMS id type x y z c_peratom fx fy fz 
1695 1 9.41406 9.64785 10.8012 -8.38135 -1.06086 0.0200834 -0.826448 
726 1 0.389029 0.720377 7.35929 -8.23811 -0.508513 1.46277 0.563397 
1686 1 0.355226 8.02853 12.6963 -7.76648 -0.592801 -0.106899 2.08225 
126 1 0.259718 4.63566 2.45221 -8.69563 2.67389 -2.07514 -2.25169 
846 1 0.262011 4.21784 7.49724 -8.34046 1.0453 1.8017 -0.0201056 
256 1 9.00256 9.69248 2.64282 -8.25069 2.07534 0.822477 -0.874993 
246 1 0.163939 7.88403 2.39719 -7.74204 -0.372715 -1.46769 -2.86094 
1458 1 7.75752 0.805383 12.7295 -7.80107 0.76416 0.651154 -2.51351 
250 1 6.00462 10.1189 2.8075 -7.55827 -0.850243 -1.92543 -1.77661 
12 1 4.17195 0.869593 2.32583 -6.15184 0.8704 0.617395 -1.99125 
732 1 4.01253 0.429055 7.67054 -8.11051 1.24672 -0.0890063 -1.55577 
20 2 11.4794 2.57501 0.911742 -28.6483 -1.47054 0.510583 0.636894 
132 1 3.57616 4.46437 2.10466 -7.49745 1.87551 -2.85963 -2.06325 
852 1 3.90236 4.25277 7.14264 -7.13765 2.59112 1.8538 1.6496 
864 1 11.5485 4.39631 7.22044 -6.83341 -1.93625 -2.39517 -0.762226 
252 1 4.01561 8.3726 2.29662 -7.53635 -0.100379 1.87877 -1.43772 
972 1 3.89548 8.03411 7.68322 -8.36239 0.706144 -1.15346 0.864444 
850 1 5.8477 6.22136 7.847 -9.00062 -2.07023 -1.23086 1.06867 
18 1 7.68022 0.839249 1.9525 -7.02216 -2.0429 -0.548256 0.534283 
738 1 7.63674 0.738222 7.15738 -7.14106 0.336389 -0.4164 -0.307191 
983 1 11.379 8.1241 9.97816 -8.49347 -0.513099 -1.06092 0.64746 
138 1 7.51491 4.9844 2.28024 -7.98885 1.12065 -2.11125 0.825779 
858 1 7.86645 4.83657 7.51496 -8.10391 0.503319 -1.6764 0.508091 
860 2 11.2287 6.35316 6.52242 -29.3984 1.44636 -1.2935 -0.513146 
258 1 7.30377 7.90014 1.81669 -8.30275 -0.0618155 1.25903 -1.0424 
978 1 7.76958 8.02794 7.21436 -7.79802 -0.0634476 0.55245 0.858894 
1572 1 4.27588 4.61349 12.7221 -7.36124 -1.13396 -3.09669 1.0681 
1704 1 11.1351 8.19954 12.7442 -6.31698 2.06273 -1.04608 -3.25925 
1460 2 11.4083 2.8805 11.4887 -28.8458 0.772945 -0.392554 1.28603 
980 2 11.0193 9.94754 6.2404 -28.3086 1.35315 -0.198601 -0.249571 
1580 2 11.5836 6.41626 11.456 -28.8584 -0.500072 0.318909 2.16099 
970 1 5.80202 9.82095 7.68339 -8.74697 -0.0433535 0.433226 -1.2667 
743 1 11.4195 0.827391 9.89162 -7.70852 -0.669153 -0.722669 -1.58931 
255 1 9.53999 9.79123 -0.163469 -8.06705 -0.42821 0.214464 3.48678 
856 1 10.067 6.20103 8.26475 -7.98969 -1.79169 1.95914 0.584882 
976 1 9.53952 9.80107 8.00761 -8.46615 -0.508991 0.548596 0.270069 
5 1 0.468422 0.626468 4.69608 -7.9192 -1.70569 0.457209 0.457116 
1698 1 7.69334 8.19827 12.5849 -9.10111 0.0584356 -0.840964 -0.893932 
125 1 0.247659 3.84133 4.80059 -7.4959 3.11819 -0.914242 0.0522712 
845 1 0.00154208 4.57615 9.96349 -7.98149 0.787034 0.22558 2.18904 
245 1 0.370501 7.72484 4.86109 -8.14565 -0.309089 -0.756681 2.389 
965 1 0.578776 7.60589 10.3378 -8.03059 -2.06166 0.669214 -2.96616 
11 1 4.28008 0.42455 4.80023 -7.82242 1.01853 1.1975 2.79768 
731 1 3.76642 0.818104 10.1903 -7.94407 -1.36251 0.586329 -1.78112 
131 1 4.30822 3.92387 4.62225 -7.26598 -1.21436 -0.148892 -0.0529645 
851 1 3.96192 4.21628 10.1901 -8.16696 -0.454012 -1.28261 -2.11278 
251 1 3.58024 8.073 5.11625 -7.63755 0.934266 -0.700667 0.267889 
971 1 3.79529 7.78847 10.3836 -8.17066 1.58551 -0.061986 -1.56881 
17 1 7.78481 0.044424 4.37275 -7.51317 -0.642186 -0.0106723 0.77221 
737 1 7.58317 0.905249 9.90287 -8.70394 1.40718 -0.830144 0.369044 
137 1 7.78582 4.37855 4.81792 -7.92951 -0.473069 1.58754 0.540175 
857 1 7.61784 4.14777 10.0406 -8.14179 -1.41949 0.414141 -1.47039 
257 1 7.62237 7.73253 4.3512 -7.24727 -2.29835 -2.15617 1.00044 
977 1 7.56891 7.625 9.83045 -8.85287 1.73294 0.798605 0.911332 
966 1 0.811576 7.81888 7.48619 -8.07743 0.01775 2.70332 0.609087 
129 1 6.11101 5.81804 -0.0108405 -7.1042 0.289098 2.44092 0.410849 
24 1 11.4122 0.972722 2.13151 -7.15572 3.08082 2.09647 0.285491 
23 1 11.3691 0.894792 4.76977 -7.65418 2.20237 -1.68431 -0.373266 
969 1 5.87985 9.30989 5.18822 -7.29957 -0.398051 1.71382 1.35664 
243 1 2.17559 9.51349 0.0305593 -8.38372 1.97463 0.397463 2.16004 
2 2 0.617693 2.73071 1.09268 -27.0672 -2.42128 0.289476 0.150177 
722 2 0.350915 2.58907 6.4488 -29.2846 0.758072 -1.07847 -0.827736 
1442 2 0.136934 2.44574 12.0233 -27.8575 0.418999 1.23139 -2.01016 
122 2 0.20751 6.17895 1.14924 -28.8026 -1.82933 1.1551 -0.359576 
842 2 0.355738 6.32675 6.63665 -27.8386 0.413675 -3.80107 -1.56841 
1562 2 0.237709 6.16715 11.6425 -28.9652 -0.785283 -0.0729727 1.13509 
242 2 0.339066 9.82214 1.21912 -29.1465 0.116923 -2.18341 -0.617323 
962 2 0.232432 9.81486 6.70736 -28.2214 3.49896 1.12713 -1.3764 
1682 2 0.338901 9.93702 11.6902 -29.0752 0.204569 -0.069063 2.37424 
8 2 3.87196 2.50654 1.18449 -29.0142 6.00144 -0.595868 1.57896 
728 2 4.2208 2.34658 6.33697 -29.6253 -1.18565 0.760303 -0.53933 
1448 2 3.96537 2.51584 11.5694 -28.7867 -1.08188 4.09345 0.321084 
128 2 3.82352 6.19704 0.901012 -29.8413 0.78702 0.320751 1.31111 
848 2 4.07953 6.12002 6.55997 -28.4238 -2.10889 0.435169 -1.45469 
1568 2 3.84326 6.3223 11.9742 -29.2278 0.596638 0.147381 -0.829904 
248 2 4.09492 9.93574 1.01368 -27.5828 -0.439093 -0.253912 0.495585 
968 2 3.89193 9.72288 6.45451 -29.0082 -0.272063 0.0324173 -1.2206 
1688 2 3.89497 10.0357 11.8711 -27.6429 -1.27466 -3.03172 -2.31885 
14 2 7.63718 2.70143 0.871922 -30.415 -0.297231 -1.31208 0.51237 
734 2 7.87229 3.03354 6.4098 -28.964 -1.67566 -2.64732 -0.32422 
1454 2 7.59358 2.60274 11.4333 -28.6941 0.647195 0.195694 2.13134 
134 2 7.73709 6.22509 0.939291 -27.9876 0.220177 0.339885 -0.864326 
854 2 7.5045 6.30554 6.34425 -28.6146 -0.0358077 1.28594 -2.12675 
1574 2 7.5344 6.40751 11.6548 -27.9849 0.783836 -2.52274 0.15913 
254 2 7.60403 9.85756 1.1919 -28.2101 -0.672115 1.47006 -1.36642 
974 2 7.48878 10.1022 6.33889 -28.2836 0.666916 -2.92062 -0.536897 
1694 2 7.24709 9.88838 11.551 -27.0452 2.81451 1.91947 -0.0528168 
15 1 9.46683 2.02328 0.178482 -6.92804 1.85351 1.43999 0.510479 
249 1 5.76771 9.9927 -0.00869385 -8.23574 0.469177 0.0384537 0.917476 
1683 1 2.0283 9.67005 10.9662 -7.60633 2.06883 0.0680976 -2.03888 
1452 1 3.74303 1.0357 12.5675 -7.34661 0.0917785 -1.26633 2.26769 
863 1 11.4942 4.44981 9.82056 -8.2091 -1.72804 -0.930637 2.75707 
1700 2 11.229 10.3337 11.5801 -29.1841 0.721089 -2.31276 1.93498 
6 1 0.365033 1.08302 2.04718 -7.91338 -0.98919 0.594703 -0.494619 
140 2 11.3515 6.48527 1.01683 -28.1991 -0.617343 -1.36931 0.659179 
1566 1 0.0466612 4.51069 12.7533 -8.44688 0.65263 -1.05749 0.979466 
1 2 2.26114 0.665128 3.8273 -29.9696 2.02632 0.105129 0.728855 
721 2 2.19225 0.516078 8.91891 -28.5463 -0.135924 1.50084 -1.7126 
121 2 2.42773 4.43683 3.66006 -28.9837 -1.21547 -0.0757985 2.38533 
841 2 1.83771 4.2768 9.43663 -28.8027 2.76943 -1.04254 -1.46965 
241 2 2.06287 7.99268 3.93838 -29.2952 1.05999 -0.856924 -1.82306 
961 2 2.13864 8.0996 9.32058 -28.8215 0.917253 -0.170961 -1.70685 
7 2 5.9555 0.647643 3.71734 -29.9887 -0.119208 1.33079 -2.36491 
727 2 5.75352 0.650942 8.8499 -28.5596 0.636006 0.237486 0.0834637 
127 2 5.76959 4.59511 3.4936 -29.4238 1.07621 -1.45173 0.949435 
847 2 5.58929 4.34566 9.24232 -27.4935 1.9824 -0.226245 -1.04798 
247 2 5.79683 8.02807 3.45718 -29.5944 -1.22564 1.07594 1.67249 
967 2 5.78226 7.76718 9.0116 -27.5836 -1.36418 2.30821 -0.0887395 
13 2 9.62313 0.904539 3.87606 -29.9163 -1.34568 0.735657 -1.72949 
733 2 9.41765 0.908322 8.78622 -29.0088 0.323939 -2.0012 0.129128 
133 2 9.4932 4.6248 3.65668 -28.8065 -0.699772 -0.984948 -0.123146 
853 2 9.43207 4.51022 9.22198 -28.6511 0.538638 -0.154186 -1.13176 
253 2 9.29086 8.19501 3.84966 -28.6964 3.41915 -1.65353 -0.713793 
973 2 9.46749 8.00558 9.20663 -27.9085 0.367557 0.63902 -1.26594 
123 1 1.75439 6.33606 0.260739 -6.86593 5.3709 -0.589918 -0.219115 
723 1 2.29945 2.10984 5.58433 -6.83235 0.131346 0.138743 -1.24009 
1443 1 1.66018 2.51672 10.6723 -8.03656 0.417163 0.00893653 -1.09099 
725 1 0.397749 0.362172 9.9186 -8.26403 0.946614 -0.302166 0.799641 
843 1 2.34454 5.75174 5.24416 -8.01223 -1.27707 0.531004 1.63874 
1563 1 2.16161 5.52769 11.2292 -7.63985 -1.599 0.692422 -0.0603689 
3 1 2.42597 2.77042 0.159779 -9.183 -3.45472 -0.213668 -2.45804 
963 1 2.03197 10.1351 5.70196 -7.4204 -1.87196 0.257144 -0.993375 
730 1 6.01821 2.61562 7.81975 -8.59365 -1.55754 1.00015 1.11997 
736 1 9.33092 2.6812 7.88783 -8.38078 0.92446 1.67688 1.24583 
729 1 6.26427 2.32327 5.11013 -7.15076 -0.331005 -1.41526 1.42455 
1449 1 5.74525 2.38089 10.7167 -8.11831 -0.196623 0.581454 -2.02144 
136 1 9.68795 6.49812 2.76436 -8.1902 0.0388369 -1.41588 -0.470565 
849 1 5.65055 6.11896 5.27667 -8.17814 0.500588 0.20623 -0.492506 
1569 1 5.82279 6.10163 10.6617 -8.33444 -1.52519 0.161868 -1.23647 
130 1 5.28562 6.32051 2.59283 -7.4571 0.669329 -1.04226 -0.145473 
9 1 5.84484 2.86395 -0.164484 -6.58955 -0.644409 -0.395606 1.64237 
1689 1 5.95906 9.69117 10.0977 -8.78414 -1.55911 -0.693078 2.53195 
16 1 9.20738 2.80254 2.70618 -7.05925 0.11379 0.807964 0.493807 
735 1 9.55207 2.45752 5.32721 -7.7708 -1.16627 0.622855 0.08793 
1455 1 9.65533 2.74916 10.6074 -8.45415 -1.19627 -0.6636 -0.133392 
143 1 11.2699 4.38549 4.72053 -8.14263 -0.274953 0.651485 -0.891003 
855 1 9.39619 6.32205 5.56872 -8.12554 1.97911 -0.00897051 -0.572914 
1575 1 9.46313 6.01729 10.849 -8.51669 0.682861 0.939863 -0.759208 
740 2 11.3884 2.59897 6.3229 -29.0524 -1.07464 -0.1029 0.00192351 
975 1 9.25988 9.56511 5.28543 -8.12615 0.13841 1.53016 1.62791 
984 1 11.567 8.24764 7.38158 -8.53943 0.286286 1.44375 -1.30045 
4 1 2.42631 2.3859 2.97002 -7.71161 -2.48087 3.24935 -1.58404 
724 1 2.55097 2.44399 7.94455 -6.58142 -2.30918 -0.370675 4.01569 
124 1 2.45165 6.36147 2.67835 -6.7884 -2.35017 1.34566 1.33749 
844 1 2.19437 5.9892 8.4831 -7.73447 0.760871 0.0185469 -0.620834 
244 1 1.74511 9.66079 3.06932 -7.48554 0.752253 2.71103 -0.996821 
964 1 2.14014 9.93259 8.14184 -8.1184 -0.33774 0.100811 1.33961 
10 1 5.89116 2.83098 2.51012 -7.23228 0.0495903 0.145458 -1.0444 
135 1 9.56883 6.18875 0.0586008 -8.8588 0.0895124 0.874228 -0.7395 
264 1 11.3708 8.22712 1.95378 -7.92341 0.250675 0.723336 -0.084067 
744 1 10.8694 0.633125 7.26506 -7.63136 1.49563 0.889053 0.429848 
263 1 11.3649 8.34634 4.56349 -7.81473 0.402169 -0.225715 1.31978 
260 2 11.3896 9.94289 1.07854 -28.3136 -1.02052 1.33024 -1.02356 
1578 1 7.46241 4.58517 12.512 -7.49395 2.3714 -0.470606 0.560872 
144 1 11.272 4.27108 2.02511 -8.37086 0.223413 1.76009 -0.28955 
1464 1 11.592 1.12471 12.407 -7.2457 -0.170967 -0.0297348 1.37122 
1692 1 3.76766 8.21296 12.791 -7.92401 1.58657 0.968625 1.23302 
2166 1 0.490752 0.847781 18.1339 -7.8018 1.60787 0.613162 -0.372188 
2886 1 0.285865 0.729634 23.1756 -7.28468 1.18486 -2.20592 -0.060128 
2286 1 0.468138 4.39693 17.8558 -7.55486 -0.879481 0.049149 1.21445 
3006 1 0.548111 4.37794 23.2013 -7.69296 1.20891 1.08442 -0.02909 
2183 1 11.6016 0.963305 20.5738 -8.44796 2.19486 -1.26332 0.0358412 
3126 1 0.295097 7.87564 23.1894 -6.92068 0.759593 2.09952 -2.37561 
2172 1 4.01666 1.07349 17.9699 -8.32111 2.30795 -1.04232 0.661334 
2892 1 4.39421 1.01614 23.3928 -9.13784 -3.23625 -1.93355 -0.0902396 
2292 1 4.73056 4.48422 18.0467 -8.0044 -0.185804 -2.04858 1.6889 
3012 1 3.84183 4.18454 23.4114 -7.46066 -0.462969 -0.544318 -0.00333001 
2412 1 4.28548 7.96147 18.0838 -8.3103 -1.08159 1.42782 -1.03842 
3132 1 3.81507 8.38125 23.4242 -8.4872 2.59292 -1.25968 -1.26759 
2178 1 7.94963 0.719504 17.6217 -6.86732 -1.08224 0.7598 2.15996 
2898 1 7.45244 0.580086 23.0088 -7.70198 -1.10048 2.25628 -1.09386 
2298 1 8.01939 4.60902 17.9426 -8.97603 0.286675 -1.34555 1.5219 
3018 1 7.78725 4.90762 23.4994 -7.81489 0.593575 -0.272536 -0.917762 
2418 1 8.15861 8.07997 17.589 -7.4972 0.169789 0.181402 2.22069 
3138 1 7.52745 7.84306 23.0047 -6.89362 -0.454458 0.394147 0.541897 
3131 1 4.44324 7.69279 25.9863 -8.56818 -2.9876 1.21794 1.00441 
1456 1 9.79801 2.88991 13.3656 -8.24104 -0.781297 -0.123476 -1.76651 
2420 2 11.3549 10.0229 16.9053 -29.5256 0.350425 0.396879 -0.544185 
1570 1 5.86757 6.31475 13.2882 -8.03805 0.54898 3.99795 -0.580172 
3136 1 9.00471 10.0677 23.9299 -7.52294 2.28702 -0.644194 -1.10003 
2896 1 9.19789 2.6373 24.1233 -7.34335 0.217007 -0.034801 -1.44563 
1445 1 0.283489 0.722461 15.5173 -7.93909 3.08212 1.94771 0.945664 
2165 1 0.655043 0.722353 20.6519 -7.5246 -0.0505021 0.0491442 -0.247789 
2897 1 7.45995 0.838824 25.8032 -6.68509 0.331481 -1.32441 -0.139976 
1565 1 0.566712 4.00003 15.3228 -7.38619 -2.02989 0.455071 -1.71759 
2285 1 0.195235 4.61661 20.4305 -7.38261 1.62799 -1.37564 0.0972302 
3011 1 4.09439 4.68738 26.0056 -6.97421 -3.97569 -0.355343 -0.476462 
1685 1 0.345521 7.93886 15.4385 -7.60955 1.52482 -0.0225972 -0.441487 
2405 1 0.425375 7.91056 20.5017 -8.08445 -1.66679 -1.37003 1.87697 
3020 2 11.4578 6.78056 22.2746 -28.4257 -1.28399 -2.85467 1.65727 
1451 1 4.36605 1.53606 15.0078 -6.82894 -2.10885 -2.75135 -0.227804 
2171 1 4.26701 1.014 20.8057 -8.69266 0.0713834 -1.42919 -1.32041 
2300 2 11.0779 6.4173 16.8031 -28.0695 1.84315 0.289198 0.11294 
1571 1 4.21725 4.5674 15.5724 -7.05392 -0.206398 -0.632293 -2.54565 
2291 1 4.08901 4.45454 20.7613 -7.73596 0.646713 -0.0401832 -0.825017 
3140 2 11.1288 10.0415 21.997 -28.4624 0.822024 1.66707 -0.0716182 
1691 1 4.17059 7.78089 15.3293 -7.85321 -2.72915 1.957 1.68715 
2411 1 4.09677 8.04205 20.5268 -8.60753 -0.349389 -0.161039 2.61054 
2176 1 9.54075 2.41213 18.6743 -7.89131 -0.428986 2.61896 -0.367466 
1457 1 7.7848 0.644099 15.2205 -6.83618 0.56225 1.4664 -1.31659 
2177 1 7.78507 0.271687 20.2101 -7.90947 -1.24041 1.17487 1.68122 
1564 1 2.39116 6.35702 13.6976 -7.88245 -1.76365 -0.449909 -0.623195 
1577 1 7.67888 4.18928 15.2051 -7.77831 1.09395 0.103747 0.122062 
2297 1 8.0335 4.34468 20.8695 -8.71631 -1.60072 -0.272764 -1.91713 
3130 1 6.1254 10.0973 23.7593 -7.69712 -0.160866 -2.26069 0.318285 
1697 1 7.73462 8.53701 15.2428 -7.40936 -0.625486 0.11437 -2.0842 
2417 1 7.81729 7.49793 20.3776 -7.67325 0.985092 0.777101 -2.36543 
2406 1 0.901161 8.00831 18.1451 -7.83435 -1.15259 -0.227446 -1.35564 
2891 1 4.23331 0.834955 26.1083 -8.01594 -1.37731 -0.428177 -1.40883 
1446 1 0.244501 0.442483 13.0433 -9.05883 3.09999 0.991656 -2.51536 
2304 1 11.2546 4.35372 17.9202 -7.66702 -1.24809 0.915521 -0.215288 
3125 1 0.346173 7.81784 25.6366 -6.24656 -0.316734 1.6904 2.25519 
2296 1 9.82698 6.31315 18.627 -8.31487 0.34206 0.832667 -1.28798 
3144 1 11.5359 8.61004 23.3666 -8.08644 -0.776116 0.38094 -1.62786 
1463 1 11.4915 1.11855 15.1754 -7.408 2.43785 0.233879 0.3006 
3023 1 11.3301 3.98598 25.8239 -8.17982 -1.05725 0.292566 -0.585926 
2303 1 11.3552 3.84927 20.4415 -7.84227 0.0375981 -0.0724863 -0.479279 
2162 2 0.556829 2.62637 17.0439 -29.4169 -0.861783 -0.510167 -0.743112 
2882 2 0.3518 2.52783 22.3117 -29.5536 0.932296 0.727373 -2.82469 
2282 2 0.684107 6.27718 17.1727 -29.0053 -1.03093 -0.0968199 -0.741726 
3002 2 0.275555 6.28564 22.0669 -29.5203 -1.24427 -2.16781 2.32979 
2402 2 0.539742 10.0325 17.3977 -29.1692 -0.0845013 -1.62229 -0.38664 
3122 2 0.352662 9.87897 22.5043 -29.3747 0.00106972 0.394858 -0.634501 
2168 2 4.19043 2.87798 16.8265 -29.7598 -0.580581 -0.615492 -0.27765 
2888 2 4.1743 2.62171 22.2689 -28.6524 -1.13157 2.47284 -1.29927 
2288 2 4.32501 6.16953 17.157 -29.5426 -1.49435 0.115295 -2.40541 
3008 2 4.09482 6.2956 22.2542 -28.8822 -0.821346 -1.49718 0.507829 
2408 2 3.97034 9.74094 17.1743 -27.725 -0.63026 0.711622 -0.125831 
3128 2 4.11151 9.93651 22.1086 -28.3127 -0.670038 -1.48205 0.676039 
2174 2 7.9586 2.74525 17.1398 -29.2489 -0.62634 -2.09207 -1.93538 
2894 2 7.76658 2.72761 22.306 -28.7847 1.24766 0.127612 2.75492 
2294 2 7.64377 6.26125 17.082 -28.2248 0.121699 1.4875 -1.85299 
3014 2 7.96017 6.16533 21.892 -29.3642 -0.535159 1.51605 1.87849 
2414 2 7.66917 10.0321 16.9584 -29.1062 0.297278 -1.68452 -1.68002 
3134 2 7.75296 10.0371 22.2719 -28.8935 -3.15179 0.147323 2.30213 
1583 1 11.5337 4.45339 15.4814 -8.54273 -0.323949 1.76414 -1.84917 
2423 1 11.4033 8.16918 20.7047 -9.22972 1.05211 0.784978 0.416848 
2900 2 11.479 2.51018 21.9105 -29.0361 0.0587018 1.14796 2.43693 
3024 1 11.1248 4.2553 23.0588 -7.26849 0.44225 -0.172929 1.26931 
1450 1 6.06385 2.6342 13.2468 -7.31993 -0.359862 -0.015049 -0.0727736 
3017 1 7.98258 4.30673 25.9876 -7.48298 0.69615 -0.0953474 1.60594 
1441 2 2.32625 0.844186 14.2173 -28.0969 0.668886 1.6353 2.54195 
2161 2 2.52923 0.965643 19.6556 -28.9298 -1.59576 -0.35511 -0.410194 
2881 2 2.40435 0.705485 24.8623 -27.1941 1.06574 -0.431734 1.33476 
1561 2 2.03232 4.58123 14.3564 -28.5725 3.17189 -0.936701 0.344295 
2281 2 2.00561 4.48124 19.7433 -28.7425 1.25463 -2.33515 1.82755 
3001 2 2.02863 4.19589 24.8665 -28.8832 1.80491 2.70022 -1.32388 
1681 2 2.19214 8.23685 14.5634 -28.7429 -0.470387 -0.568751 -0.831693 
2401 2 2.25453 8.03882 19.9353 -28.3732 0.0312222 0.517843 -2.28981 
3121 2 2.40084 8.04354 24.8721 -29.6612 -2.86427 -0.529153 0.922103 
1447 2 6.04293 0.863339 14.2308 -29.6741 0.727778 0.996595 1.44354 
2167 2 6.13429 0.936227 19.4947 -27.6758 -1.82572 -2.64729 0.51651 
2887 2 5.90784 0.948356 24.5939 -29.4532 2.87449 0.187473 3.49355 
1567 2 5.9074 4.52342 14.0616 -29.9054 -0.352775 -1.58164 2.29481 
2287 2 6.00663 4.4293 19.6437 -27.9414 -0.26034 0.946524 1.52393 
3007 2 5.8235 4.61809 24.9313 -30.2621 0.579614 -2.77226 -0.0726346 
1687 2 5.72339 8.03112 14.3731 -28.3663 2.37346 0.85023 0.695415 
2407 2 5.96896 8.06826 19.6088 -28.6414 0.299233 -0.336762 1.86845 
3127 2 5.9211 7.98185 24.7821 -28.2827 -1.36568 0.983028 -3.19706 
1453 2 9.72223 1.078 14.3799 -29.7382 -1.09558 -1.68959 -0.223659 
2173 2 9.61138 0.785603 19.6707 -29.1989 1.13315 0.229656 -1.34923 
2893 2 9.88601 0.876605 24.9994 -29.6646 -2.01393 0.709231 0.0571641 
1573 2 9.55286 4.40348 14.4805 -28.0331 0.11492 2.04562 -0.331411 
2293 2 9.7673 4.46522 19.3752 -28.6623 -0.871518 -0.639486 1.9388 
3013 2 9.51116 4.65818 24.7723 -29.0904 1.09555 -0.638575 -1.22112 
1693 2 9.35845 8.1503 13.8985 -29.513 2.21724 2.01562 2.54448 
2413 2 9.61326 8.18472 19.4258 -28.6328 -1.10058 -0.591576 0.995587 
3133 2 9.43515 8.28471 25.0477 -28.7153 1.088 0.267822 -2.26438 
2163 1 2.43654 2.72612 16.0274 -7.31458 -1.94226 -1.55561 -0.399325 
2883 1 2.22292 2.7063 21.1601 -7.7559 -0.604576 -0.09075 1.74134 
2283 1 2.38869 6.14606 16.2778 -7.19513 -1.23059 0.598591 -1.65809 
3003 1 2.14875 6.20501 21.4882 -8.57212 1.63487 0.711774 -1.75041 
2403 1 2.08881 9.8886 16.1136 -8.42644 2.66735 -1.09728 -0.796534 
3123 1 2.07511 9.68707 21.3767 -7.95761 1.11609 0.582156 0.342075 
2169 1 6.01567 2.60714 16.3364 -6.69796 2.45072 -0.137768 0.653215 
2889 1 6.04182 2.63222 21.4217 -8.18269 0.498287 0.552115 -2.38927 
2289 1 6.07402 6.23161 15.861 -7.67945 1.40202 0.927698 0.252337 
3009 1 5.86445 6.21373 21.1917 -7.7341 0.168791 -1.22823 -0.994541 
2409 1 5.55842 9.83749 16.0058 -8.17321 0.167108 1.1246 -0.136504 
3129 1 5.99947 9.63166 21.3458 -8.05111 -0.382312 0.297836 -2.19872 
2175 1 9.76389 2.62003 15.934 -8.17274 -2.22345 1.38713 1.24274 
2895 1 9.44016 2.12744 21.3652 -7.98015 -0.689765 -0.268709 0.569412 
2295 1 9.27619 6.23515 15.8856 -8.44811 1.71189 -1.03921 0.029783 
3015 1 9.89399 6.02194 21.1598 -7.53304 0.531464 0.971436 0.187861 
2415 1 9.53 10.5911 16.0707 -7.75518 -1.65476 1.10896 0.823603 
3135 1 9.11727 9.53455 21.311 -8.07122 4.70415 -0.588224 -1.96311 
2424 1 11.4455 8.31716 18.1632 -8.62976 0.142253 -1.686 -1.70595 
2164 1 2.4514 2.81219 18.7324 -7.5636 -0.619258 0.245587 -1.5629 
2884 1 2.07091 2.25044 23.8317 -8.45114 1.09872 1.78596 0.897137 
1576 1 9.7239 6.41069 13.4086 -7.27429 -1.65419 -4.3273 -0.0498205 
2284 1 2.40949 5.87286 18.6637 -7.82011 1.35136 3.08857 1.56445 
3004 1 2.37299 6.25501 24.1557 -7.03835 0.756506 -1.01101 -0.391027 
3016 1 9.81468 6.75943 23.7917 -7.8744 -0.337641 -1.64244 0.209026 
2404 1 2.38508 9.88863 18.8029 -7.92601 0.646282 0.494263 0.0252267 
3124 1 1.86303 9.84069 23.9892 -7.3086 -0.327624 0.183137 0.162347 
1696 1 9.76779 10.1193 13.3859 -7.57694 -2.43378 1.89933 -1.38934 
2170 1 6.59453 2.57625 18.8765 -8.46227 -0.368921 2.35427 0.304075 
2890 1 6.14843 2.83024 23.8679 -7.38139 0.158721 0.763458 -0.96181 
1684 1 2.02956 10.0989 13.4476 -8.10304 -0.263795 -1.04496 0.82557 
2290 1 6.14222 6.41011 18.5119 -8.33656 1.01381 -0.939171 0.65061 
3010 1 5.45371 6.13132 23.7078 -7.78388 0.194587 2.18982 1.11642 
2416 1 9.55736 9.9512 18.6432 -8.08523 -0.231089 1.68617 -0.0249193 
2410 1 6.36945 9.71618 18.6179 -8.70091 -1.11736 1.47566 0.161207 
3137 1 7.48777 8.03481 25.5976 -8.34259 3.12761 -0.78384 3.32958 
1444 1 2.19065 2.79533 13.0793 -8.18151 -2.17161 0.306397 2.33932 
1703 1 11.019 8.68988 15.354 -6.69531 -0.530767 -2.26894 1.20844 
1690 1 5.86052 9.77593 13.1865 -8.90319 -0.608608 0.850102 -0.859973 
2904 1 11.4264 1.0055 23.277 -7.67282 -1.18315 -0.461536 -0.280434 
3143 1 11.3802 7.99472 25.8749 -7.81344 -0.45012 0.13204 1.2663 
3005 1 0.381499 4.39109 26.0416 -8.3742 0.125721 -1.45386 0.256638 
2885 1 0.756527 0.694135 25.9576 -8.81386 -0.896812 1.65693 -0.0672392 
1824 1 11.5411 12.0937 12.5993 -7.32834 0.577685 -1.29178 -1.44412 
1086 1 -0.245924 11.8493 7.15184 -7.7775 0.531413 -0.28599 -0.0373353 
490 1 5.89945 17.4238 2.38186 -7.67151 1.5274 0.842629 1.3544 
486 1 0.333097 15.4042 1.79839 -7.51565 1.72077 1.19495 2.20319 
1206 1 0.111011 15.3311 7.25627 -8.16002 -0.15195 -0.185656 -1.51558 
1100 2 11.5166 13.621 6.43687 -28.8737 -2.02155 -0.375381 1.13167 
606 1 0.667561 19.0684 1.70973 -7.4459 0.0775738 0.969326 -0.0285517 
383 1 11.275 11.3702 4.74565 -7.95226 -3.26763 1.80487 -1.05507 
369 1 5.58305 13.3349 0.164033 -7.44712 1.60686 -1.04509 -2.64047 
372 1 3.79535 11.5246 2.39236 -8.25177 -0.61365 -0.676638 -2.96607 
1092 1 3.95737 11.8024 7.58181 -9.0534 1.01144 -0.992479 -0.0745811 
1223 1 11.1269 15.4507 10.6152 -7.77878 -2.62998 5.34493 -4.14314 
492 1 4.15716 15.6232 2.03029 -7.4177 -1.00438 -2.71657 -0.642677 
1212 1 3.87998 15.57 7.22783 -8.04239 -0.440058 -2.85155 1.917 
1344 1 11.1936 18.9024 7.22756 -7.97148 0.318505 1.29667 0.44497 
612 1 3.90273 18.8502 1.64396 -7.54411 -1.11176 1.37338 -1.18347 
1332 1 4.03584 18.8152 7.05343 -7.77868 0.142142 0.905223 0.346281 
1216 1 9.51013 17.0689 8.10213 -7.50898 -0.841978 0.585617 -1.82622 
378 1 7.64744 11.7584 2.30618 -7.36148 0.074898 0.457299 -3.19038 
1098 1 7.71912 11.9127 7.26663 -7.81273 0.296668 -2.76371 2.04696 
620 2 11.5755 20.9469 1.26645 -28.7525 -3.17443 -0.140956 -1.16286 
498 1 7.14552 15.3146 1.84959 -7.28103 1.1857 0.317798 -0.911577 
1218 1 7.70417 15.2264 7.30284 -7.35637 0.0194434 1.68779 0.0572731 
371 1 4.06239 11.4215 4.92587 -7.83156 -0.0254706 0.550525 0.7043 
618 1 7.80657 19.3577 2.09794 -8.5946 0.163631 -0.190386 2.2672 
1338 1 7.53349 18.9549 7.43399 -7.79575 1.12647 -2.83693 1.22837 
1806 1 0.328939 11.9839 12.4026 -8.18694 0.489489 0.906457 0.557184 
376 1 8.89138 13.7105 3.00945 -6.66005 1.66975 -0.0653724 -1.7137 
603 1 2.51766 20.8182 -0.0701625 -8.10028 0.266346 -0.332501 -1.43435 
496 1 9.21855 17.2308 3.00888 -7.11399 -1.20681 0.343991 -2.36437 
1343 1 11.2412 18.7557 9.98948 -7.54658 -0.568097 2.0444 -1.26984 
1335 1 9.80412 20.7143 5.28714 -7.30128 1.8552 1.34737 0.0265858 
616 1 9.86878 21.3096 2.53527 -7.36341 -2.24555 -4.56014 1.62876 
1336 1 9.17742 20.6932 8.19557 -7.55552 0.421272 0.936848 -0.226262 
1932 1 3.78827 15.6388 12.6781 -9.12065 1.27439 0.543466 0.933707 
1220 2 11.4721 17.0934 6.22181 -29.1043 -0.798389 1.38417 0.0956806 
365 1 0.42982 12.2616 4.50847 -7.95279 0.736103 -1.09975 -0.239904 
1085 1 0.290352 11.2004 9.83768 -7.93476 2.31744 3.02009 -1.21086 
485 1 0.307912 15.3642 4.52872 -8.33157 0.701702 -0.538901 0.352707 
1205 1 0.417557 15.0693 9.70308 -7.73292 0.460661 -0.698137 2.36598 
605 1 0.506008 18.8329 4.34199 -7.27851 1.43635 0.570444 0.285962 
1325 1 0.377092 18.747 9.84148 -7.73297 -1.8865 1.38808 0.459954 
366 1 0.496075 11.608 1.89708 -7.85932 0.636666 0.341658 2.09704 
1091 1 3.84163 11.3609 10.2096 -8.22445 2.14712 0.17108 -0.205939 
491 1 4.44513 15.279 4.58429 -7.5355 -1.44977 0.624134 0.906952 
1211 1 4.07061 15.1483 9.99659 -8.57902 -0.276878 0.228815 -0.358342 
611 1 3.78967 18.5544 4.28949 -7.24735 0.376326 1.07712 0.515665 
1331 1 4.00483 18.4223 9.6835 -7.73335 -0.87902 1.2519 -0.2087 
377 1 7.82284 11.5942 4.93685 -8.0954 -1.19371 0.277118 -1.57799 
1097 1 7.77527 11.4841 9.91842 -7.58493 -2.70849 -1.54077 -0.0263998 
497 1 7.58512 15.3534 4.61656 -7.40859 -1.2577 0.232585 0.690459 
1217 1 7.76134 15.0658 10.0793 -7.32568 -1.39792 0.871496 -1.4998 
617 1 8.22833 19.0819 5.04131 -7.43578 -2.92733 -2.69012 -2.21327 
1337 1 7.33256 19.35 10.1784 -8.08571 1.48887 -1.22235 -0.38253 
2058 1 7.76554 19.4646 12.7896 -8.59559 -0.888531 -1.23092 -2.0225 
2049 1 5.52713 21.0242 10.3067 -7.74416 0.340271 -0.0223765 -0.147859 
624 1 10.9931 18.8979 1.83806 -7.47951 -0.484285 1.50792 0.0488744 
503 1 11.6728 15.5537 4.89993 -8.60449 -0.136656 -2.34579 -0.747724 
1330 1 5.91473 20.6932 7.6083 -7.95734 -1.22687 1.28362 0.850505 
1096 1 9.63103 13.6426 8.14754 -6.71075 -0.0514484 -2.23689 -0.720473 
362 2 0.393562 13.502 1.19271 -28.9434 1.03157 0.308225 -3.46206 
1082 2 0.292791 13.7097 6.09466 -28.7044 0.175911 -1.47069 0.0810078 
1802 2 0.622488 13.6455 11.4889 -27.5781 -1.55529 0.498438 -1.14876 
482 2 0.575149 17.1137 0.77017 -29.3241 -1.1138 1.84419 0.468214 
1202 2 0.345842 17.181 6.12904 -29.1078 0.982588 -0.302416 -0.573047 
1922 2 0.414746 17.3525 11.7677 -28.0848 0.302257 -0.13902 -1.8183 
602 2 0.728952 21.0639 0.881115 -29.2873 -2.22172 -1.51163 0.808632 
1322 2 0.487171 21.0456 6.22889 -29.0603 0.084673 -3.16083 -0.708119 
2042 2 0.194905 20.8992 11.4491 -27.3372 1.42669 0.502097 -0.930298 
368 2 3.95663 13.5265 0.917814 -28.4808 -1.47021 1.30753 0.793853 
1088 2 4.11945 13.5235 6.60237 -28.0484 0.0296939 1.59664 -2.06409 
1808 2 3.93371 13.8842 11.6876 -27.2309 2.15674 -1.81382 -2.07929 
488 2 4.05606 17.0774 0.639751 -29.6587 0.866237 0.0560865 1.23178 
1208 2 3.98586 17.0954 5.92231 -29.5954 1.78779 0.802346 0.966266 
1928 2 3.96114 17.4571 11.631 -27.9945 -0.857849 -1.60624 -1.68749 
608 2 4.2568 20.6739 0.742078 -28.9293 -0.749096 1.80938 3.35102 
1328 2 4.24771 20.541 6.05962 -28.8032 -2.21159 0.518724 0.635562 
2048 2 3.76253 21.1594 11.6843 -28.4712 4.59488 -1.79016 -0.418546 
374 2 7.57395 13.5003 0.921685 -30.148 -0.246051 0.614953 0.670673 
1094 2 7.71021 13.5994 6.18274 -29.6623 0.548482 0.739775 0.292194 
1814 2 7.71869 13.5052 11.6759 -29.4053 0.84275 1.49101 -1.33875 
494 2 7.52543 17.25 1.091 -29.4822 2.45178 -0.559985 -0.328012 
1214 2 7.70694 17.1192 6.29309 -29.4453 0.0230312 -0.515008 0.0405156 
1934 2 7.51076 17.2565 11.676 -28.2997 2.46874 -0.556891 -0.151757 
614 2 7.97987 21.0428 0.99869 -29.2169 -0.830168 1.17733 -0.637887 
1334 2 7.71232 20.5921 6.27789 -29.6692 1.38613 2.90087 0.567689 
2054 2 7.67189 21.0238 11.4813 -28.618 -0.566486 0.59378 -0.339257 
380 2 11.3572 13.4992 0.931284 -29.0127 -1.43856 0.178842 1.13769 
504 1 11.0664 15.2895 2.04353 -7.57557 -0.742662 -0.821735 1.9477 
1820 2 11.3148 14.1744 11.8614 -29.5869 -0.093167 -6.61738 0.858915 
495 1 9.35853 16.5163 0.295901 -6.9647 -1.0602 1.51925 0.551127 
2060 2 11.6721 21.2427 11.6074 -28.5729 -3.37953 -0.914308 -0.246136 
1938 1 8.00887 15.3324 12.493 -7.15137 -0.626852 0.00282467 1.03068 
1103 1 11.2996 11.5348 9.82787 -8.07939 1.2997 -2.04201 2.06146 
1210 1 5.92574 17.0353 7.88761 -7.23249 0.77595 0.282443 -0.358855 
1340 2 11.5466 20.7554 6.28165 -28.7841 -2.26198 0.3265 0.806754 
361 2 2.19164 11.7606 3.69276 -28.5244 0.271734 -1.80748 0.961717 
1081 2 2.30239 11.7422 8.97838 -28.2724 -1.64125 -0.731143 0.671818 
481 2 2.34744 15.1809 3.78106 -28.5324 0.845039 2.41555 -1.86147 
1201 2 2.142 15.3872 8.89166 -28.7397 0.98577 0.616361 -0.935355 
601 2 2.22728 18.9754 2.99241 -29.4052 0.69698 0.553578 2.46922 
1321 2 2.11097 18.8434 8.93236 -28.9707 0.29937 1.47847 -0.349925 
367 2 5.76161 11.8145 3.82668 -29.1611 0.50346 -0.616299 -0.858806 
1087 2 5.75143 11.4557 8.69287 -27.6146 1.66277 2.75198 3.08213 
487 2 5.90024 15.3908 3.41923 -29.5685 0.710306 -0.0256872 -0.685143 
1207 2 5.89055 15.4649 9.16776 -28.8524 1.03535 -1.56165 -2.15744 
607 2 6.12854 18.9333 3.67142 -28.6738 -1.61359 -0.0160695 -1.79535 
1327 2 5.75476 19.0435 8.87651 -29.1873 -0.0680623 -1.07227 -0.28062 
373 2 9.35858 11.7264 3.56481 -28.9288 0.09991 0.652856 0.162353 
1093 2 9.49056 11.5681 9.09836 -29.0708 -0.436017 2.92415 -1.32555 
493 2 9.7152 15.4173 3.78316 -29.7928 -1.73548 0.218748 -0.139735 
1213 2 9.46518 15.3335 9.10007 -29.7723 0.382372 -0.833931 -0.32086 
613 2 9.56021 19.2831 3.59507 -29.2103 1.87112 -1.21191 -0.358882 
1333 2 9.28722 18.8987 8.86794 -28.9536 1.05715 0.0967704 1.36538 
609 1 5.95606 20.6772 0.174293 -7.67565 3.02205 -1.63188 -1.5267 
1083 1 2.45667 13.8926 5.27926 -8.48634 -0.784193 -2.78641 0.451209 
1803 1 2.24528 13.3934 10.2282 -8.18677 0.300137 0.187303 3.13065 
1326 1 0.321959 18.8711 7.01513 -7.38468 -3.30454 1.65891 -0.195611 
1203 1 2.24928 16.6571 5.32511 -7.57524 -1.76781 0.525942 -0.504122 
1923 1 2.07613 16.926 10.6376 -8.01597 0.829443 0.0204724 0.365071 
1104 1 11.3725 11.6779 7.4088 -8.14994 -0.128679 -1.1075 -1.70785 
1323 1 2.41348 20.7621 5.22165 -7.45913 -1.26201 -0.37821 -0.779627 
2043 1 2.33805 20.4309 10.7139 -8.70687 -2.1849 -0.0930224 -2.19398 
384 1 10.7951 11.7072 1.97407 -8.23585 -0.608396 0.107846 0.189138 
1089 1 5.80617 13.2601 5.34904 -7.96996 0.543314 -0.286631 0.161112 
1809 1 5.95035 13.3705 10.7586 -7.70263 -2.94373 -0.15103 0.163933 
610 1 5.43777 20.7382 2.66937 -6.73326 1.77084 -1.2812 0.534752 
1209 1 5.95014 17.3952 5.12456 -8.12553 1.30885 -0.183077 0.169496 
1929 1 5.93771 17.0392 10.4499 -8.18106 0.216165 -0.0609385 1.55024 