# LAMMPS data file written by OVITO
168 atoms
4 atom types
1.5494194 89.3625488 xlo xhi
-0.5885881 75.2663269 ylo yhi
-80.0 80.0 zlo zhi
-44.0226059 0.0 0.0 xy xz yz

Masses

1  12.000
2  12.000
3   1.000
4   0.010

Atoms

40 1 3 -33.2999992 60.2000008 -41.2999992
41 1 3 55.7000008 57.4000015 -47.7000008
32 1 3 6.4553099 -1.23498 -44.895401
33 1 3 -19.9603004 74.9055024 -49.0931015
20501 1 3 -0.959048 3.5630901 -45.5756989
5 1 3 -6.0378699 12.6021004 -49.7723999
6 1 3 -11.3190003 22.9428998 -43.1595993
7 1 3 -15.4544001 27.980301 -41.1399994
8 1 3 -23.4316998 42.6767006 -47.5247994
9 1 3 -28.0482006 50.527401 -49.6772003
10 1 3 -37.2342987 66.0289993 -42.0979996
21151 1 3 -17.4715004 32.7499008 -45.4547005
21156 1 3 -9.7766705 19.3652992 -44.3344002
21157 1 3 -10.1520996 20.5830002 -42.1652985
21285 1 3 -23.0555 41.5166016 -45.4925995
21935 1 3 -39.0070992 70.7942963 -45.3303986
21940 1 3 -31.8117008 57.5186997 -44.5
21941 1 3 -32.2845001 58.8767014 -42.5064011
21949 1 3 -39.7821999 72.9210968 -46.2872009
21287 1 3 -26.6278 48.8754006 -49.1013985
20503 1 3 -4.7104402 10.9266006 -48.9958
23431 1 3 -38.1777 74.7277985 -46.7229004
22837 1 3 -29.4101009 74.0161972 -48.0276985
40751 1 3 -22.0107994 39.1567001 -45.3609009
14891 1 3 -16.8953992 31.1788998 -43.9117012
14894 1 3 -19.2026005 34.7280998 -45.4408989
15034 1 3 -25.0219994 44.2014008 -48.5465012
40123 1 3 -25.9023 46.5332985 -48.7941017
15675 1 3 -38.5595017 70.3130036 -42.9674988
39341 1 3 -8.5989304 16.1751995 -47.9278984
14250 1 3 -3.0627401 6.2525902 -48.5661011
16566 1 3 -31.0900993 75.4968033 -47.0779991
39971 1 3 -13.2294998 23.6802006 -40.9365006
40101 1 3 -29.8563004 51.9686012 -48.9318008
39339 1 3 -3.9278 8.5855398 -48.8148003
40122 1 3 -31.2581005 56.0570984 -46.4323006
39338 1 3 -9.26264 18.0622005 -46.4028015
35370 1 3 -33.4480019 75.9201966 -47.4910012
35372 1 3 -35.8119011 75.3888016 -47.0224991
40755 1 3 -35.2136002 62.0768013 -41.6413994
35387 1 3 -27.0450001 74.8943024 -48.1964989
35378 1 3 -22.2448006 75.7482987 -49.107399
35380 1 3 -24.6530991 75.393898 -48.5965996
46244 1 3 -14.5050001 25.8220997 -40.5027008
39317 1 3 -7.85631 14.0522003 -49.0527
46247 1 3 -16.0771008 29.0967999 -43.028801
40125 1 3 -30.5911007 54.1156998 -47.8700982
47028 1 3 -36.4146004 64.0463028 -40.9440994
47031 1 3 -37.882599 68.3405991 -41.7168999
39968 1 3 -20.7343998 36.8754998 -45.3356018
49336 1 3 2.0504601 -0.158115 -45.1755982
49338 1 3 -1.44641 4.7221799 -47.5974999
49347 1 3 -11.1526003 75.4233017 -40.8450012
49348 1 3 0.357417 74.1903992 -43.5317993
50220 1 3 14.6180001 -0.630739 -48.8911018
59696 1 3 4.4377799 -0.356553 -44.4045982
59627 1 3 13.1971998 -0.671761 -47.0662994
71362 1 3 24.1207008 0.282457 -47.5331002
72184 1 3 -18.0552998 74.9197006 -47.5768013
86275 1 3 7.76365 75.0011978 -47.3945999
85383 1 3 2.21473 75.5207978 -44.3054009
86273 1 3 10.1252003 75.7341004 -47.6274987
96547 1 3 8.4768496 -1.75365 -46.1176987
96468 1 3 16.9235002 -1.34041 -49.263401
73740 1 3 14.2778998 74.1231995 -47.9217988
74333 1 3 5.41817 74.1020966 -47.3033981
67469 1 3 12.4738999 75.4533005 -47.0764008
85332 1 3 -5.6475902 76.0633011 -43.9174004
96807 1 3 26.0834007 -1.61244 -43.8739014
63443 1 3 3.41676 74.8712998 -46.3358002
89301 1 3 0.106394 1.24663 -45.6106987
85331 1 3 -3.43275 76.2218018 -44.9325982
96370 1 3 10.6856003 -1.01934 -47.0175018
85070 1 3 -13.3107004 76.0677033 -41.7849999
85314 1 3 -14.8902998 75.8322983 -43.7841988
85315 1 3 -8.8395596 75.1094971 -40.7738991
85318 1 3 -16.1191006 75.5218964 -46.0129013
85329 1 3 -6.5710702 75.2776032 -41.6598015
85338 1 3 -1.3263 75.0399017 -45.7459984
96427 1 3 21.8216 -0.249498 -48.6595993
96818 1 3 27.8188992 -1.27826 -42.1795006
96406 1 3 19.3850994 -0.811724 -49.1080017
96808 1 3 24.3985996 -0.701833 -45.3591995
30 1 3 68.473198 -0.615941 -45.3911018
31 1 3 50.6570015 -1.4294 -44.6809006
49335 1 3 46.2038002 -0.254445 -45.3950997
49337 1 3 58.9972992 -1.0276999 -47.7350006
49350 1 3 32.5695 75.453598 -40.8947984
49351 1 3 51.1693001 66.1109009 -42.5858994
49352 1 3 53.1161003 62.3690987 -41.5385018
49353 1 3 73.146698 28.3628006 -42.6306992
49354 1 3 75.0319977 24.6511002 -41.4347
49355 1 3 76.8860016 20.7133007 -47.6896019
76908 1 3 57.4523011 54.4417992 -48.4706002
76909 1 3 56.7869988 56.9342004 -48.1609993
86934 1 3 50.1035004 68.1183014 -43.4054985
86931 1 3 51.5327988 64.2257996 -41.1904984
86946 1 3 46.5225983 72.5332031 -46.9734002
86162 1 3 68.4011994 34.9501992 -46.2653999
98393 1 3 76.3265991 -1.09459 -40.7363014
86290 1 3 16.6569004 74.9571 -48.0932999
86882 1 3 28.9162998 75.8684006 -43.9230996
96820 1 3 34.3549996 -1.2837 -40.971199
98421 1 3 83.6632004 -0.128911 -44.5934983
98668 1 3 88.1371994 -0.5947441 -46.1596985
98375 1 3 70.1880035 -1.52253 -43.9360008
96825 1 3 32.0205002 -1.33033 -40.2933006
96853 1 3 39.4529991 -0.763599 -44.5028
97996 1 3 65.9181976 -0.120421 -48.7779999
86897 1 3 37.1819 75.0588989 -41.2588997
73596 1 3 76.2120972 21.4057999 -45.2541008
86899 1 3 40.5283013 76.0719986 -44.2742005
86900 1 3 38.301899 75.9095002 -43.3121987
86906 1 3 42.4518013 74.9992982 -45.4159012
86883 1 3 34.8339997 75.0133972 -40.6011009
96852 1 3 38.7429009 -0.596873 -42.1833992
61196 1 3 56.8193016 -0.0837466 -48.0612984
98115 1 3 52.7028008 -1.93504 -45.8916016
64209 1 3 69.5904007 32.8350983 -46.4127998
72972 1 3 85.6647034 4.6876302 -46.8167
76118 1 3 84.6488037 9.5457297 -47.0018005
61264 1 3 48.5707016 -0.490488 -44.5595017
98420 1 3 83.1244965 -0.0878483 -42.1733017
77501 1 3 66.9259034 39.1409988 -46.6060982
67482 1 3 23.7418995 74.9207002 -49.0744019
72931 1 3 68.1776962 0.372359 -47.5637017
97975 1 3 63.4674988 -0.661524 -49.3167992
86150 1 3 72.0596008 30.3785 -43.4028015
72982 1 3 80.9729004 11.9386998 -47.5928002
86147 1 3 73.4367981 26.5093994 -41.1486015
76111 1 3 85.1666031 7.1100001 -46.9571992
76115 1 3 80.3057022 14.3526001 -47.9411012
76752 1 3 67.0053024 36.6559983 -47.0428009
73766 1 3 59.0565987 49.7429009 -47.669899
73756 1 3 63.7972985 42.4482994 -46.7988014
73753 1 3 25.656601 74.913498 -47.5929985
76717 1 3 89.0347977 1.6982302 -46.1085014
96840 1 3 36.7850991 -0.859814 -40.7658997
76125 1 3 78.617302 19.0958996 -48.3026009
73629 1 3 75.7398987 22.7082005 -43.0546989
86283 1 3 19.0587997 75.4392014 -48.5050011
73612 1 3 70.1492004 31.4925003 -44.4291992
98408 1 3 81.0658035 -0.502864 -40.9303018
64993 1 3 47.7340012 70.4096985 -46.7915001
86638 1 3 30.4536991 76.1095963 -41.905201
74396 1 3 48.3117981 69.2016983 -44.6717987
74413 1 3 53.7825012 60.4477997 -43.2024002
74380 1 3 54.1934013 59.2254982 -45.476799
76895 1 3 63.2965012 44.8721008 -46.9323998
98388 1 3 78.6592026 -0.928793 -41.3857994
74401 1 3 44.4033013 73.8361969 -46.4655991
76902 1 3 62.703701 47.2812004 -47.0945015
98665 1 3 85.774498 -1.00044 -45.6269989
86886 1 3 27.6411991 75.5212021 -46.1096001
86303 1 3 61.1307983 49.0854988 -46.6596985
76124 1 3 79.4411011 16.6865006 -48.3075981
97939 1 3 54.8189011 -1.09824 -46.9440002
98386 1 3 71.9093018 -1.18111 -42.2103996
97100 1 3 44.0764008 -0.984518 -45.7966004
98387 1 3 73.9819032 -0.772232 -40.9042016
97097 1 3 41.7851982 -1.5591902 -45.2226982
96819 1 3 29.6926995 -0.909539 -40.6260987
76899 1 3 58.3564987 52.1447983 -48.0309982
85519 1 3 83.0799027 11.3523998 -46.535801
86125 1 3 87.5720978 3.5794101 -45.5261002
98037 1 3 61.1223984 -1.43687 -48.8395996
86281 1 3 21.4633007 75.7752991 -49.0485992
86909 1 3 65.6436997 41.1012001 -45.968399
