# LAMMPS data file written by OVITO
63 atoms
4 atom types
1.5494194 89.3625488 xlo xhi
-0.5885881 75.2663269 ylo yhi
-80.0 80.0 zlo zhi
-44.0226059 0.0 0.0 xy xz yz

Masses

1  12.000
2  12.000
3   1.000
4   0.010

Atoms

71645 1 1 7.9902802 25.0438995 -45.4000015
71664 1 1 6.87925 25.9279996 -45.2126999
71668 1 1 6.8815198 27.3505993 -45.2136994
71822 1 1 22.6079006 16.6595001 -45.4494019
71825 1 1 23.928301 16.1452999 -45.2569008
71837 1 1 22.1699009 18.0347996 -45.2871018
71913 1 2 10.0635996 26.6425991 -45.3856011
71915 1 1 9.4044504 25.3575993 -45.2500992
71916 1 1 7.99266 28.2343006 -45.4029999
71917 1 1 9.4048596 27.9251004 -45.2436981
72429 1 1 -13.9927998 63.0382996 -45.3820992
72448 1 1 -15.1006002 63.9378014 -45.2202988
72452 1 1 -15.0735998 65.3654022 -45.1823998
72606 1 1 0.636715 54.5458985 -45.4058991
72609 1 1 1.96041 54.0345993 -45.2364006
72616 1 1 0.972644 57.1158981 -45.4108009
72621 1 1 0.193774 55.9140016 -45.2533989
72697 1 2 -11.8940002 64.6190033 -45.3838005
72699 1 1 -12.5705996 63.3401985 -45.2374992
72700 1 1 -13.9449998 66.237999 -45.3653984
72701 1 1 -12.5310002 65.9141998 -45.2349014
71832 1 1 22.9493008 19.2481995 -45.419899
72628 1 1 3.1906099 54.7411003 -45.2598992
72658 1 1 3.39431 56.1381989 -45.4547005
72659 1 2 2.41256 57.1893005 -45.2761994
71875 1 2 24.3896008 19.3229008 -45.2834015
71844 1 1 25.157301 16.8586998 -45.2478981
72051 1 1 22.1490994 35.2953987 -45.3014984
71874 1 1 25.3666 18.2597008 -45.4459
72049 1 1 22.5811997 36.6693993 -45.4836998
72050 1 1 22.9340992 34.0845985 -45.4348984
73442 1 1 69.2956009 18.4044991 -45.3265991
73232 1 1 50.7220001 25.9207002 -45.2056007
72052 1 2 24.3784008 34.0125008 -45.3139
73412 1 1 69.1212997 16.9969006 -45.1024017
72067 1 1 25.3551998 35.0727997 -45.4986
73390 1 1 66.5718994 16.7458992 -45.3105011
73481 1 2 53.8800012 26.6210003 -45.3614006
73483 1 1 53.2340012 25.3397007 -45.2117996
72066 1 1 25.1399994 36.4763985 -45.3275986
74269 1 1 31.2397995 65.903801 -45.2020989
74268 1 1 29.8293991 66.2397995 -45.360199
74267 1 1 31.2250004 63.3288002 -45.1142998
74265 1 2 31.8868008 64.601799 -45.2994003
73213 1 1 51.8293991 25.0317993 -45.3717003
73443 1 2 68.3013001 19.4577008 -45.1924019
74227 1 2 46.2881012 57.2403984 -45.2215996
74226 1 1 47.2845993 56.1912003 -45.3927002
74196 1 1 47.1119003 54.7882004 -45.1613007
74189 1 1 44.0769997 55.9300996 -45.1146011
74184 1 1 44.8395996 57.1436005 -45.3055992
74177 1 1 45.8848992 54.0606995 -45.1423988
74174 1 1 44.5424004 54.5612984 -45.2627983
74020 1 1 28.7078991 65.3711014 -45.1562996
74016 1 1 28.7029991 63.9434014 -45.1478996
73997 1 1 29.8117008 63.0379982 -45.2729988
73393 1 1 67.9075012 16.2507 -45.1439018
73400 1 1 66.8619996 19.3477001 -45.3196983
73405 1 1 66.1065979 18.1187 -45.1632004
73236 1 1 50.7151985 27.3409004 -45.2276001
73484 1 1 51.8213005 28.2238007 -45.4003983
73485 1 1 53.2223015 27.9039994 -45.2212982
72057 1 1 23.905899 37.1855011 -45.3216019

Velocities

71645 0.0 0.0 0.0
71664 0.0 0.0 0.0
71668 0.0 0.0 0.0
71822 0.0 0.0 0.0
71825 0.0 0.0 0.0
71837 0.0 0.0 0.0
71913 0.0 0.0 0.0
71915 0.0 0.0 0.0
71916 0.0 0.0 0.0
71917 0.0 0.0 0.0
72429 0.0 0.0 0.0
72448 0.0 0.0 0.0
72452 0.0 0.0 0.0
72606 0.0 0.0 0.0
72609 0.0 0.0 0.0
72616 0.0 0.0 0.0
72621 0.0 0.0 0.0
72697 0.0 0.0 0.0
72699 0.0 0.0 0.0
72700 0.0 0.0 0.0
72701 0.0 0.0 0.0
71832 0.0 0.0 0.0
72628 0.0 0.0 0.0
72658 0.0 0.0 0.0
72659 0.0 0.0 0.0
71875 0.0 0.0 0.0
71844 0.0 0.0 0.0
72051 0.0 0.0 0.0
71874 0.0 0.0 0.0
72049 0.0 0.0 0.0
72050 0.0 0.0 0.0
73442 0.0 0.0 0.0
73232 0.0 0.0 0.0
72052 0.0 0.0 0.0
73412 0.0 0.0 0.0
72067 0.0 0.0 0.0
73390 0.0 0.0 0.0
73481 0.0 0.0 0.0
73483 0.0 0.0 0.0
72066 0.0 0.0 0.0
74269 0.0 0.0 0.0
74268 0.0 0.0 0.0
74267 0.0 0.0 0.0
74265 0.0 0.0 0.0
73213 0.0 0.0 0.0
73443 0.0 0.0 0.0
74227 0.0 0.0 0.0
74226 0.0 0.0 0.0
74196 0.0 0.0 0.0
74189 0.0 0.0 0.0
74184 0.0 0.0 0.0
74177 0.0 0.0 0.0
74174 0.0 0.0 0.0
74020 0.0 0.0 0.0
74016 0.0 0.0 0.0
73997 0.0 0.0 0.0
73393 0.0 0.0 0.0
73400 0.0 0.0 0.0
73405 0.0 0.0 0.0
73236 0.0 0.0 0.0
73484 0.0 0.0 0.0
73485 0.0 0.0 0.0
72057 0.0 0.0 0.0
