 # LAMMPS data file written by OVITO
60 atoms
4 atom types
1.3494194 89.8625488 xlo xhi
-1.0885881 76.0663269 ylo yhi
-80.0 80.0 zlo zhi
-44.0226059 0.0 0.0 xy xz yz
Masses

1  12.000
2  12.000
3   1.000
4   0.010

Atoms

22881 1 1 -29.7600003 63.4964981 -39.2594986
22882 1 1 -28.3983002 63.9407998 -39.2588997
22883 1 1 -30.6011009 64.656601 -39.2136994
22884 1 2 -29.7605992 65.822197 -39.2598
22885 1 1 -28.3978996 65.3787003 -39.2473984
22097 1 1 -7.8100901 25.4757004 -39.2434998
22099 1 1 -8.6596298 26.6305008 -39.1691017
22100 1 2 -7.8420502 27.8057003 -39.3073006
71432 1 1 -6.4554401 25.9393998 -39.2738991
71435 1 1 -6.4730101 27.3761006 -39.3077011
72222 1 2 -13.3032999 48.8058014 -39.0658989
72224 1 1 -13.0015001 50.2062988 -39.0502014
71436 1 1 10.4491997 12.3306999 -39.0555
71437 1 1 11.0433998 11.0258999 -39.1533012
71438 1 2 8.73205 10.7824002 -39.1633987
71439 1 1 9.97826 10.0669003 -39.1747017
71440 1 1 9.02209 12.1862001 -39.1362991
72220 1 1 -11.5719004 50.3389015 -38.9827996
72221 1 1 -10.9887 49.0298996 -39.0803986
72223 1 1 -12.0621996 48.0806999 -39.0948982
72225 1 1 8.64217 42.5404015 -39.266201
72226 1 1 8.9375496 41.1385002 -39.2391014
72227 1 2 10.3648996 41.0000992 -39.1407013
72228 1 1 9.8864404 43.2608986 -39.2683983
72229 1 1 10.9552002 42.3067017 -39.2428017
73783 1 1 14.0430002 63.4678002 -39.2303009
73787 1 1 15.3994999 65.3553009 -39.2300987
73786 1 2 14.0382996 65.8001023 -39.2127991
73785 1 1 13.2052002 64.6323014 -39.1416016
73784 1 1 15.4026003 63.917099 -39.2444992
71441 1 1 30.4906006 4.62847 -39.1725006
71442 1 1 30.7453995 3.2194901 -39.1365013
71443 1 2 32.1622009 3.02965 -39.1352997
71444 1 1 31.7567997 5.3080201 -39.2369003
71445 1 1 32.7905007 4.31355 -39.2689018
73795 1 2 54.3727989 41.0465012 -39.2210999
73007 1 1 53.9053994 10.0345001 -39.1687012
73797 1 1 54.9628984 42.3527985 -39.3056984
73790 1 2 30.5016995 48.6500016 -39.2229004
73789 1 1 32.8135987 48.8891984 -39.1799011
72999 1 1 36.0502014 25.5086003 -39.2461014
73791 1 1 31.7476998 47.932499 -39.2220001
73009 1 1 74.6118012 4.7342401 -39.2529984
73794 1 1 52.9435006 41.1861992 -39.2832985
73011 1 2 76.3247986 3.1805501 -39.2585983
73001 1 1 35.216301 26.6753998 -39.1484985
73000 1 1 37.4118996 25.9540998 -39.2700005
73005 1 1 54.9585 11.0058002 -39.132
73793 1 1 52.6491013 42.5872002 -39.3008995
73003 1 1 37.4132996 27.3920002 -39.273201
73792 1 1 30.7935009 50.0522003 -39.1819
73006 1 2 52.6506996 10.7353001 -39.1952019
73788 1 1 32.2197991 50.1940003 -39.0761986
73004 1 1 54.346901 12.3039999 -39.0533981
73013 1 1 76.919098 4.4865098 -39.3003998
73008 1 1 52.9236984 12.1422005 -39.1624985
73002 1 2 36.0522995 27.8402004 -39.2501984
73012 1 1 75.859398 5.4506202 -39.2564011
73010 1 1 74.9048004 3.3322899 -39.2723007
73796 1 1 53.8945008 43.3068009 -39.3083

Velocities

22881 0.0 0.0 0.0
22882 0.0 0.0 0.0
22883 0.0 0.0 0.0
22884 0.0 0.0 0.0
22885 0.0 0.0 0.0
22097 0.0 0.0 0.0
22099 0.0 0.0 0.0
22100 0.0 0.0 0.0
71432 0.0 0.0 0.0
71435 0.0 0.0 0.0
72222 0.0 0.0 0.0
72224 0.0 0.0 0.0
71436 0.0 0.0 0.0
71437 0.0 0.0 0.0
71438 0.0 0.0 0.0
71439 0.0 0.0 0.0
71440 0.0 0.0 0.0
72220 0.0 0.0 0.0
72221 0.0 0.0 0.0
72223 0.0 0.0 0.0
72225 0.0 0.0 0.0
72226 0.0 0.0 0.0
72227 0.0 0.0 0.0
72228 0.0 0.0 0.0
72229 0.0 0.0 0.0
73783 0.0 0.0 0.0
73787 0.0 0.0 0.0
73786 0.0 0.0 0.0
73785 0.0 0.0 0.0
73784 0.0 0.0 0.0
71441 0.0 0.0 0.0
71442 0.0 0.0 0.0
71443 0.0 0.0 0.0
71444 0.0 0.0 0.0
71445 0.0 0.0 0.0
73795 0.0 0.0 0.0
73007 0.0 0.0 0.0
73797 0.0 0.0 0.0
73790 0.0 0.0 0.0
73789 0.0 0.0 0.0
72999 0.0 0.0 0.0
73791 0.0 0.0 0.0
73009 0.0 0.0 0.0
73794 0.0 0.0 0.0
73011 0.0 0.0 0.0
73001 0.0 0.0 0.0
73000 0.0 0.0 0.0
73005 0.0 0.0 0.0
73793 0.0 0.0 0.0
73003 0.0 0.0 0.0
73792 0.0 0.0 0.0
73006 0.0 0.0 0.0
73788 0.0 0.0 0.0
73004 0.0 0.0 0.0
73013 0.0 0.0 0.0
73008 0.0 0.0 0.0
73002 0.0 0.0 0.0
73012 0.0 0.0 0.0
73010 0.0 0.0 0.0
73796 0.0 0.0 0.0
