# Liquid Ar (rho=1.374g/cm3), Phys. Rev. 136, A405 (1964)

1 atoms

1 atom types

0 3.6412664191749493 xlo xhi
0 3.6412664191749493 ylo yhi
0 3.6412664191749493 zlo zhi

Masses

1 39.948


Pair Coeffs # lj/cut

1 0.23846475655872523 3.4

Atoms

1   1     0.0 0.0 0.0