 # Voronoi polycrystal with 6 grains
  
       27468  atoms
           2  atom types
 
      0.000000000000     100.000000000000  xlo xhi
      0.000000000000     180.000000000000  ylo yhi
      0.000000000000     105.000000000000  zlo zhi
 
Masses
 
            1   127.60000000            # Te
            2   112.41100000            # Cd
 
Atoms # atomic
 
         1    1       17.784519574882      61.962152918240      87.837379357277
         2    1       10.758066574882      66.018877448240      81.208331445223
         3    1       10.758066574882      66.018877448240      87.837379357277
         4    2       13.785106184976      64.361615580720      86.180117665319
         5    1       15.442368387510      62.704353388661      84.522855401250
         6    1       15.442368574882      66.018877448240      87.837379357277
         7    2       18.469408184976      64.361615580720      86.180117665319
         8    1       20.126670574882      66.018877448240      87.837379357277
         9    1        3.731613574882      70.075601978240      81.208331445223
        10    1        3.731613574882      70.075601978240      87.837379357277
        11    1        8.415915574882      70.075601978240      81.208331445223
        12    2        6.758653184976      68.418340110720      86.180117665319
        13    1        8.415915387510      66.761077918661      84.522855401250
        14    1        8.415915574882      70.075601978240      87.837379357277
        15    2       11.442955184976      68.418340110720      79.551069753265
        16    1       13.100217574882      70.075601978240      81.208331445223
        17    2       11.442955372349      65.103816051141      82.865593709292
        18    2       11.442955184976      68.418340110720      86.180117665319
        19    1       13.100217387510      66.761077918661      84.522855401250
        20    1       13.100217574882      70.075601978240      87.837379357277
        21    2       16.127257184976      68.418340110720      86.180117665319
        22    1       17.784519574882      70.075601978240      87.837379357277
        23    1       96.705160574882      74.132326508240      81.208331445223
        24    1       96.705160574882      74.132326508240      87.837379357277
        25    1        1.389462574882      74.132326508240      74.579283533170
        26    1        1.389462574882      74.132326508240      81.208331445223
        27    2       99.732200184976      72.475064640720      86.180117665319
        28    1        1.389462387510      70.817802448661      84.522855401250
        29    1        1.389462574882      74.132326508240      87.837379357277
        30    2        4.416502184976      72.475064640720      72.922021841211
        31    1        6.073764574882      74.132326508240      74.579283533170
        32    2        4.416502184976      72.475064640720      79.551069753265
        33    1        6.073764387510      70.817802448661      77.893807489196
        34    1        6.073764574882      74.132326508240      81.208331445223
        35    2        4.416502372349      69.160540581141      82.865593709292
        36    2        4.416502184976      72.475064640720      86.180117665319
        37    1        6.073764387510      70.817802448661      84.522855401250
        38    1        6.073764574882      74.132326508240      87.837379357277
        39    2        9.100804184976      72.475064640720      79.551069753265
        40    1       10.758066387510      70.817802448661      77.893807489196
        41    1       10.758066574882      74.132326508240      81.208331445223
        42    2        9.100804372349      69.160540581141      82.865593709292
        43    2        9.100804184976      72.475064640720      86.180117665319
        44    1       10.758066387510      70.817802448661      84.522855401250
        45    1       10.758066574882      74.132326508240      87.837379357277
        46    1       15.442368574882      74.132326508240      81.208331445223
        47    2       13.785106372349      69.160540581141      82.865593709292
        48    2       13.785106184976      72.475064640720      86.180117665319
        49    1       15.442368387510      70.817802448661      84.522855401250
        50    1       15.442368574882      74.132326508240      87.837379357277
        51    1       89.678707574882      78.189051038240      81.208331445223
        52    1       89.678707574882      78.189051038240      87.837379357277
        53    1       94.363009574882      78.189051038240      74.579283533170
        54    2       92.705747184976      76.531789170720      79.551069753265
        55    1       94.363009574882      78.189051038240      81.208331445223
        56    2       92.705747184976      76.531789170720      86.180117665319
        57    1       94.363009387510      74.874526978661      84.522855401250
        58    1       94.363009574882      78.189051038240      87.837379357277
        59    1       99.047311574882      78.189051038240      67.950235621116
        60    2       97.390049184976      76.531789170720      72.922021841211
        61    1       99.047311574882      78.189051038240      74.579283533170
        62    2       97.390049184976      76.531789170720      79.551069753265
        63    1       99.047311387510      74.874526978661      77.893807489196
        64    1       99.047311574882      78.189051038240      81.208331445223
        65    2       97.390049372349      73.217265111141      82.865593709292
        66    2       97.390049184976      76.531789170720      86.180117665319
        67    1       99.047311387510      74.874526978661      84.522855401250
        68    1       99.047311574882      78.189051038240      87.837379357277
        69    2        2.074351184976      76.531789170720      72.922021841211
        70    1        3.731613387510      74.874526978661      71.264759577143
        71    1        3.731613574882      78.189051038240      74.579283533170
        72    2        2.074351372349      73.217265111141      76.236545797238
        73    2        2.074351184976      76.531789170720      79.551069753265
        74    1        3.731613387510      74.874526978661      77.893807489196
        75    1        3.731613574882      78.189051038240      81.208331445223
        76    2        2.074351372349      73.217265111141      82.865593709292
        77    2        2.074351184976      76.531789170720      86.180117665319
        78    1        3.731613387510      74.874526978661      84.522855401250
        79    1        3.731613574882      78.189051038240      87.837379357277
        80    2        6.758653184976      76.531789170720      72.922021841211
        81    1        8.415915574882      78.189051038240      74.579283533170
        82    2        6.758653372349      73.217265111141      76.236545797238
        83    2        6.758653184976      76.531789170720      79.551069753265
        84    1        8.415915387510      74.874526978661      77.893807489196
        85    1        8.415915574882      78.189051038240      81.208331445223
        86    2        6.758653372349      73.217265111141      82.865593709292
        87    2        6.758653184976      76.531789170720      86.180117665319
        88    1        8.415915387510      74.874526978661      84.522855401250
        89    1        8.415915574882      78.189051038240      87.837379357277
        90    2       11.442955184976      76.531789170720      79.551069753265
        91    1       13.100217574882      78.189051038240      81.208331445223
        92    2       11.442955372349      73.217265111141      82.865593709292
        93    2       11.442955184976      76.531789170720      86.180117665319
        94    1       13.100217387510      74.874526978661      84.522855401250
        95    1       13.100217574882      78.189051038240      87.837379357277
        96    1       82.652254574882      82.245775568240      87.837379357277
        97    2       85.679294184976      80.588513700720      79.551069753265
        98    1       87.336556574882      82.245775568240      81.208331445223
        99    2       85.679294184976      80.588513700720      86.180117665319
       100    1       87.336556387510      78.931251508661      84.522855401250
       101    1       87.336556574882      82.245775568240      87.837379357277
       102    2       90.363596184976      80.588513700720      72.922021841211
       103    1       92.020858574882      82.245775568240      74.579283533170
       104    2       90.363596184976      80.588513700720      79.551069753265
       105    1       92.020858387510      78.931251508661      77.893807489196
       106    1       92.020858574882      82.245775568240      81.208331445223
       107    2       90.363596372349      77.273989641141      82.865593709292
       108    2       90.363596184976      80.588513700720      86.180117665319
       109    1       92.020858387510      78.931251508661      84.522855401250
       110    1       92.020858574882      82.245775568240      87.837379357277
       111    2       95.047898184976      80.588513700720      66.292973357047
       112    1       96.705160387510      78.931251508661      64.635711665089
       113    1       96.705160574882      82.245775568240      67.950235621116
       114    2       95.047898184976      80.588513700720      72.922021841211
       115    1       96.705160387510      78.931251508661      71.264759577143
       116    1       96.705160574882      82.245775568240      74.579283533170
       117    2       95.047898372349      77.273989641141      76.236545797238
       118    2       95.047898184976      80.588513700720      79.551069753265
       119    1       96.705160387510      78.931251508661      77.893807489196
       120    1       96.705160574882      82.245775568240      81.208331445223
       121    2       95.047898372349      77.273989641141      82.865593709292
       122    2       95.047898184976      80.588513700720      86.180117665319
       123    1       96.705160387510      78.931251508661      84.522855401250
       124    1       96.705160574882      82.245775568240      87.837379357277
       125    2       99.732200184976      80.588513700720      66.292973357047
       126    1        1.389462574882      82.245775568240      67.950235621116
       127    2       99.732200372349      77.273989641141      69.607497885184
       128    2       99.732200184976      80.588513700720      72.922021841211
       129    1        1.389462387510      78.931251508661      71.264759577143
       130    1        1.389462574882      82.245775568240      74.579283533170
       131    2       99.732200372349      77.273989641141      76.236545797238
       132    2       99.732200184976      80.588513700720      79.551069753265
       133    1        1.389462387510      78.931251508661      77.893807489196
       134    1        1.389462574882      82.245775568240      81.208331445223
       135    2       99.732200372349      77.273989641141      82.865593709292
       136    2       99.732200184976      80.588513700720      86.180117665319
       137    1        1.389462387510      78.931251508661      84.522855401250
       138    1        1.389462574882      82.245775568240      87.837379357277
       139    2        4.416502184976      80.588513700720      72.922021841211
       140    1        6.073764574882      82.245775568240      74.579283533170
       141    2        4.416502372349      77.273989641141      76.236545797238
       142    2        4.416502184976      80.588513700720      79.551069753265
       143    1        6.073764387510      78.931251508661      77.893807489196
       144    1        6.073764574882      82.245775568240      81.208331445223
       145    2        4.416502372349      77.273989641141      82.865593709292
       146    2        4.416502184976      80.588513700720      86.180117665319
       147    1        6.073764387510      78.931251508661      84.522855401250
       148    1        6.073764574882      82.245775568240      87.837379357277
       149    2        9.100804372349      77.273989641141      76.236545797238
       150    2        9.100804184976      80.588513700720      79.551069753265
       151    1       10.758066387510      78.931251508661      77.893807489196
       152    1       10.758066574882      82.245775568240      81.208331445223
       153    2        9.100804372349      77.273989641141      82.865593709292
       154    2        9.100804184976      80.588513700720      86.180117665319
       155    1       10.758066387510      78.931251508661      84.522855401250
       156    1       10.758066574882      82.245775568240      87.837379357277
       157    1       84.994405574882      86.302500098240      81.208331445223
       158    2       83.337143372349      81.330714171141      82.865593709292
       159    2       83.337143184976      84.645238230720      86.180117665319
       160    1       84.994405387510      82.987976038661      84.522855401250
       161    1       84.994405574882      86.302500098240      87.837379357277
       162    1       89.678707574882      86.302500098240      74.579283533170
       163    2       88.021445372349      81.330714171141      76.236545797238
       164    2       88.021445184976      84.645238230720      79.551069753265
       165    1       89.678707387510      82.987976038661      77.893807489196
       166    1       89.678707574882      86.302500098240      81.208331445223
       167    2       88.021445372349      81.330714171141      82.865593709292
       168    2       88.021445184976      84.645238230720      86.180117665319
       169    1       89.678707387510      82.987976038661      84.522855401250
       170    1       89.678707574882      86.302500098240      87.837379357277
       171    1       94.363009574882      86.302500098240      67.950235621116
       172    2       92.705747372349      81.330714171141      69.607497885184
       173    2       92.705747184976      84.645238230720      72.922021841211
       174    1       94.363009387510      82.987976038661      71.264759577143
       175    1       94.363009574882      86.302500098240      74.579283533170
       176    2       92.705747372349      81.330714171141      76.236545797238
       177    2       92.705747184976      84.645238230720      79.551069753265
       178    1       94.363009387510      82.987976038661      77.893807489196
       179    1       94.363009574882      86.302500098240      81.208331445223
       180    2       92.705747372349      81.330714171141      82.865593709292
       181    2       92.705747184976      84.645238230720      86.180117665319
       182    1       94.363009387510      82.987976038661      84.522855401250
       183    1       94.363009574882      86.302500098240      87.837379357277
       184    2       97.390049184976      84.645238230720      66.292973357047
       185    1       99.047311387510      82.987976038661      64.635711665089
       186    1       99.047311574882      86.302500098240      67.950235621116
       187    2       97.390049372348      81.330714171141      69.607497885184
       188    2       97.390049184976      84.645238230720      72.922021841211
       189    1       99.047311387510      82.987976038661      71.264759577143
       190    1       99.047311574882      86.302500098240      74.579283533170
       191    2       97.390049372348      81.330714171141      76.236545797238
       192    2       97.390049184976      84.645238230720      79.551069753265
       193    1       99.047311387510      82.987976038661      77.893807489196
       194    1       99.047311574882      86.302500098240      81.208331445223
       195    2       97.390049372348      81.330714171141      82.865593709292
       196    2       97.390049184976      84.645238230720      86.180117665319
       197    1       99.047311387510      82.987976038661      84.522855401250
       198    1       99.047311574882      86.302500098240      87.837379357277
       199    1        3.731613574882      86.302500098240      67.950235621116
       200    2        2.074351372349      81.330714171141      69.607497885184
       201    2        2.074351184976      84.645238230720      72.922021841211
       202    1        3.731613387510      82.987976038661      71.264759577143
       203    1        3.731613574882      86.302500098240      74.579283533170
       204    2        2.074351372349      81.330714171141      76.236545797238
       205    2        2.074351184976      84.645238230720      79.551069753265
       206    1        3.731613387510      82.987976038661      77.893807489196
       207    1        3.731613574882      86.302500098240      81.208331445223
       208    2        2.074351372349      81.330714171141      82.865593709292
       209    2        2.074351184976      84.645238230720      86.180117665319
       210    1        3.731613387510      82.987976038661      84.522855401250
       211    1        3.731613574882      86.302500098240      87.837379357277
       212    2        6.758653184976      84.645238230720      72.922021841211
       213    1        8.415915574882      86.302500098240      74.579283533170
       214    2        6.758653372349      81.330714171141      76.236545797238
       215    2        6.758653184976      84.645238230720      79.551069753265
       216    1        8.415915387510      82.987976038661      77.893807489196
       217    1        8.415915574882      86.302500098240      81.208331445223
       218    2        6.758653372349      81.330714171141      82.865593709292
       219    2        6.758653184976      84.645238230720      86.180117665319
       220    1        8.415915387510      82.987976038661      84.522855401250
       221    1        8.415915574882      86.302500098240      87.837379357277
       222    1       82.652254574882       0.359224628240      87.837379357277
       223    1       87.336556387510      87.044700568661      77.893807489196
       224    1       87.336556574882       0.359224628240      81.208331445223
       225    2       85.679294372349      85.387438701141      82.865593709292
       226    2       85.679294184976      88.701962760720      86.180117665319
       227    1       87.336556387510      87.044700568661      84.522855401250
       228    1       87.336556574882       0.359224628240      87.837379357277
       229    1       92.020858387510      87.044700568661      71.264759577143
       230    1       92.020858574882       0.359224628240      74.579283533170
       231    2       90.363596372349      85.387438701141      76.236545797238
       232    2       90.363596184976      88.701962760720      79.551069753265
       233    1       92.020858387510      87.044700568661      77.893807489196
       234    1       92.020858574882       0.359224628240      81.208331445223
       235    2       90.363596372349      85.387438701141      82.865593709292
       236    2       90.363596184976      88.701962760720      86.180117665319
       237    1       92.020858387510      87.044700568661      84.522855401250
       238    1       92.020858574882       0.359224628240      87.837379357277
       239    2       95.047898184976      88.701962760720      66.292973357047
       240    1       96.705160387510      87.044700568661      64.635711665089
       241    1       96.705160574882       0.359224628240      67.950235621116
       242    2       95.047898372349      85.387438701141      69.607497885184
       243    2       95.047898184976      88.701962760720      72.922021841211
       244    1       96.705160387510      87.044700568661      71.264759577143
       245    1       96.705160574882       0.359224628240      74.579283533170
       246    2       95.047898372349      85.387438701141      76.236545797238
       247    2       95.047898184976      88.701962760720      79.551069753265
       248    1       96.705160387510      87.044700568661      77.893807489196
       249    1       96.705160574882       0.359224628240      81.208331445223
       250    2       95.047898372349      85.387438701141      82.865593709292
       251    2       95.047898184976      88.701962760720      86.180117665319
       252    1       96.705160387510      87.044700568661      84.522855401250
       253    1       96.705160574882       0.359224628240      87.837379357277
       254    2       99.732200184976      88.701962760720      66.292973357047
       255    1        1.389462574882       0.359224628240      67.950235621116
       256    2       99.732200372349      85.387438701141      69.607497885184
       257    2       99.732200184976      88.701962760720      72.922021841211
       258    1        1.389462387510      87.044700568661      71.264759577143
       259    1        1.389462574882       0.359224628240      74.579283533170
       260    2       99.732200372349      85.387438701141      76.236545797238
       261    2       99.732200184976      88.701962760720      79.551069753265
       262    1        1.389462387510      87.044700568661      77.893807489196
       263    1        1.389462574882       0.359224628240      81.208331445223
       264    2       99.732200372349      85.387438701141      82.865593709292
       265    2       99.732200184976      88.701962760720      86.180117665319
       266    1        1.389462387510      87.044700568661      84.522855401250
       267    1        1.389462574882       0.359224628240      87.837379357277
       268    2        4.416502372349      85.387438701141      69.607497885184
       269    2        4.416502184976      88.701962760720      72.922021841211
       270    1        6.073764387510      87.044700568661      71.264759577143
       271    1        6.073764574882       0.359224628240      74.579283533170
       272    2        4.416502372349      85.387438701141      76.236545797238
       273    2        4.416502184976      88.701962760720      79.551069753265
       274    1        6.073764387510      87.044700568661      77.893807489196
       275    1        6.073764574882       0.359224628240      81.208331445223
       276    2        4.416502372349      85.387438701141      82.865593709292
       277    2        4.416502184976      88.701962760720      86.180117665319
       278    1        6.073764387510      87.044700568661      84.522855401250
       279    1        6.073764574882       0.359224628240      87.837379357277
       280    2       18.469408184976      72.475064640720      86.180117665319
       281    1       20.126670574882      74.132326508240      87.837379357277
       282    2       16.127257372349      73.217265111141      82.865593709292
       283    2       16.127257184976      76.531789170720      86.180117665319
       284    1       17.784519387510      74.874526978661      84.522855401250
       285    1       17.784519574882      78.189051038240      87.837379357277
       286    2       20.811559184976      76.531789170720      86.180117665319
       287    1       22.468821574882      78.189051038240      87.837379357277
       288    2       13.785106184976      80.588513700720      79.551069753265
       289    1       15.442368574882      82.245775568240      81.208331445223
       290    2       13.785106372349      77.273989641141      82.865593709292
       291    2       13.785106184976      80.588513700720      86.180117665319
       292    1       15.442368387510      78.931251508661      84.522855401250
       293    1       15.442368574882      82.245775568240      87.837379357277
       294    2       18.469408372349      77.273989641141      82.865593709292
       295    2       18.469408184976      80.588513700720      86.180117665319
       296    1       20.126670387510      78.931251508661      84.522855401250
       297    1       20.126670574882      82.245775568240      87.837379357277
       298    1       24.810972574882      82.245775568240      87.837379357277
       299    2       11.442955372349      81.330714171141      76.236545797238
       300    2       11.442955184976      84.645238230720      79.551069753265
       301    1       13.100217387510      82.987976038661      77.893807489196
       302    1       13.100217574882      86.302500098240      81.208331445223
       303    2       11.442955372349      81.330714171141      82.865593709292
       304    2       11.442955184976      84.645238230720      86.180117665319
       305    1       13.100217387510      82.987976038661      84.522855401250
       306    1       13.100217574882      86.302500098240      87.837379357277
       307    2       16.127257184976      84.645238230720      79.551069753265
       308    1       17.784519574882      86.302500098240      81.208331445223
       309    2       16.127257372349      81.330714171141      82.865593709292
       310    2       16.127257184976      84.645238230720      86.180117665319
       311    1       17.784519387510      82.987976038661      84.522855401250
       312    1       17.784519574882      86.302500098240      87.837379357277
       313    2       20.811559184976      84.645238230720      86.180117665319
       314    1       22.468821574882      86.302500098240      87.837379357277
       315    2        9.100804184976      88.701962760720      72.922021841211
       316    1       10.758066574882       0.359224628240      74.579283533170
       317    2        9.100804372349      85.387438701141      76.236545797238
       318    2        9.100804184976      88.701962760720      79.551069753265
       319    1       10.758066387510      87.044700568661      77.893807489196
       320    1       10.758066574882       0.359224628240      81.208331445223
       321    2        9.100804372349      85.387438701141      82.865593709292
       322    2        9.100804184976      88.701962760720      86.180117665319
       323    1       10.758066387510      87.044700568661      84.522855401250
       324    1       10.758066574882       0.359224628240      87.837379357277
       325    2       13.785106184976      88.701962760720      79.551069753265
       326    1       15.442368574882       0.359224628240      81.208331445223
       327    2       13.785106372349      85.387438701141      82.865593709292
       328    2       13.785106184976      88.701962760720      86.180117665319
       329    1       15.442368387510      87.044700568661      84.522855401250
       330    1       15.442368574882       0.359224628240      87.837379357277
       331    2       18.469408372349      85.387438701141      82.865593709292
       332    2       18.469408184976      88.701962760720      86.180117665319
       333    1       20.126670387510      87.044700568661      84.522855401250
       334    1       20.126670574882       0.359224628240      87.837379357277
       335    2       23.153710184976      88.701962760720      86.180117665319
       336    1       24.810972574882       0.359224628240      87.837379357277
       337    1       84.994405387510       1.101425098661      84.522855401250
       338    1       84.994405574882       4.415949158240      87.837379357277
       339    2       88.021445184976       2.758687290720      79.551069753265
       340    1       89.678707387510       1.101425098661      77.893807489196
       341    1       89.678707574882       4.415949158240      81.208331445223
       342    2       88.021445372349      89.444163231141      82.865593709292
       343    2       88.021445184976       2.758687290720      86.180117665319
       344    1       89.678707387510       1.101425098661      84.522855401250
       345    1       89.678707574882       4.415949158240      87.837379357277
       346    2       92.705747184976       2.758687290720      72.922021841211
       347    1       94.363009387510       1.101425098661      71.264759577143
       348    1       94.363009574882       4.415949158240      74.579283533170
       349    2       92.705747372349      89.444163231141      76.236545797238
       350    2       92.705747184976       2.758687290720      79.551069753265
       351    1       94.363009387510       1.101425098661      77.893807489196
       352    1       94.363009574882       4.415949158240      81.208331445223
       353    2       92.705747372349      89.444163231141      82.865593709292
       354    2       92.705747184976       2.758687290720      86.180117665319
       355    1       94.363009387510       1.101425098661      84.522855401250
       356    1       94.363009574882       4.415949158240      87.837379357277
       357    1       99.047311574882       4.415949158240      67.950235621116
       358    2       97.390049372349      89.444163231141      69.607497885184
       359    2       97.390049184976       2.758687290720      72.922021841211
       360    1       99.047311387510       1.101425098661      71.264759577143
       361    1       99.047311574882       4.415949158240      74.579283533170
       362    2       97.390049372349      89.444163231141      76.236545797238
       363    2       97.390049184976       2.758687290720      79.551069753265
       364    1       99.047311387510       1.101425098661      77.893807489196
       365    1       99.047311574882       4.415949158240      81.208331445223
       366    2       97.390049372349      89.444163231141      82.865593709292
       367    2       97.390049184976       2.758687290720      86.180117665319
       368    1       99.047311387510       1.101425098661      84.522855401250
       369    1       99.047311574882       4.415949158240      87.837379357277
       370    2        2.074351184976       2.758687290720      66.292973357047