# LAMMPS data file written by OVITO Basic 3.8.4

4 atoms
2 atom types

0.0 3.64 xlo xhi
0.0 3.64 ylo yhi
0.0 3.64 zlo zhi

Masses

1 58.6934  # Ni
2 186.207  # Re

Atoms  # atomic

1 1 0.0 1.82 1.82
2 1 1.82 1.82 0.0
3 1 1.82 0.0 1.82
4 2 0.0 0.0 0.0
