# LAMMPS data file written by OVITO Basic 3.8.4

8 atoms
2 atom types

0.0 5.42732847 xlo xhi
0.0 4.7002043297 ylo yhi
0.0 4.380445 zlo zhi
-2.713664235 0.0 0.0 xy xz yz

Masses

1 58.6934  # Ni
2 186.207  # Re

Atoms  # atomic

1 2 4.4408920985e-16 1.5652056434 1.09511125
2 2 -1.3581563856 3.917601508 1.09511125
3 2 1.3581563856 3.917601508 1.09511125
4 2 2.713664235 3.1349986863 3.28533375
5 2 4.0718206206 0.7826028217 3.28533375
6 2 1.3555078494 0.7826028217 3.28533375
7 1 -2.71366416e-08 3.1334695688 3.28533375
8 1 2.7136642621 1.5667347609 1.09511125
