# LAMMPS data file written by OVITO Basic 3.8.4

2 atoms
2 atom types

0.0 2.95 xlo xhi
0.0 2.95 ylo yhi
0.0 2.95 zlo zhi

Masses

1 58.693  # Ni
2 186.21  # Re

Atoms  # atomic

1 1 0.0 0.0 0.0
2 2 1.475 1.475 1.475
