LAMMPS data file via write_data, version 22 Dec 2022, timestep = 4

8 atoms
2 atom types

0.00010910528806891663 4.147890894711931 xlo xhi
0.00010910528806891663 4.147890894711931 ylo yhi
0.00010910528806891663 4.147890894711931 zlo zhi

Masses

1 51.96
2 14.007

Atoms # atomic

1 1 0.00010910528806891996 0.00010910528806892006 0.00010910528806891968 0 0 0
7 2 0.00010910528806891966 0.00010910528806891977 2.074 0 0 0
8 2 0.00010910528806891984 2.074 0.00010910528806892012 0 0 0
2 1 0.00010910528806891992 2.074 2.074 0 0 0
5 2 2.074 0.00010910528806892 0.00010910528806892019 0 0 0
3 1 2.074 0.00010910528806891976 2.074 0 0 0
4 1 2.074 2.074 0.00010910528806891965 0 0 0
6 2 2.074 2.074 2.074 0 0 0

Velocities

1 0 0 0
7 0 0 0
8 0 0 0
2 0 0 0
5 0 0 0
3 0 0 0
4 0 0 0
6 0 0 0
