LAMMPS data file via write_data, version 22 Dec 2022, timestep = 4

8 atoms
2 atom types

-9.095808330389462e-06 4.14800909580833 xlo xhi
-9.095808330389462e-06 4.14800909580833 ylo yhi
-9.095808330389462e-06 4.14800909580833 zlo zhi

Masses

1 51.96
2 14.007

Atoms # atomic

1 1 -9.095808330389462e-06 -9.095808330389462e-06 -9.095808330389462e-06 0 0 0
7 2 -9.095808330389462e-06 -9.095808330389462e-06 2.074 0 0 0
8 2 -9.095808330389462e-06 2.074 -9.095808330389462e-06 0 0 0
2 1 -9.095808330389462e-06 2.074 2.074 0 0 0
5 2 2.074 -9.095808330389462e-06 -9.095808330389462e-06 0 0 0
3 1 2.074 -9.095808330389462e-06 2.074 0 0 0
4 1 2.074 2.074 -9.095808330389462e-06 0 0 0
6 2 2.074 2.074 2.074 0 0 0

Velocities

1 0 0 0
7 0 0 0
8 0 0 0
2 0 0 0
5 0 0 0
3 0 0 0
4 0 0 0
6 0 0 0
