LAMMPS data file via write_data, version 22 Dec 2022, timestep = 4

8 atoms
2 atom types

0.00012627460485230887 4.147873725395148 xlo xhi
0.00012627460485230887 4.147873725395148 ylo yhi
0.00012627460485230887 4.147873725395148 zlo zhi

Masses

1 51.96
2 14.007

Atoms # atomic

1 1 0.0001262746048524832 0.0001262746048524832 0.0001262746048524832 0 0 0
7 2 0.0001262746048524832 0.0001262746048524832 2.0740000000000003 0 0 0
8 2 0.0001262746048524832 2.0740000000000003 0.0001262746048524832 0 0 0
2 1 0.0001262746048524832 2.0740000000000003 2.0740000000000003 0 0 0
5 2 2.0740000000000003 0.0001262746048524832 0.0001262746048524832 0 0 0
3 1 2.0740000000000003 0.0001262746048524832 2.0740000000000003 0 0 0
4 1 2.0740000000000003 2.0740000000000003 0.0001262746048524832 0 0 0
6 2 2.0740000000000003 2.0740000000000003 2.0740000000000003 0 0 0

Velocities

1 0 0 0
7 0 0 0
8 0 0 0
2 0 0 0
5 0 0 0
3 0 0 0
4 0 0 0
6 0 0 0
