LAMMPS (22 Dec 2022)
  using 1 OpenMP thread(s) per MPI task
Loaded 1 plugins from C:\Program Files\LAMMPS 64-bit 23Jun2022\plugins
Loaded 0 plugins from C:\Program Files\LAMMPS 64-bit 23Jun2022-MPI\plugins
Loaded 1 plugins from C:\Program Files\LAMMPS 64-bit 22Dec2022-MSMPI\plugins
Loaded 1 plugins from C:\Program Files\LAMMPS 64-bit 28Mar2023-MPI\plugins
# Compute elastic constant tensor for a crystal
#
# Written by Aidan Thompson (Sandia, athomps@sandia.gov)
#
#  This script uses the following three include files.
#
#   init.mod      (must be modified for different crystal structures)
# 	       	  Define units, deformation parameters and initial
#		  configuration of the atoms and simulation cell.
#
#
#   potential.mod    (must be modified for different pair styles)
# 		     Define pair style and other attributes
#		     not stored in restart file
#
#
#   displace.mod    (displace.mod should not need to be modified)
# 		    Perform positive and negative box displacements
# 		    in direction ${dir} and size ${up}.
# 		    It uses the resultant changes
#		    in stress to compute one
# 		    row of the elastic stiffness tensor
#
#		    Inputs variables:
#		    	   dir = the Voigt deformation component
#		    		    (1,2,3,4,5,6)
#		    Global constants:
#       	    	   up = the deformation magnitude (strain units)
#       		   cfac = conversion from LAMMPS pressure units to
#               	   output units for elastic constants
#
#
#  To run this on a different system, it should only be necessary to
#  modify the files init.mod and potential.mod. In order to calculate
#  the elastic constants correctly, care must be taken to specify
#  the correct units in init.mod (units, cfac and cunits). It is also
#  important to verify that the minimization of energy w.r.t atom
#  positions in the deformed cell is fully converged.
#  One indication of this is that the elastic constants are insensitive
#  to the choice of the variable ${up} in init.mod. Another is to check
#  the final max and two-norm forces reported in the log file. If you know
#  that minimization is not required, you can set maxiter = 0.0 in
#  init.mod.
#

include init.mod
# NOTE: This script can be modified for different atomic structures,
# units, etc. See in.elastic for more info.
#

# Define the finite deformation size. Try several values of this
# variable to verify that results do not depend on it.
variable up equal 1.0e-6

# Define the amount of random jiggle for atoms
# This prevents atoms from staying on saddle points
variable atomjiggle equal 1.0e-5

# Uncomment one of these blocks, depending on what units
# you are using in LAMMPS and for output

# metal units, elastic constants in eV/A^3
#units		metal
#variable cfac equal 6.2414e-7
#variable cunits string eV/A^3

# metal units, elastic constants in GPa
units		metal
variable cfac equal 1.0e-4
variable cunits string GPa

# real units, elastic constants in GPa
#units		real
#variable cfac equal 1.01325e-4
#variable cunits string GPa

# Define minimization parameters
variable etol equal 0.0
variable ftol equal 1.0e-10
variable maxiter equal 100
variable maxeval equal 1000
variable dmax equal 1.0e-2

# generate the box and atom positions using a diamond lattice

dimension    3
boundary     p p p
read_data    data.in
Reading data file ...
  orthogonal box = (0.00010910529 0.00010910529 0.00010910529) to (4.1478909 4.1478909 4.1478909)
  1 by 2 by 2 MPI processor grid
  reading atoms ...
  8 atoms
  reading velocities ...
  8 velocities
  read_data CPU = 0.001 seconds
#replicate    2 3 4
replicate    2 3 4
Replication is creating a 2x3x4 = 24 times larger system...
  orthogonal box = (0.00010910529 0.00010910529 0.00010910529) to (8.2956727 12.443454 16.591236)
  1 by 2 by 2 MPI processor grid
  192 atoms
  replicate CPU = 0.000 seconds
change_box   all triclinic
Changing box ...
  triclinic box = (0.00010910529 0.00010910529 0.00010910529) to (8.2956727 12.443454 16.591236) with tilt (0 0 0)

# Need to set mass to something, just to satisfy LAMMPS
mass 1 1.0e-20

include potential.mod
# NOTE: This script can be modified for different pair styles
# See in.elastic for more info.

# Choose potential
#-----------------------
#pair_style	sw
#pair_coeff * * Si.sw Si
#-----------------------
#pair_style morse	2.83994742	# D0[eV] a[1/A] r0[A] rc[A], 1NN for BCC
#pair_coeff 1 1	2.1173	1.0202	2.4595	2.6497	#	Fe-Fe
#-----------------------
#pair_style smatb # R0(A)   p       q     A(eV)   xi(eV)  Rcs(A)   Rc(A), 4NN: Rcs=4NN, Rc=(4NN+5NN)/2
#pair_coeff 1 1	2.4802	7.0149	2.3779	0.3144	3.0551	4.033	4.176	#	Co	Co
#-----------------------
#pair_style eam/alloy
#pair_coeff * * AlCrFeCoNi_Zhou04.eam.alloy Fe
#-----------------------
pair_style meam
#pair_coeff * * ./../../library.meam Fe Cr Ni N ./../../FeCrNiN.meam Fe Ni
pair_coeff * * ./../../library.meam Fe Cr Ni N ./../../FeCrNiN.meam Cr N
#pair_coeff * * ./../../library.meam Fe Cr Ni N ./../../FeCrNiN.meam Ni N
#-----------------------

# Setup neighbor style
neighbor 1.0 nsq
neigh_modify once no every 1 delay 0 check yes

# Setup minimization style
min_style	     cg
min_modify	     dmax ${dmax} line quadratic
min_modify	     dmax 0.01 line quadratic

# Setup output
thermo		1
thermo_style custom step temp pe press pxx pyy pzz pxy pxz pyz lx ly lz vol
thermo_modify norm no

# Compute initial state
fix 3 all box/relax  aniso 0.0
minimize ${etol} ${ftol} ${maxiter} ${maxeval}
minimize 0 ${ftol} ${maxiter} ${maxeval}
minimize 0 1e-10 ${maxiter} ${maxeval}
minimize 0 1e-10 100 ${maxeval}
minimize 0 1e-10 100 1000
Neighbor list info ...
  update: every = 1 steps, delay = 0 steps, check = yes
  max neighbors/atom: 2000, page size: 100000
  master list distance cutoff = 6
  ghost atom cutoff = 6
  2 neighbor lists, perpetual/occasional/extra = 2 0 0
  (1) pair meam, perpetual
      attributes: full, newton on
      pair build: full/nsq
      stencil: none
      bin: none
  (2) pair meam, perpetual, half/full from (1)
      attributes: half, newton on
      pair build: halffull/newton
      stencil: none
      bin: none
Per MPI rank memory allocation (min/avg/max) = 9.907 | 9.908 | 9.908 Mbytes
   Step          Temp          PotEng         Press           Pxx            Pyy            Pzz            Pxy            Pxz            Pyz             Lx             Ly             Lz           Volume    
         0   0             -1003.1047      1.6936505e-09  1.7562486e-09  1.6797047e-09  1.6449981e-09  3.8007435e-12  6.5239064e-13  1.9279604e-12  8.2955636      12.443345      16.591127      1712.6118    
         1   0             -1003.1047      3.9231939e-10  6.3241645e-10  9.3347039e-12  5.35207e-10    1.79164e-12   -2.3077102e-12  3.5670513e-12  8.2955636      12.443345      16.591127      1712.6118    
Loop time of 0.00332825 on 4 procs for 1 steps with 192 atoms

0.0% CPU use with 4 MPI tasks x 1 OpenMP threads

Minimization stats:
  Stopping criterion = force tolerance
  Energy initial, next-to-last, final = 
     -1003.10473054375  -1003.10473054375  -1003.10473054375
  Force two-norm initial, final = 3.1375169e-12 8.9557198e-13
  Force max component initial, final = 1.8773039e-12 6.7600786e-13
  Final line search alpha, max atom move = 1 6.7600786e-13
  Iterations, force evaluations = 1 2

MPI task timing breakdown:
Section |  min time  |  avg time  |  max time  |%varavg| %total
---------------------------------------------------------------
Pair    | 0.003126   | 0.0031375  | 0.003152   |   0.0 | 94.27
Neigh   | 0          | 0          | 0          |   0.0 |  0.00
Comm    | 7.8e-05    | 9.4e-05    | 0.000106   |   0.0 |  2.82
Output  | 0          | 0          | 0          |   0.0 |  0.00
Modify  | 0          | 0          | 0          |   0.0 |  0.00
Other   |            | 9.675e-05  |            |       |  2.91

Nlocal:             48 ave          48 max          48 min
Histogram: 4 0 0 0 0 0 0 0 0 0
Nghost:            600 ave         600 max         600 min
Histogram: 4 0 0 0 0 0 0 0 0 0
Neighs:           2208 ave        2216 max        2200 min
Histogram: 1 0 0 0 0 2 0 0 0 1
FullNghs:         4416 ave        4416 max        4416 min
Histogram: 4 0 0 0 0 0 0 0 0 0

Total # of neighbors = 17664
Ave neighs/atom = 92
Neighbor list builds = 0
Dangerous builds = 0

variable tmp equal pxx
variable pxx0 equal ${tmp}
variable pxx0 equal 6.32416453192673e-10
variable tmp equal pyy
variable pyy0 equal ${tmp}
variable pyy0 equal 9.33470391684781e-12
variable tmp equal pzz
variable pzz0 equal ${tmp}
variable pzz0 equal 5.35207001763747e-10
variable tmp equal pyz
variable pyz0 equal ${tmp}
variable pyz0 equal 3.56705132288447e-12
variable tmp equal pxz
variable pxz0 equal ${tmp}
variable pxz0 equal -2.30771018250306e-12
variable tmp equal pxy
variable pxy0 equal ${tmp}
variable pxy0 equal 1.79163997291377e-12

variable tmp equal lx
variable lx0 equal ${tmp}
variable lx0 equal 8.29556357884772
variable tmp equal ly
variable ly0 equal ${tmp}
variable ly0 equal 12.4433453682716
variable tmp equal lz
variable lz0 equal ${tmp}
variable lz0 equal 16.5911271576954

# These formulas define the derivatives w.r.t. strain components
# Constants uses $, variables use v_
variable d1 equal -(v_pxx1-${pxx0})/(v_delta/v_len0)*${cfac}
variable d1 equal -(v_pxx1-6.32416453192673e-10)/(v_delta/v_len0)*${cfac}
variable d1 equal -(v_pxx1-6.32416453192673e-10)/(v_delta/v_len0)*0.0001
variable d2 equal -(v_pyy1-${pyy0})/(v_delta/v_len0)*${cfac}
variable d2 equal -(v_pyy1-9.33470391684781e-12)/(v_delta/v_len0)*${cfac}
variable d2 equal -(v_pyy1-9.33470391684781e-12)/(v_delta/v_len0)*0.0001
variable d3 equal -(v_pzz1-${pzz0})/(v_delta/v_len0)*${cfac}
variable d3 equal -(v_pzz1-5.35207001763747e-10)/(v_delta/v_len0)*${cfac}
variable d3 equal -(v_pzz1-5.35207001763747e-10)/(v_delta/v_len0)*0.0001
variable d4 equal -(v_pyz1-${pyz0})/(v_delta/v_len0)*${cfac}
variable d4 equal -(v_pyz1-3.56705132288447e-12)/(v_delta/v_len0)*${cfac}
variable d4 equal -(v_pyz1-3.56705132288447e-12)/(v_delta/v_len0)*0.0001
variable d5 equal -(v_pxz1-${pxz0})/(v_delta/v_len0)*${cfac}
variable d5 equal -(v_pxz1--2.30771018250306e-12)/(v_delta/v_len0)*${cfac}
variable d5 equal -(v_pxz1--2.30771018250306e-12)/(v_delta/v_len0)*0.0001
variable d6 equal -(v_pxy1-${pxy0})/(v_delta/v_len0)*${cfac}
variable d6 equal -(v_pxy1-1.79163997291377e-12)/(v_delta/v_len0)*${cfac}
variable d6 equal -(v_pxy1-1.79163997291377e-12)/(v_delta/v_len0)*0.0001

displace_atoms all random ${atomjiggle} ${atomjiggle} ${atomjiggle} 87287 units box
displace_atoms all random 1e-05 ${atomjiggle} ${atomjiggle} 87287 units box
displace_atoms all random 1e-05 1e-05 ${atomjiggle} 87287 units box
displace_atoms all random 1e-05 1e-05 1e-05 87287 units box
Displacing atoms ...

# Write restart
unfix 3
write_restart restart.equil
System init for write_restart ...

# uxx Perturbation

variable dir equal 1
include displace.mod
# NOTE: This script should not need to be
# modified. See in.elastic for more info.
#
# Find which reference length to use

if "${dir} == 1" then    "variable len0 equal ${lx0}"
variable len0 equal ${lx0}
variable len0 equal 8.29556357884772
if "${dir} == 2" then    "variable len0 equal ${ly0}"
if "${dir} == 3" then    "variable len0 equal ${lz0}"
if "${dir} == 4" then    "variable len0 equal ${lz0}"
if "${dir} == 5" then    "variable len0 equal ${lz0}"
if "${dir} == 6" then    "variable len0 equal ${ly0}"

# Reset box and simulation parameters

clear
  using 1 OpenMP thread(s) per MPI task
Loaded 1 plugins from C:\Program Files\LAMMPS 64-bit 23Jun2022\plugins
Loaded 0 plugins from C:\Program Files\LAMMPS 64-bit 23Jun2022-MPI\plugins
Loaded 1 plugins from C:\Program Files\LAMMPS 64-bit 22Dec2022-MSMPI\plugins
Loaded 1 plugins from C:\Program Files\LAMMPS 64-bit 28Mar2023-MPI\plugins
box tilt large

The 'box' command has been removed and will be ignored

read_restart restart.equil
Reading restart file ...
  restart file = 22 Dec 2022, LAMMPS = 22 Dec 2022
  restoring atom style atomic from restart
  triclinic box = (0.00010910529 0.00010910529 0.00010910529) to (8.2956727 12.443454 16.591236) with tilt (0 0 0)
  1 by 2 by 2 MPI processor grid
  pair style meam stores no restart info
  192 atoms
  read_restart CPU = 0.000 seconds
include potential.mod
# NOTE: This script can be modified for different pair styles
# See in.elastic for more info.

# Choose potential
#-----------------------
#pair_style	sw
#pair_coeff * * Si.sw Si
#-----------------------
#pair_style morse	2.83994742	# D0[eV] a[1/A] r0[A] rc[A], 1NN for BCC
#pair_coeff 1 1	2.1173	1.0202	2.4595	2.6497	#	Fe-Fe
#-----------------------
#pair_style smatb # R0(A)   p       q     A(eV)   xi(eV)  Rcs(A)   Rc(A), 4NN: Rcs=4NN, Rc=(4NN+5NN)/2
#pair_coeff 1 1	2.4802	7.0149	2.3779	0.3144	3.0551	4.033	4.176	#	Co	Co
#-----------------------
#pair_style eam/alloy
#pair_coeff * * AlCrFeCoNi_Zhou04.eam.alloy Fe
#-----------------------
pair_style meam
#pair_coeff * * ./../../library.meam Fe Cr Ni N ./../../FeCrNiN.meam Fe Ni
pair_coeff * * ./../../library.meam Fe Cr Ni N ./../../FeCrNiN.meam Cr N
#pair_coeff * * ./../../library.meam Fe Cr Ni N ./../../FeCrNiN.meam Ni N
#-----------------------

# Setup neighbor style
neighbor 1.0 nsq
neigh_modify once no every 1 delay 0 check yes

# Setup minimization style
min_style	     cg
min_modify	     dmax ${dmax} line quadratic
min_modify	     dmax 0.01 line quadratic

# Setup output
thermo		1
thermo_style custom step temp pe press pxx pyy pzz pxy pxz pyz lx ly lz vol
thermo_modify norm no

# Negative deformation

variable delta equal -${up}*${len0}
variable delta equal -1e-06*${len0}
variable delta equal -1e-06*8.29556357884772
variable deltaxy equal -${up}*xy
variable deltaxy equal -1e-06*xy
variable deltaxz equal -${up}*xz
variable deltaxz equal -1e-06*xz
variable deltayz equal -${up}*yz
variable deltayz equal -1e-06*yz
if "${dir} == 1" then    "change_box all x delta 0 ${delta} xy delta ${deltaxy} xz delta ${deltaxz} remap units box"
change_box all x delta 0 ${delta} xy delta ${deltaxy} xz delta ${deltaxz} remap units box
change_box all x delta 0 -8.29556357884772e-06 xy delta ${deltaxy} xz delta ${deltaxz} remap units box
change_box all x delta 0 -8.29556357884772e-06 xy delta -0 xz delta ${deltaxz} remap units box
change_box all x delta 0 -8.29556357884772e-06 xy delta -0 xz delta -0 remap units box
Changing box ...
  triclinic box = (0.00010910529 0.00010910529 0.00010910529) to (8.2956644 12.443454 16.591236) with tilt (0 0 0)
  triclinic box = (0.00010910529 0.00010910529 0.00010910529) to (8.2956644 12.443454 16.591236) with tilt (0 0 0)
  triclinic box = (0.00010910529 0.00010910529 0.00010910529) to (8.2956644 12.443454 16.591236) with tilt (0 0 0)
if "${dir} == 2" then    "change_box all y delta 0 ${delta} yz delta ${deltayz} remap units box"
if "${dir} == 3" then    "change_box all z delta 0 ${delta} remap units box"
if "${dir} == 4" then    "change_box all yz delta ${delta} remap units box"
if "${dir} == 5" then    "change_box all xz delta ${delta} remap units box"
if "${dir} == 6" then    "change_box all xy delta ${delta} remap units box"

# Relax atoms positions

minimize ${etol} ${ftol} ${maxiter} ${maxeval}
minimize 0 ${ftol} ${maxiter} ${maxeval}
minimize 0 1e-10 ${maxiter} ${maxeval}
minimize 0 1e-10 100 ${maxeval}
minimize 0 1e-10 100 1000
Neighbor list info ...
  update: every = 1 steps, delay = 0 steps, check = yes
  max neighbors/atom: 2000, page size: 100000
  master list distance cutoff = 6
  ghost atom cutoff = 6
  2 neighbor lists, perpetual/occasional/extra = 2 0 0
  (1) pair meam, perpetual
      attributes: full, newton on
      pair build: full/nsq
      stencil: none
      bin: none
  (2) pair meam, perpetual, half/full from (1)
      attributes: half, newton on
      pair build: halffull/newton
      stencil: none
      bin: none
Per MPI rank memory allocation (min/avg/max) = 9.875 | 9.879 | 9.881 Mbytes
   Step          Temp          PotEng         Press           Pxx            Pyy            Pzz            Pxy            Pxz            Pyz             Lx             Ly             Lz           Volume    
         1   0             -1003.1047      3.3330714      5.0926436      2.4533014      2.4532692     -9.0949992e-05 -1.200074e-05   2.7959983e-05  8.2955553      12.443345      16.591127      1712.6101    
         2   0             -1003.1047      3.3328015      5.0923535      2.4530134      2.4530377     -5.4062429e-06 -1.0596084e-05  7.6585696e-06  8.2955553      12.443345      16.591127      1712.6101    
         3   0             -1003.1047      3.332752       5.0923041      2.452973       2.452979      -3.1439143e-06 -7.8534718e-06 -6.0561634e-07  8.2955553      12.443345      16.591127      1712.6101    
         4   0             -1003.1047      3.3327441      5.0922987      2.4529655      2.4529681     -3.5141579e-06 -4.1630055e-06  5.7654053e-07  8.2955553      12.443345      16.591127      1712.6101    
         5   0             -1003.1047      3.3327411      5.0922953      2.452964       2.452964      -6.5803279e-07 -1.4941936e-06 -1.4504545e-07  8.2955553      12.443345      16.591127      1712.6101    
         6   0             -1003.1047      3.3327401      5.092294       2.4529631      2.4529632      1.8679927e-07 -5.5006639e-08  3.7643743e-07  8.2955553      12.443345      16.591127      1712.6101    
         7   0             -1003.1047      3.33274        5.0922938      2.452963       2.4529631      9.8978029e-08  1.8264556e-07  2.8055318e-07  8.2955553      12.443345      16.591127      1712.6101    
         8   0             -1003.1047      3.3327401      5.0922938      2.4529632      2.4529632      9.1146789e-09  1.2465375e-07  1.5737952e-07  8.2955553      12.443345      16.591127      1712.6101    
         9   0             -1003.1047      3.3327402      5.0922939      2.4529633      2.4529633      3.1848795e-08  6.977069e-08   1.0991799e-07  8.2955553      12.443345      16.591127      1712.6101    
        10   0             -1003.1047      3.3327402      5.0922939      2.4529633      2.4529633      6.310692e-08   1.0059805e-07  4.6224181e-08  8.2955553      12.443345      16.591127      1712.6101    
        11   0             -1003.1047      3.3327402      5.092294       2.4529634      2.4529634      6.1192616e-08  6.6920165e-08  7.2975329e-10  8.2955553      12.443345      16.591127      1712.6101    
        12   0             -1003.1047      3.3327402      5.092294       2.4529634      2.4529634      2.9848544e-08  3.2776453e-08 -5.5420275e-09  8.2955553      12.443345      16.591127      1712.6101    
        13   0             -1003.1047      3.3327403      5.092294       2.4529634      2.4529634      2.4104696e-08  2.0997289e-08 -1.0236688e-09  8.2955553      12.443345      16.591127      1712.6101    
        14   0             -1003.1047      3.3327403      5.092294       2.4529634      2.4529634      3.1419321e-08  1.341485e-08   7.8276757e-09  8.2955553      12.443345      16.591127      1712.6101    
        15   0             -1003.1047      3.3327403      5.092294       2.4529634      2.4529634      2.3690074e-08  6.4825867e-09  3.7980102e-09  8.2955553      12.443345      16.591127      1712.6101    
        16   0             -1003.1047      3.3327403      5.092294       2.4529634      2.4529634      1.5576689e-08  3.1740899e-09  1.531559e-09   8.2955553      12.443345      16.591127      1712.6101    
        17   0             -1003.1047      3.3327403      5.092294       2.4529634      2.4529634      8.3957372e-09  3.6927067e-09  1.6972516e-09  8.2955553      12.443345      16.591127      1712.6101    
        18   0             -1003.1047      3.3327403      5.092294       2.4529634      2.4529634      6.4322017e-09  2.6244837e-09  2.0587639e-09  8.2955553      12.443345      16.591127      1712.6101    
        19   0             -1003.1047      3.3327403      5.092294       2.4529634      2.4529634      6.347605e-09   6.2499039e-10  1.6330273e-09  8.2955553      12.443345      16.591127      1712.6101    
        20   0             -1003.1047      3.3327403      5.092294       2.4529634      2.4529634      3.1713098e-09 -2.2753732e-10  9.1834848e-10  8.2955553      12.443345      16.591127      1712.6101    
        21   0             -1003.1047      3.3327403      5.092294       2.4529634      2.4529634      1.5971578e-09 -6.2012561e-10  6.0699746e-10  8.2955553      12.443345      16.591127      1712.6101    
        22   0             -1003.1047      3.3327403      5.092294       2.4529634      2.4529634      1.2944482e-09  1.6637882e-10  1.4970278e-11  8.2955553      12.443345      16.591127      1712.6101    
        23   0             -1003.1047      3.3327403      5.092294       2.4529634      2.4529634      7.5939645e-10  4.8618459e-10  3.8014017e-11  8.2955553      12.443345      16.591127      1712.6101    
        24   0             -1003.1047      3.3327403      5.092294       2.4529634      2.4529634      5.4715182e-10  3.7597755e-10  6.5638715e-11  8.2955553      12.443345      16.591127      1712.6101    
        25   0             -1003.1047      3.3327403      5.092294       2.4529634      2.4529634      3.4877293e-10  1.6748018e-10 -1.4629434e-11  8.2955553      12.443345      16.591127      1712.6101    
        26   0             -1003.1047      3.3327403      5.092294       2.4529634      2.4529634      2.8858415e-10  1.0755607e-10 -6.5646981e-12  8.2955553      12.443345      16.591127      1712.6101    
        27   0             -1003.1047      3.3327403      5.092294       2.4529634      2.4529634      1.0531738e-10  1.4068744e-10  3.2567753e-11  8.2955553      12.443345      16.591127      1712.6101    
        28   0             -1003.1047      3.3327403      5.092294       2.4529634      2.4529634      2.7523772e-11  5.8004431e-11  7.3862497e-11  8.2955553      12.443345      16.591127      1712.6101    
        29   0             -1003.1047      3.3327403      5.092294       2.4529634      2.4529634      1.1788483e-11  1.1857712e-11  3.6498293e-11  8.2955553      12.443345      16.591127      1712.6101    
        30   0             -1003.1047      3.3327403      5.092294       2.4529634      2.4529634     -1.4592792e-11 -8.4957398e-12  4.6407461e-12  8.2955553      12.443345      16.591127      1712.6101    
        31   0             -1003.1047      3.3327403      5.092294       2.4529634      2.4529634      3.4794202e-12  3.6136656e-12 -5.4663764e-12  8.2955553      12.443345      16.591127      1712.6101    
        32   0             -1003.1047      3.3327403      5.092294       2.4529634      2.4529634      7.2704303e-12  7.5438226e-12 -4.0506477e-12  8.2955553      12.443345      16.591127      1712.6101    
        33   0             -1003.1047      3.3327403      5.092294       2.4529634      2.4529634      4.829643e-12   1.3135634e-11 -6.2669049e-12  8.2955553      12.443345      16.591127      1712.6101    
        34   0             -1003.1047      3.3327403      5.092294       2.4529634      2.4529634     -9.3476962e-13 -5.3614138e-13  2.9142282e-12  8.2955553      12.443345      16.591127      1712.6101    
        35   0             -1003.1047      3.3327403      5.092294       2.4529634      2.4529634      7.3742936e-12  1.4972205e-11  1.3552659e-11  8.2955553      12.443345      16.591127      1712.6101    
        36   0             -1003.1047      3.3327403      5.092294       2.4529634      2.4529634      6.7511139e-13  9.9814255e-12  9.8109596e-12  8.2955553      12.443345      16.591127      1712.6101    
        37   0             -1003.1047      3.3327403      5.092294       2.4529634      2.4529634      8.6725848e-12 -4.8666967e-12  1.1902995e-11  8.2955553      12.443345      16.591127      1712.6101    
        38   0             -1003.1047      3.3327403      5.092294       2.4529634      2.4529634      8.7245164e-12  1.3726786e-11 -6.6780707e-12  8.2955553      12.443345      16.591127      1712.6101    
        39   0             -1003.1047      3.3327403      5.092294       2.4529634      2.4529634     -4.1545316e-13 -4.9099317e-12 -1.1611527e-11  8.2955553      12.443345      16.591127      1712.6101    
        40   0             -1003.1047      3.3327403      5.092294       2.4529634      2.4529634      5.6605493e-12  6.7171675e-12 -2.7278054e-12  8.2955553      12.443345      16.591127      1712.6101    
        41   0             -1003.1047      3.3327403      5.092294       2.4529634      2.4529634     -2.336924e-12   8.7038135e-12 -4.5951969e-12  8.2955553      12.443345      16.591127      1712.6101    
        42   0             -1003.1047      3.3327403      5.092294       2.4529634      2.4529634      2.2330608e-12 -9.3448039e-12  2.3792384e-12  8.2955553      12.443345      16.591127      1712.6101    
        43   0             -1003.1047      3.3327403      5.092294       2.4529634      2.4529634     -1.0853714e-11 -1.1348495e-11 -1.6317222e-12  8.2955553      12.443345      16.591127      1712.6101    
        44   0             -1003.1047      3.3327403      5.092294       2.4529634      2.4529634      1.0178602e-11  8.1441251e-12 -5.0918026e-12  8.2955553      12.443345      16.591127      1712.6101    
        45   0             -1003.1047      3.3327403      5.092294       2.4529634      2.4529634      4.7257797e-12  1.754154e-13  -8.3468025e-12  8.2955553      12.443345      16.591127      1712.6101    
        46   0             -1003.1047      3.3327403      5.092294       2.4529634      2.4529634      5.1931645e-14 -2.2473571e-12 -5.0155813e-12  8.2955553      12.443345      16.591127      1712.6101    
        47   0             -1003.1047      3.3327403      5.092294       2.4529634      2.4529634      1.5994947e-11  2.0610521e-11 -1.01809e-11    8.2955553      12.443345      16.591127      1712.6101    
        48   0             -1003.1047      3.3327403      5.092294       2.4529634      2.4529634      1.7500964e-11  1.3728268e-11  2.1335562e-12  8.2955553      12.443345      16.591127      1712.6101    
        49   0             -1003.1047      3.3327403      5.092294       2.4529634      2.4529634     -6.7511139e-12  2.8222432e-12 -6.2245945e-12  8.2955553      12.443345      16.591127      1712.6101    
Loop time of 0.115588 on 4 procs for 48 steps with 192 atoms

67.6% CPU use with 4 MPI tasks x 1 OpenMP threads

Minimization stats:
  Stopping criterion = force tolerance
  Energy initial, next-to-last, final = 
     -1003.10473047775  -1003.10473054103  -1003.10473054103
  Force two-norm initial, final = 0.0011074582 8.0625513e-11
  Force max component initial, final = 0.00014459731 1.1285754e-11
  Final line search alpha, max atom move = 1 1.1285754e-11
  Iterations, force evaluations = 48 96

MPI task timing breakdown:
Section |  min time  |  avg time  |  max time  |%varavg| %total
---------------------------------------------------------------
Pair    | 0.10891    | 0.11066    | 0.11211    |   0.4 | 95.74
Neigh   | 0          | 0          | 0          |   0.0 |  0.00
Comm    | 0.002345   | 0.0037812  | 0.005514   |   2.3 |  3.27
Output  | 0.000502   | 0.000542   | 0.000647   |   0.0 |  0.47
Modify  | 0          | 0          | 0          |   0.0 |  0.00
Other   |            | 0.0006038  |            |       |  0.52

Nlocal:             48 ave          50 max          46 min
Histogram: 2 0 0 0 0 0 0 0 0 2
Nghost:            600 ave         602 max         598 min
Histogram: 2 0 0 0 0 0 0 0 0 2
Neighs:           2208 ave        2332 max        2097 min
Histogram: 1 1 0 0 0 0 0 1 0 1
FullNghs:         4416 ave        4600 max        4232 min
Histogram: 2 0 0 0 0 0 0 0 0 2

Total # of neighbors = 17664
Ave neighs/atom = 92
Neighbor list builds = 0
Dangerous builds = 0

# Obtain new stress tensor

variable tmp equal pxx
variable pxx1 equal ${tmp}
variable pxx1 equal 5.09229403140181
variable tmp equal pyy
variable pyy1 equal ${tmp}
variable pyy1 equal 2.45296341175062
variable tmp equal pzz
variable pzz1 equal ${tmp}
variable pzz1 equal 2.45296341214487
variable tmp equal pxy
variable pxy1 equal ${tmp}
variable pxy1 equal -6.75111389542664e-12
variable tmp equal pxz
variable pxz1 equal ${tmp}
variable pxz1 equal 2.8222431592237e-12
variable tmp equal pyz
variable pyz1 equal ${tmp}
variable pyz1 equal -6.22459446037914e-12

# Compute elastic constant from pressure tensor

variable C1neg equal ${d1}
variable C1neg equal 509.229403076939
variable C2neg equal ${d2}
variable C2neg equal 245.296341174129
variable C3neg equal ${d3}
variable C3neg equal 245.296341160966
variable C4neg equal ${d4}
variable C4neg equal -9.79164578326361e-10
variable C5neg equal ${d5}
variable C5neg equal 5.12995334172676e-10
variable C6neg equal ${d6}
variable C6neg equal -8.54275386834041e-10

# Reset box and simulation parameters

clear
  using 1 OpenMP thread(s) per MPI task
Loaded 1 plugins from C:\Program Files\LAMMPS 64-bit 23Jun2022\plugins
Loaded 0 plugins from C:\Program Files\LAMMPS 64-bit 23Jun2022-MPI\plugins
Loaded 1 plugins from C:\Program Files\LAMMPS 64-bit 22Dec2022-MSMPI\plugins
Loaded 1 plugins from C:\Program Files\LAMMPS 64-bit 28Mar2023-MPI\plugins
box tilt large

The 'box' command has been removed and will be ignored

read_restart restart.equil
Reading restart file ...
  restart file = 22 Dec 2022, LAMMPS = 22 Dec 2022
  restoring atom style atomic from restart
  triclinic box = (0.00010910529 0.00010910529 0.00010910529) to (8.2956727 12.443454 16.591236) with tilt (0 0 0)
  1 by 2 by 2 MPI processor grid
  pair style meam stores no restart info
  192 atoms
  read_restart CPU = 0.000 seconds
include potential.mod
# NOTE: This script can be modified for different pair styles
# See in.elastic for more info.

# Choose potential
#-----------------------
#pair_style	sw
#pair_coeff * * Si.sw Si
#-----------------------
#pair_style morse	2.83994742	# D0[eV] a[1/A] r0[A] rc[A], 1NN for BCC
#pair_coeff 1 1	2.1173	1.0202	2.4595	2.6497	#	Fe-Fe
#-----------------------
#pair_style smatb # R0(A)   p       q     A(eV)   xi(eV)  Rcs(A)   Rc(A), 4NN: Rcs=4NN, Rc=(4NN+5NN)/2
#pair_coeff 1 1	2.4802	7.0149	2.3779	0.3144	3.0551	4.033	4.176	#	Co	Co
#-----------------------
#pair_style eam/alloy
#pair_coeff * * AlCrFeCoNi_Zhou04.eam.alloy Fe
#-----------------------
pair_style meam
#pair_coeff * * ./../../library.meam Fe Cr Ni N ./../../FeCrNiN.meam Fe Ni
pair_coeff * * ./../../library.meam Fe Cr Ni N ./../../FeCrNiN.meam Cr N
#pair_coeff * * ./../../library.meam Fe Cr Ni N ./../../FeCrNiN.meam Ni N
#-----------------------

# Setup neighbor style
neighbor 1.0 nsq
neigh_modify once no every 1 delay 0 check yes

# Setup minimization style
min_style	     cg
min_modify	     dmax ${dmax} line quadratic
min_modify	     dmax 0.01 line quadratic

# Setup output
thermo		1
thermo_style custom step temp pe press pxx pyy pzz pxy pxz pyz lx ly lz vol
thermo_modify norm no

# Positive deformation

variable delta equal ${up}*${len0}
variable delta equal 1e-06*${len0}
variable delta equal 1e-06*8.29556357884772
variable deltaxy equal ${up}*xy
variable deltaxy equal 1e-06*xy
variable deltaxz equal ${up}*xz
variable deltaxz equal 1e-06*xz
variable deltayz equal ${up}*yz
variable deltayz equal 1e-06*yz
if "${dir} == 1" then    "change_box all x delta 0 ${delta} xy delta ${deltaxy} xz delta ${deltaxz} remap units box"
change_box all x delta 0 ${delta} xy delta ${deltaxy} xz delta ${deltaxz} remap units box
change_box all x delta 0 8.29556357884772e-06 xy delta ${deltaxy} xz delta ${deltaxz} remap units box
change_box all x delta 0 8.29556357884772e-06 xy delta 0 xz delta ${deltaxz} remap units box
change_box all x delta 0 8.29556357884772e-06 xy delta 0 xz delta 0 remap units box
Changing box ...
  triclinic box = (0.00010910529 0.00010910529 0.00010910529) to (8.295681 12.443454 16.591236) with tilt (0 0 0)
  triclinic box = (0.00010910529 0.00010910529 0.00010910529) to (8.295681 12.443454 16.591236) with tilt (0 0 0)
  triclinic box = (0.00010910529 0.00010910529 0.00010910529) to (8.295681 12.443454 16.591236) with tilt (0 0 0)
if "${dir} == 2" then    "change_box all y delta 0 ${delta} yz delta ${deltayz} remap units box"
if "${dir} == 3" then    "change_box all z delta 0 ${delta} remap units box"
if "${dir} == 4" then    "change_box all yz delta ${delta} remap units box"
if "${dir} == 5" then    "change_box all xz delta ${delta} remap units box"
if "${dir} == 6" then    "change_box all xy delta ${delta} remap units box"

# Relax atoms positions

minimize ${etol} ${ftol} ${maxiter} ${maxeval}
minimize 0 ${ftol} ${maxiter} ${maxeval}
minimize 0 1e-10 ${maxiter} ${maxeval}
minimize 0 1e-10 100 ${maxeval}
minimize 0 1e-10 100 1000
Neighbor list info ...
  update: every = 1 steps, delay = 0 steps, check = yes
  max neighbors/atom: 2000, page size: 100000
  master list distance cutoff = 6
  ghost atom cutoff = 6
  2 neighbor lists, perpetual/occasional/extra = 2 0 0
  (1) pair meam, perpetual
      attributes: full, newton on
      pair build: full/nsq
      stencil: none
      bin: none
  (2) pair meam, perpetual, half/full from (1)
      attributes: half, newton on
      pair build: halffull/newton
      stencil: none
      bin: none
Per MPI rank memory allocation (min/avg/max) = 9.875 | 9.879 | 9.881 Mbytes
   Step          Temp          PotEng         Press           Pxx            Pyy            Pzz            Pxy            Pxz            Pyz             Lx             Ly             Lz           Volume    
         1   0             -1003.1047     -3.3323761     -5.0918719     -2.4526121     -2.4526443     -9.0949366e-05 -1.2000847e-05  2.7959934e-05  8.2955719      12.443345      16.591127      1712.6136    
         2   0             -1003.1047     -3.332646      -5.092162      -2.4529001     -2.4528758     -5.4065178e-06 -1.0596023e-05  7.6581139e-06  8.2955719      12.443345      16.591127      1712.6136    
         3   0             -1003.1047     -3.3326955     -5.0922114     -2.4529405     -2.4529345     -3.1438456e-06 -7.8533952e-06 -6.0588947e-07  8.2955719      12.443345      16.591127      1712.6136    
         4   0             -1003.1047     -3.3327034     -5.0922168     -2.452948      -2.4529454     -3.5140818e-06 -4.1628722e-06  5.7655699e-07  8.2955719      12.443345      16.591127      1712.6136    
         5   0             -1003.1047     -3.3327064     -5.0922202     -2.4529495     -2.4529495     -6.580134e-07  -1.4941832e-06 -1.4506498e-07  8.2955719      12.443345      16.591127      1712.6136    
         6   0             -1003.1047     -3.3327074     -5.0922215     -2.4529505     -2.4529503      1.8681069e-07 -5.5025268e-08  3.7643341e-07  8.2955719      12.443345      16.591127      1712.6136    
         7   0             -1003.1047     -3.3327075     -5.0922217     -2.4529505     -2.4529504      9.8980999e-08  1.8265836e-07  2.8051584e-07  8.2955719      12.443345      16.591127      1712.6136    
         8   0             -1003.1047     -3.3327074     -5.0922216     -2.4529504     -2.4529503      9.1078057e-09  1.2464212e-07  1.5736199e-07  8.2955719      12.443345      16.591127      1712.6136    
         9   0             -1003.1047     -3.3327073     -5.0922215     -2.4529502     -2.4529502      3.1846395e-08  6.9767218e-08  1.0992035e-07  8.2955719      12.443345      16.591127      1712.6136    
        10   0             -1003.1047     -3.3327073     -5.0922215     -2.4529502     -2.4529502      6.3101756e-08  1.0062261e-07  4.6225961e-08  8.2955719      12.443345      16.591127      1712.6136    
        11   0             -1003.1047     -3.3327073     -5.0922215     -2.4529502     -2.4529502      6.1208852e-08  6.691616e-08   7.1555137e-10  8.2955719      12.443345      16.591127      1712.6136    
        12   0             -1003.1047     -3.3327073     -5.0922215     -2.4529501     -2.4529501      2.9857936e-08  3.2752765e-08 -5.5467097e-09  8.2955719      12.443345      16.591127      1712.6136    
        13   0             -1003.1047     -3.3327072     -5.0922215     -2.4529501     -2.4529501      2.4114723e-08  2.1016339e-08 -1.0158363e-09  8.2955719      12.443345      16.591127      1712.6136    
        14   0             -1003.1047     -3.3327072     -5.0922215     -2.4529501     -2.4529501      3.1419881e-08  1.3411849e-08  7.8431178e-09  8.2955719      12.443345      16.591127      1712.6136    
        15   0             -1003.1047     -3.3327072     -5.0922214     -2.4529501     -2.4529501      2.3672266e-08  6.5093782e-09  3.7873006e-09  8.2955719      12.443345      16.591127      1712.6136    
        16   0             -1003.1047     -3.3327072     -5.0922214     -2.4529501     -2.4529501      1.559686e-08   3.1589278e-09  1.5279836e-09  8.2955719      12.443345      16.591127      1712.6136    
        17   0             -1003.1047     -3.3327072     -5.0922214     -2.4529501     -2.4529501      8.4046007e-09  3.6906274e-09  1.6996925e-09  8.2955719      12.443345      16.591127      1712.6136    
        18   0             -1003.1047     -3.3327072     -5.0922214     -2.4529501     -2.4529501      6.4482876e-09  2.6238858e-09  2.0451223e-09  8.2955719      12.443345      16.591127      1712.6136    
        19   0             -1003.1047     -3.3327072     -5.0922214     -2.4529501     -2.4529501      6.3499292e-09  6.135916e-10   1.614391e-09   8.2955719      12.443345      16.591127      1712.6136    
        20   0             -1003.1047     -3.3327072     -5.0922214     -2.4529501     -2.4529501      3.1704206e-09 -2.2417254e-10  9.1021244e-10  8.2955719      12.443345      16.591127      1712.6136    
        21   0             -1003.1047     -3.3327072     -5.0922214     -2.4529501     -2.4529501      1.5895726e-09 -6.2256627e-10  5.9636907e-10  8.2955719      12.443345      16.591127      1712.6136    
        22   0             -1003.1047     -3.3327072     -5.0922214     -2.4529501     -2.4529501      1.2900834e-09  1.6996847e-10  2.2658474e-11  8.2955719      12.443345      16.591127      1712.6136    
        23   0             -1003.1047     -3.3327072     -5.0922214     -2.4529501     -2.4529501      7.7606496e-10  5.0303943e-10  3.8338226e-11  8.2955719      12.443345      16.591127      1712.6136    
        24   0             -1003.1047     -3.3327072     -5.0922214     -2.4529501     -2.4529501      5.4419062e-10  3.7340768e-10  7.8079708e-11  8.2955719      12.443345      16.591127      1712.6136    
        25   0             -1003.1047     -3.3327072     -5.0922214     -2.4529501     -2.4529501      3.566139e-10   1.8724341e-10 -1.6001247e-11  8.2955719      12.443345      16.591127      1712.6136    
        26   0             -1003.1047     -3.3327072     -5.0922214     -2.4529501     -2.4529501      2.5919032e-10  9.9745911e-11 -2.137048e-11   8.2955719      12.443345      16.591127      1712.6136    
        27   0             -1003.1047     -3.3327072     -5.0922214     -2.4529501     -2.4529501      1.1684597e-10  1.5931467e-10  2.0436929e-11  8.2955719      12.443345      16.591127      1712.6136    
        28   0             -1003.1047     -3.3327072     -5.0922214     -2.4529501     -2.4529501      2.6329292e-11  6.1466297e-11  6.2119576e-11  8.2955719      12.443345      16.591127      1712.6136    
        29   0             -1003.1047     -3.3327072     -5.0922214     -2.4529501     -2.4529501      2.2849878e-11  1.602153e-11   4.5607967e-11  8.2955719      12.443345      16.591127      1712.6136    
        30   0             -1003.1047     -3.3327072     -5.0922214     -2.4529501     -2.4529501      4.3103179e-12 -2.3952688e-11 -1.1004347e-11  8.2955719      12.443345      16.591127      1712.6136    
        31   0             -1003.1047     -3.3327072     -5.0922214     -2.4529501     -2.4529501      2.1291932e-12  3.9984795e-12 -2.0289366e-11  8.2955719      12.443345      16.591127      1712.6136    
        32   0             -1003.1047     -3.3327072     -5.0922214     -2.4529501     -2.4529501      1.111335e-11  -5.9221687e-12  6.004407e-12   8.2955719      12.443345      16.591127      1712.6136    
        33   0             -1003.1047     -3.3327072     -5.0922214     -2.4529501     -2.4529501      1.1424939e-12  4.3615926e-12 -1.3956852e-11  8.2955719      12.443345      16.591127      1712.6136    
        34   0             -1003.1047     -3.3327072     -5.0922214     -2.4529501     -2.4529501      6.6991689e-12 -3.0718556e-12 -1.3576432e-12  8.2955719      12.443345      16.591127      1712.6136    
        35   0             -1003.1047     -3.3327072     -5.0922214     -2.4529501     -2.4529501      2.9600979e-12  8.6696292e-12 -2.7887067e-12  8.2955719      12.443345      16.591127      1712.6136    
        36   0             -1003.1047     -3.3327072     -5.0922214     -2.4529501     -2.4529501      4.6219072e-12 -8.8759583e-13  1.0610797e-11  8.2955719      12.443345      16.591127      1712.6136    
        37   0             -1003.1047     -3.3327072     -5.0922214     -2.4529501     -2.4529501      8.9841567e-12 -3.0224104e-12 -1.1139802e-12  8.2955719      12.443345      16.591127      1712.6136    
        38   0             -1003.1047     -3.3327072     -5.0922214     -2.4529501     -2.4529501      4.7257703e-12 -1.1817598e-11  2.3220159e-12  8.2955719      12.443345      16.591127      1712.6136    
        39   0             -1003.1047     -3.3327072     -5.0922214     -2.4529501     -2.4529501      8.9322251e-12 -8.6367712e-12  3.4949732e-12  8.2955719      12.443345      16.591127      1712.6136    
        40   0             -1003.1047     -3.3327072     -5.0922214     -2.4529501     -2.4529501     -1.1269145e-11 -3.0138993e-12  1.0528801e-11  8.2955719      12.443345      16.591127      1712.6136    
        41   0             -1003.1047     -3.3327072     -5.0922214     -2.4529501     -2.4529501      6.8549635e-12  7.1600575e-13  1.1346268e-11  8.2955719      12.443345      16.591127      1712.6136    
        42   0             -1003.1047     -3.3327072     -5.0922214     -2.4529501     -2.4529501     -2.0253301e-12 -1.7764893e-11  1.1620881e-12  8.2955719      12.443345      16.591127      1712.6136    
        43   0             -1003.1047     -3.3327072     -5.0922214     -2.4529501     -2.4529501      9.6073352e-12  6.0330431e-12  2.2366356e-11  8.2955719      12.443345      16.591127      1712.6136    
        44   0             -1003.1047     -3.3327072     -5.0922214     -2.4529501     -2.4529501      7.2184843e-12  6.8333955e-12 -1.0248057e-11  8.2955719      12.443345      16.591127      1712.6136    
        45   0             -1003.1047     -3.3327072     -5.0922214     -2.4529501     -2.4529501      4.6219072e-12  6.4545569e-13  1.2704767e-11  8.2955719      12.443345      16.591127      1712.6136    
        46   0             -1003.1047     -3.3327072     -5.0922214     -2.4529501     -2.4529501     -2.7523717e-12  1.7129935e-11 -6.9663027e-12  8.2955719      12.443345      16.591127      1712.6136    
        47   0             -1003.1047     -3.3327072     -5.0922214     -2.4529501     -2.4529501      4.7777018e-12 -1.0181761e-11 -1.1928906e-11  8.2955719      12.443345      16.591127      1712.6136    
        48   0             -1003.1047     -3.3327072     -5.0922214     -2.4529501     -2.4529501     -3.2197556e-12 -8.4849483e-13 -8.9785075e-13  8.2955719      12.443345      16.591127      1712.6136    
        49   0             -1003.1047     -3.3327072     -5.0922214     -2.4529501     -2.4529501      3.4794133e-12  1.2094117e-12 -2.2816812e-12  8.2955719      12.443345      16.591127      1712.6136    
Loop time of 0.119742 on 4 procs for 48 steps with 192 atoms

75.0% CPU use with 4 MPI tasks x 1 OpenMP threads

Minimization stats:
  Stopping criterion = force tolerance
  Energy initial, next-to-last, final = 
     -1003.10473047776  -1003.10473054103  -1003.10473054103
  Force two-norm initial, final = 0.0011074455 7.9249957e-11
  Force max component initial, final = 0.00014459413 1.4579202e-11
  Final line search alpha, max atom move = 1 1.4579202e-11
  Iterations, force evaluations = 48 96

MPI task timing breakdown:
Section |  min time  |  avg time  |  max time  |%varavg| %total
---------------------------------------------------------------
Pair    | 0.11207    | 0.11338    | 0.11487    |   0.4 | 94.68
Neigh   | 0          | 0          | 0          |   0.0 |  0.00
Comm    | 0.003384   | 0.0048375  | 0.006089   |   1.8 |  4.04
Output  | 0.000626   | 0.00066275 | 0.000751   |   0.0 |  0.55
Modify  | 0          | 0          | 0          |   0.0 |  0.00
Other   |            | 0.000866   |            |       |  0.72

Nlocal:             48 ave          50 max          46 min
Histogram: 2 0 0 0 0 0 0 0 0 2
Nghost:            600 ave         602 max         598 min
Histogram: 2 0 0 0 0 0 0 0 0 2
Neighs:           2208 ave        2332 max        2097 min
Histogram: 1 1 0 0 0 0 0 1 0 1
FullNghs:         4416 ave        4600 max        4232 min
Histogram: 2 0 0 0 0 0 0 0 0 2

Total # of neighbors = 17664
Ave neighs/atom = 92
Neighbor list builds = 0
Dangerous builds = 0

# Obtain new stress tensor

variable tmp equal pe
variable e1 equal ${tmp}
variable e1 equal -1003.10473054103
variable tmp equal press
variable p1 equal ${tmp}
variable p1 equal -3.33270721420544
variable tmp equal pxx
variable pxx1 equal ${tmp}
variable pxx1 equal -5.09222142938091
variable tmp equal pyy
variable pyy1 equal ${tmp}
variable pyy1 equal -2.4529501068279
variable tmp equal pzz
variable pzz1 equal ${tmp}
variable pzz1 equal -2.4529501064075
variable tmp equal pxy
variable pxy1 equal ${tmp}
variable pxy1 equal 3.47941327957867e-12
variable tmp equal pxz
variable pxz1 equal ${tmp}
variable pxz1 equal 1.20941165724816e-12
variable tmp equal pyz
variable pyz1 equal ${tmp}
variable pyz1 equal -2.28168123687172e-12

# Compute elastic constant from pressure tensor

variable C1pos equal ${d1}
variable C1pos equal 509.222143001333
variable C2pos equal ${d2}
variable C2pos equal 245.295010683723
variable C3pos equal ${d3}
variable C3pos equal 245.295010694271
variable C4pos equal ${d4}
variable C4pos equal 5.84873255975619e-10
variable C5pos equal ${d5}
variable C5pos equal -3.51712183975122e-10
variable C6pos equal ${d6}
variable C6pos equal -1.6877733066649e-10

# Combine positive and negative

variable C1${dir} equal 0.5*(${C1neg}+${C1pos})
variable C11 equal 0.5*(${C1neg}+${C1pos})
variable C11 equal 0.5*(509.229403076939+${C1pos})
variable C11 equal 0.5*(509.229403076939+509.222143001333)
variable C2${dir} equal 0.5*(${C2neg}+${C2pos})
variable C21 equal 0.5*(${C2neg}+${C2pos})
variable C21 equal 0.5*(245.296341174129+${C2pos})
variable C21 equal 0.5*(245.296341174129+245.295010683723)
variable C3${dir} equal 0.5*(${C3neg}+${C3pos})
variable C31 equal 0.5*(${C3neg}+${C3pos})
variable C31 equal 0.5*(245.296341160966+${C3pos})
variable C31 equal 0.5*(245.296341160966+245.295010694271)
variable C4${dir} equal 0.5*(${C4neg}+${C4pos})
variable C41 equal 0.5*(${C4neg}+${C4pos})
variable C41 equal 0.5*(-9.79164578326361e-10+${C4pos})
variable C41 equal 0.5*(-9.79164578326361e-10+5.84873255975619e-10)
variable C5${dir} equal 0.5*(${C5neg}+${C5pos})
variable C51 equal 0.5*(${C5neg}+${C5pos})
variable C51 equal 0.5*(5.12995334172676e-10+${C5pos})
variable C51 equal 0.5*(5.12995334172676e-10+-3.51712183975122e-10)
variable C6${dir} equal 0.5*(${C6neg}+${C6pos})
variable C61 equal 0.5*(${C6neg}+${C6pos})
variable C61 equal 0.5*(-8.54275386834041e-10+${C6pos})
variable C61 equal 0.5*(-8.54275386834041e-10+-1.6877733066649e-10)

# Delete dir to make sure it is not reused

variable dir delete

# uyy Perturbation

variable dir equal 2
include displace.mod
# NOTE: This script should not need to be
# modified. See in.elastic for more info.
#
# Find which reference length to use

if "${dir} == 1" then    "variable len0 equal ${lx0}"
if "${dir} == 2" then    "variable len0 equal ${ly0}"
variable len0 equal ${ly0}
variable len0 equal 12.4433453682716
if "${dir} == 3" then    "variable len0 equal ${lz0}"
if "${dir} == 4" then    "variable len0 equal ${lz0}"
if "${dir} == 5" then    "variable len0 equal ${lz0}"
if "${dir} == 6" then    "variable len0 equal ${ly0}"

# Reset box and simulation parameters

clear
  using 1 OpenMP thread(s) per MPI task
Loaded 1 plugins from C:\Program Files\LAMMPS 64-bit 23Jun2022\plugins
Loaded 0 plugins from C:\Program Files\LAMMPS 64-bit 23Jun2022-MPI\plugins
Loaded 1 plugins from C:\Program Files\LAMMPS 64-bit 22Dec2022-MSMPI\plugins
Loaded 1 plugins from C:\Program Files\LAMMPS 64-bit 28Mar2023-MPI\plugins
box tilt large

The 'box' command has been removed and will be ignored

read_restart restart.equil
Reading restart file ...
  restart file = 22 Dec 2022, LAMMPS = 22 Dec 2022
  restoring atom style atomic from restart
  triclinic box = (0.00010910529 0.00010910529 0.00010910529) to (8.2956727 12.443454 16.591236) with tilt (0 0 0)
  1 by 2 by 2 MPI processor grid
  pair style meam stores no restart info
  192 atoms
  read_restart CPU = 0.000 seconds
include potential.mod
# NOTE: This script can be modified for different pair styles
# See in.elastic for more info.

# Choose potential
#-----------------------
#pair_style	sw
#pair_coeff * * Si.sw Si
#-----------------------
#pair_style morse	2.83994742	# D0[eV] a[1/A] r0[A] rc[A], 1NN for BCC
#pair_coeff 1 1	2.1173	1.0202	2.4595	2.6497	#	Fe-Fe
#-----------------------
#pair_style smatb # R0(A)   p       q     A(eV)   xi(eV)  Rcs(A)   Rc(A), 4NN: Rcs=4NN, Rc=(4NN+5NN)/2
#pair_coeff 1 1	2.4802	7.0149	2.3779	0.3144	3.0551	4.033	4.176	#	Co	Co
#-----------------------
#pair_style eam/alloy
#pair_coeff * * AlCrFeCoNi_Zhou04.eam.alloy Fe
#-----------------------
pair_style meam
#pair_coeff * * ./../../library.meam Fe Cr Ni N ./../../FeCrNiN.meam Fe Ni
pair_coeff * * ./../../library.meam Fe Cr Ni N ./../../FeCrNiN.meam Cr N
#pair_coeff * * ./../../library.meam Fe Cr Ni N ./../../FeCrNiN.meam Ni N
#-----------------------

# Setup neighbor style
neighbor 1.0 nsq
neigh_modify once no every 1 delay 0 check yes

# Setup minimization style
min_style	     cg
min_modify	     dmax ${dmax} line quadratic
min_modify	     dmax 0.01 line quadratic

# Setup output
thermo		1
thermo_style custom step temp pe press pxx pyy pzz pxy pxz pyz lx ly lz vol
thermo_modify norm no

# Negative deformation

variable delta equal -${up}*${len0}
variable delta equal -1e-06*${len0}
variable delta equal -1e-06*12.4433453682716
variable deltaxy equal -${up}*xy
variable deltaxy equal -1e-06*xy
variable deltaxz equal -${up}*xz
variable deltaxz equal -1e-06*xz
variable deltayz equal -${up}*yz
variable deltayz equal -1e-06*yz
if "${dir} == 1" then    "change_box all x delta 0 ${delta} xy delta ${deltaxy} xz delta ${deltaxz} remap units box"
if "${dir} == 2" then    "change_box all y delta 0 ${delta} yz delta ${deltayz} remap units box"
change_box all y delta 0 ${delta} yz delta ${deltayz} remap units box
change_box all y delta 0 -1.24433453682716e-05 yz delta ${deltayz} remap units box
change_box all y delta 0 -1.24433453682716e-05 yz delta -0 remap units box
Changing box ...
  triclinic box = (0.00010910529 0.00010910529 0.00010910529) to (8.2956727 12.443442 16.591236) with tilt (0 0 0)
  triclinic box = (0.00010910529 0.00010910529 0.00010910529) to (8.2956727 12.443442 16.591236) with tilt (0 0 0)
if "${dir} == 3" then    "change_box all z delta 0 ${delta} remap units box"
if "${dir} == 4" then    "change_box all yz delta ${delta} remap units box"
if "${dir} == 5" then    "change_box all xz delta ${delta} remap units box"
if "${dir} == 6" then    "change_box all xy delta ${delta} remap units box"

# Relax atoms positions

minimize ${etol} ${ftol} ${maxiter} ${maxeval}
minimize 0 ${ftol} ${maxiter} ${maxeval}
minimize 0 1e-10 ${maxiter} ${maxeval}
minimize 0 1e-10 100 ${maxeval}
minimize 0 1e-10 100 1000
Neighbor list info ...
  update: every = 1 steps, delay = 0 steps, check = yes
  max neighbors/atom: 2000, page size: 100000
  master list distance cutoff = 6
  ghost atom cutoff = 6
  2 neighbor lists, perpetual/occasional/extra = 2 0 0
  (1) pair meam, perpetual
      attributes: full, newton on
      pair build: full/nsq
      stencil: none
      bin: none
  (2) pair meam, perpetual, half/full from (1)
      attributes: half, newton on
      pair build: halffull/newton
      stencil: none
      bin: none
Per MPI rank memory allocation (min/avg/max) = 9.875 | 9.879 | 9.881 Mbytes
   Step          Temp          PotEng         Press           Pxx            Pyy            Pzz            Pxy            Pxz            Pyz             Lx             Ly             Lz           Volume    
         1   0             -1003.1047      3.3330714      2.4533129      5.092632       2.4532692     -9.0949967e-05 -1.2000803e-05  2.7960039e-05  8.2955636      12.443333      16.591127      1712.6101    
         2   0             -1003.1047      3.3328015      2.4530229      5.0923441      2.4530377     -5.4063881e-06 -1.0596041e-05  7.6583981e-06  8.2955636      12.443333      16.591127      1712.6101    
         3   0             -1003.1047      3.332752       2.4529735      5.0923036      2.452979      -3.1440416e-06 -7.8535319e-06 -6.0568405e-07  8.2955636      12.443333      16.591127      1712.6101    
         4   0             -1003.1047      3.3327441      2.452968       5.0922961      2.4529681     -3.51415e-06   -4.1630028e-06  5.7656876e-07  8.2955636      12.443333      16.591127      1712.6101    
         5   0             -1003.1047      3.3327411      2.4529647      5.0922946      2.452964      -6.5799664e-07 -1.4941876e-06 -1.4504039e-07  8.2955636      12.443333      16.591127      1712.6101    
         6   0             -1003.1047      3.3327401      2.4529633      5.0922937      2.4529632      1.8683292e-07 -5.4971274e-08  3.7645206e-07  8.2955636      12.443333      16.591127      1712.6101    
         7   0             -1003.1047      3.33274        2.4529631      5.0922936      2.4529631      9.8997555e-08  1.8265896e-07  2.805383e-07   8.2955636      12.443333      16.591127      1712.6101    
         8   0             -1003.1047      3.3327401      2.4529632      5.0922938      2.4529632      9.1140038e-09  1.2464686e-07  1.5736887e-07  8.2955636      12.443333      16.591127      1712.6101    
         9   0             -1003.1047      3.3327402      2.4529633      5.0922939      2.4529633      3.1849055e-08  6.9769363e-08  1.0992771e-07  8.2955636      12.443333      16.591127      1712.6101    
        10   0             -1003.1047      3.3327402      2.4529633      5.092294       2.4529633      6.3114346e-08  1.0060796e-07  4.6211705e-08  8.2955636      12.443333      16.591127      1712.6101    
        11   0             -1003.1047      3.3327402      2.4529633      5.092294       2.4529634      6.1205079e-08  6.6927605e-08  7.3073198e-10  8.2955636      12.443333      16.591127      1712.6101    
        12   0             -1003.1047      3.3327402      2.4529634      5.092294       2.4529634      2.9857632e-08  3.2763338e-08 -5.5471951e-09  8.2955636      12.443333      16.591127      1712.6101    
        13   0             -1003.1047      3.3327403      2.4529634      5.092294       2.4529634      2.4104904e-08  2.0990708e-08 -1.010525e-09   8.2955636      12.443333      16.591127      1712.6101    
        14   0             -1003.1047      3.3327403      2.4529634      5.092294       2.4529634      3.1414802e-08  1.3403313e-08  7.8101882e-09  8.2955636      12.443333      16.591127      1712.6101    
        15   0             -1003.1047      3.3327403      2.4529634      5.092294       2.4529634      2.3685556e-08  6.5040066e-09  3.8014663e-09  8.2955636      12.443333      16.591127      1712.6101    
        16   0             -1003.1047      3.3327403      2.4529634      5.092294       2.4529634      1.5585777e-08  3.1776827e-09  1.529102e-09   8.2955636      12.443333      16.591127      1712.6101    
        17   0             -1003.1047      3.3327403      2.4529634      5.092294       2.4529634      8.3847796e-09  3.6716454e-09  1.6960227e-09  8.2955636      12.443333      16.591127      1712.6101    
        18   0             -1003.1047      3.3327403      2.4529634      5.092294       2.4529634      6.434227e-09   2.6300671e-09  2.0525408e-09  8.2955636      12.443333      16.591127      1712.6101    
        19   0             -1003.1047      3.3327403      2.4529634      5.092294       2.4529634      6.3632364e-09  6.3518653e-10  1.6269581e-09  8.2955636      12.443333      16.591127      1712.6101    
        20   0             -1003.1047      3.3327403      2.4529634      5.092294       2.4529634      3.1588981e-09 -2.3576417e-10  9.2126932e-10  8.2955636      12.443333      16.591127      1712.6101    
        21   0             -1003.1047      3.3327403      2.4529634      5.092294       2.4529634      1.5889006e-09 -6.248342e-10   5.8429804e-10  8.2955636      12.443333      16.591127      1712.6101    
        22   0             -1003.1047      3.3327403      2.4529634      5.092294       2.4529634      1.2995375e-09  1.5069912e-10  2.0294205e-11  8.2955636      12.443333      16.591127      1712.6101    
        23   0             -1003.1047      3.3327403      2.4529634      5.092294       2.4529634      7.7476822e-10  5.1776482e-10  2.6726316e-11  8.2955636      12.443333      16.591127      1712.6101    
        24   0             -1003.1047      3.3327403      2.4529634      5.092294       2.4529634      5.5379907e-10  3.7011137e-10  6.5329787e-11  8.2955636      12.443333      16.591127      1712.6101    
        25   0             -1003.1047      3.3327403      2.4529634      5.092294       2.4529634      3.6040562e-10  1.7489441e-10 -2.351085e-11   8.2955636      12.443333      16.591127      1712.6101    
        26   0             -1003.1047      3.3327403      2.4529634      5.092294       2.4529634      2.7222568e-10  8.9109079e-11 -9.6339032e-12  8.2955636      12.443333      16.591127      1712.6101    
        27   0             -1003.1047      3.3327403      2.4529634      5.092294       2.4529634      1.0578476e-10  1.2554751e-10  2.6321547e-11  8.2955636      12.443333      16.591127      1712.6101    
        28   0             -1003.1047      3.3327403      2.4529634      5.092294       2.4529634      2.6381276e-11  4.6052094e-11  7.9319066e-11  8.2955636      12.443333      16.591127      1712.6101    
        29   0             -1003.1047      3.3327403      2.4529634      5.092294       2.4529634      1.8539597e-11  2.3118069e-11  3.6281756e-11  8.2955636      12.443333      16.591127      1712.6101    
        30   0             -1003.1047      3.3327403      2.4529634      5.092294       2.4529634      4.1545316e-13 -3.5223621e-11  2.995353e-13   8.2955636      12.443333      16.591127      1712.6101    
        31   0             -1003.1047      3.3327403      2.4529634      5.092294       2.4529634      7.5300886e-12  1.0375767e-11 -2.6233776e-11  8.2955636      12.443333      16.591127      1712.6101    
        32   0             -1003.1047      3.3327403      2.4529634      5.092294       2.4529634      1.0905646e-12 -6.2452671e-12 -6.7778131e-12  8.2955636      12.443333      16.591127      1712.6101    
        33   0             -1003.1047      3.3327403      2.4529634      5.092294       2.4529634     -2.0772658e-12  2.8322199e-12 -5.9835134e-12  8.2955636      12.443333      16.591127      1712.6101    
        34   0             -1003.1047      3.3327403      2.4529634      5.092294       2.4529634      3.2716937e-12  1.3646047e-11 -1.2429066e-11  8.2955636      12.443333      16.591127      1712.6101    
        35   0             -1003.1047      3.3327403      2.4529634      5.092294       2.4529634     -7.4781569e-12  2.8786623e-12 -1.8033906e-11  8.2955636      12.443333      16.591127      1712.6101    
        36   0             -1003.1047      3.3327403      2.4529634      5.092294       2.4529634      5.9202076e-12 -9.8580218e-12 -5.7103583e-15  8.2955636      12.443333      16.591127      1712.6101    
        37   0             -1003.1047      3.3327403      2.4529634      5.092294       2.4529634      1.1165304e-11  1.400573e-11   1.1368208e-11  8.2955636      12.443333      16.591127      1712.6101    
        38   0             -1003.1047      3.3327403      2.4529634      5.092294       2.4529634      7.6339519e-12  8.2163446e-12 -4.7700972e-15  8.2955636      12.443333      16.591127      1712.6101    
        39   0             -1003.1047      3.3327403      2.4529634      5.092294       2.4529634     -7.2704303e-13 -9.1781111e-12 -3.693333e-12   8.2955636      12.443333      16.591127      1712.6101    
        40   0             -1003.1047      3.3327403      2.4529634      5.092294       2.4529634     -4.4141899e-12 -6.2285159e-12  1.0933635e-11  8.2955636      12.443333      16.591127      1712.6101    
        41   0             -1003.1047      3.3327403      2.4529634      5.092294       2.4529634     -2.1343906e-11  2.9557058e-12 -2.1826565e-12  8.2955636      12.443333      16.591127      1712.6101    
        42   0             -1003.1047      3.3327403      2.4529634      5.092294       2.4529634      4.6738481e-13  1.0985031e-12 -1.1346629e-11  8.2955636      12.443333      16.591127      1712.6101    
        43   0             -1003.1047      3.3327403      2.4529634      5.092294       2.4529634     -7.3742936e-12  7.1929933e-12  9.9145342e-12  8.2955636      12.443333      16.591127      1712.6101    
        44   0             -1003.1047      3.3327403      2.4529634      5.092294       2.4529634     -7.1665671e-12  9.1896769e-12  1.2312223e-11  8.2955636      12.443333      16.591127      1712.6101    
        45   0             -1003.1047      3.3327403      2.4529634      5.092294       2.4529634     -6.3356607e-12 -4.2068115e-12  9.2250785e-12  8.2955636      12.443333      16.591127      1712.6101    
        46   0             -1003.1047      3.3327403      2.4529634      5.092294       2.4529634      3.3755569e-12 -1.4708752e-11 -8.0749788e-12  8.2955636      12.443333      16.591127      1712.6101    
        47   0             -1003.1047      3.3327403      2.4529634      5.092294       2.4529634     -3.1678304e-12 -4.2185202e-12  2.3203602e-12  8.2955636      12.443333      16.591127      1712.6101    
        48   0             -1003.1047      3.3327403      2.4529634      5.092294       2.4529634      2.1291975e-12  1.0850245e-11  3.8285943e-13  8.2955636      12.443333      16.591127      1712.6101    
        49   0             -1003.1047      3.3327403      2.4529634      5.092294       2.4529634      1.1321099e-11 -7.0532219e-12 -8.540634e-13   8.2955636      12.443333      16.591127      1712.6101    
Loop time of 0.117776 on 4 procs for 48 steps with 192 atoms

76.3% CPU use with 4 MPI tasks x 1 OpenMP threads

Minimization stats:
  Stopping criterion = force tolerance
  Energy initial, next-to-last, final = 
     -1003.10473047775  -1003.10473054103  -1003.10473054103
  Force two-norm initial, final = 0.001107458 6.9677959e-11
  Force max component initial, final = 0.0001445959 1.069253e-11
  Final line search alpha, max atom move = 1 1.069253e-11
  Iterations, force evaluations = 48 96

MPI task timing breakdown:
Section |  min time  |  avg time  |  max time  |%varavg| %total
---------------------------------------------------------------
Pair    | 0.11055    | 0.11237    | 0.11376    |   0.4 | 95.41
Neigh   | 0          | 0          | 0          |   0.0 |  0.00
Comm    | 0.002618   | 0.0039445  | 0.005679   |   2.1 |  3.35
Output  | 0.000672   | 0.00071825 | 0.000765   |   0.0 |  0.61
Modify  | 0          | 0          | 0          |   0.0 |  0.00
Other   |            | 0.0007407  |            |       |  0.63

Nlocal:             48 ave          50 max          46 min
Histogram: 2 0 0 0 0 0 0 0 0 2
Nghost:            600 ave         602 max         598 min
Histogram: 2 0 0 0 0 0 0 0 0 2
Neighs:           2208 ave        2332 max        2097 min
Histogram: 1 1 0 0 0 0 0 1 0 1
FullNghs:         4416 ave        4600 max        4232 min
Histogram: 2 0 0 0 0 0 0 0 0 2

Total # of neighbors = 17664
Ave neighs/atom = 92
Neighbor list builds = 0
Dangerous builds = 0

# Obtain new stress tensor

variable tmp equal pxx
variable pxx1 equal ${tmp}
variable pxx1 equal 2.45296341200849
variable tmp equal pyy
variable pyy1 equal ${tmp}
variable pyy1 equal 5.0922940308779
variable tmp equal pzz
variable pzz1 equal ${tmp}
variable pzz1 equal 2.45296341199989
variable tmp equal pxy
variable pxy1 equal ${tmp}
variable pxy1 equal 1.1321098686177e-11
variable tmp equal pxz
variable pxz1 equal ${tmp}
variable pxz1 equal -7.05322193943884e-12
variable tmp equal pyz
variable pyz1 equal ${tmp}
variable pyz1 equal -8.54063399620105e-13

# Compute elastic constant from pressure tensor

variable C1neg equal ${d1}
variable C1neg equal 245.296341137607
variable C2neg equal ${d2}
variable C2neg equal 509.229403086857
variable C3neg equal ${d3}
variable C3neg equal 245.296341146468
variable C4neg equal ${d4}
variable C4neg equal -4.42111472250458e-10
variable C5neg equal ${d5}
variable C5neg equal -4.74551175693578e-10
variable C6neg equal ${d6}
variable C6neg equal 9.52945871326323e-10

# Reset box and simulation parameters

clear
  using 1 OpenMP thread(s) per MPI task
Loaded 1 plugins from C:\Program Files\LAMMPS 64-bit 23Jun2022\plugins
Loaded 0 plugins from C:\Program Files\LAMMPS 64-bit 23Jun2022-MPI\plugins
Loaded 1 plugins from C:\Program Files\LAMMPS 64-bit 22Dec2022-MSMPI\plugins
Loaded 1 plugins from C:\Program Files\LAMMPS 64-bit 28Mar2023-MPI\plugins
box tilt large

The 'box' command has been removed and will be ignored

read_restart restart.equil
Reading restart file ...
  restart file = 22 Dec 2022, LAMMPS = 22 Dec 2022
  restoring atom style atomic from restart
  triclinic box = (0.00010910529 0.00010910529 0.00010910529) to (8.2956727 12.443454 16.591236) with tilt (0 0 0)
  1 by 2 by 2 MPI processor grid
  pair style meam stores no restart info
  192 atoms
  read_restart CPU = 0.000 seconds
include potential.mod
# NOTE: This script can be modified for different pair styles
# See in.elastic for more info.

# Choose potential
#-----------------------
#pair_style	sw
#pair_coeff * * Si.sw Si
#-----------------------
#pair_style morse	2.83994742	# D0[eV] a[1/A] r0[A] rc[A], 1NN for BCC
#pair_coeff 1 1	2.1173	1.0202	2.4595	2.6497	#	Fe-Fe
#-----------------------
#pair_style smatb # R0(A)   p       q     A(eV)   xi(eV)  Rcs(A)   Rc(A), 4NN: Rcs=4NN, Rc=(4NN+5NN)/2
#pair_coeff 1 1	2.4802	7.0149	2.3779	0.3144	3.0551	4.033	4.176	#	Co	Co
#-----------------------
#pair_style eam/alloy
#pair_coeff * * AlCrFeCoNi_Zhou04.eam.alloy Fe
#-----------------------
pair_style meam
#pair_coeff * * ./../../library.meam Fe Cr Ni N ./../../FeCrNiN.meam Fe Ni
pair_coeff * * ./../../library.meam Fe Cr Ni N ./../../FeCrNiN.meam Cr N
#pair_coeff * * ./../../library.meam Fe Cr Ni N ./../../FeCrNiN.meam Ni N
#-----------------------

# Setup neighbor style
neighbor 1.0 nsq
neigh_modify once no every 1 delay 0 check yes

# Setup minimization style
min_style	     cg
min_modify	     dmax ${dmax} line quadratic
min_modify	     dmax 0.01 line quadratic

# Setup output
thermo		1
thermo_style custom step temp pe press pxx pyy pzz pxy pxz pyz lx ly lz vol
thermo_modify norm no

# Positive deformation

variable delta equal ${up}*${len0}
variable delta equal 1e-06*${len0}
variable delta equal 1e-06*12.4433453682716
variable deltaxy equal ${up}*xy
variable deltaxy equal 1e-06*xy
variable deltaxz equal ${up}*xz
variable deltaxz equal 1e-06*xz
variable deltayz equal ${up}*yz
variable deltayz equal 1e-06*yz
if "${dir} == 1" then    "change_box all x delta 0 ${delta} xy delta ${deltaxy} xz delta ${deltaxz} remap units box"
if "${dir} == 2" then    "change_box all y delta 0 ${delta} yz delta ${deltayz} remap units box"
change_box all y delta 0 ${delta} yz delta ${deltayz} remap units box
change_box all y delta 0 1.24433453682716e-05 yz delta ${deltayz} remap units box
change_box all y delta 0 1.24433453682716e-05 yz delta 0 remap units box
Changing box ...
  triclinic box = (0.00010910529 0.00010910529 0.00010910529) to (8.2956727 12.443467 16.591236) with tilt (0 0 0)
  triclinic box = (0.00010910529 0.00010910529 0.00010910529) to (8.2956727 12.443467 16.591236) with tilt (0 0 0)
if "${dir} == 3" then    "change_box all z delta 0 ${delta} remap units box"
if "${dir} == 4" then    "change_box all yz delta ${delta} remap units box"
if "${dir} == 5" then    "change_box all xz delta ${delta} remap units box"
if "${dir} == 6" then    "change_box all xy delta ${delta} remap units box"

# Relax atoms positions

minimize ${etol} ${ftol} ${maxiter} ${maxeval}
minimize 0 ${ftol} ${maxiter} ${maxeval}
minimize 0 1e-10 ${maxiter} ${maxeval}
minimize 0 1e-10 100 ${maxeval}
minimize 0 1e-10 100 1000
Neighbor list info ...
  update: every = 1 steps, delay = 0 steps, check = yes
  max neighbors/atom: 2000, page size: 100000
  master list distance cutoff = 6
  ghost atom cutoff = 6
  2 neighbor lists, perpetual/occasional/extra = 2 0 0
  (1) pair meam, perpetual
      attributes: full, newton on
      pair build: full/nsq
      stencil: none
      bin: none
  (2) pair meam, perpetual, half/full from (1)
      attributes: half, newton on
      pair build: halffull/newton
      stencil: none
      bin: none
Per MPI rank memory allocation (min/avg/max) = 9.875 | 9.879 | 9.881 Mbytes
   Step          Temp          PotEng         Press           Pxx            Pyy            Pzz            Pxy            Pxz            Pyz             Lx             Ly             Lz           Volume    
         1   0             -1003.1047     -3.3323761     -2.4526006     -5.0918835     -2.4526443     -9.0949375e-05 -1.2000794e-05  2.7959906e-05  8.2955636      12.443358      16.591127      1712.6136    
         2   0             -1003.1047     -3.332646      -2.4528907     -5.0921714     -2.4528758     -5.406384e-06  -1.0596083e-05  7.6582889e-06  8.2955636      12.443358      16.591127      1712.6136    
         3   0             -1003.1047     -3.3326955     -2.4529401     -5.0922118     -2.4529345     -3.1437291e-06 -7.8533455e-06 -6.0583094e-07  8.2955636      12.443358      16.591127      1712.6136    
         4   0             -1003.1047     -3.3327034     -2.4529455     -5.0922193     -2.4529454     -3.5140927e-06 -4.1628555e-06  5.7652979e-07  8.2955636      12.443358      16.591127      1712.6136    
         5   0             -1003.1047     -3.3327064     -2.4529489     -5.0922209     -2.4529495     -6.5804684e-07 -1.4942075e-06 -1.4504975e-07  8.2955636      12.443358      16.591127      1712.6136    
         6   0             -1003.1047     -3.3327074     -2.4529502     -5.0922218     -2.4529503      1.8677916e-07 -5.5029283e-08  3.7646073e-07  8.2955636      12.443358      16.591127      1712.6136    
         7   0             -1003.1047     -3.3327075     -2.4529504     -5.0922218     -2.4529504      9.8979597e-08  1.826219e-07   2.8053221e-07  8.2955636      12.443358      16.591127      1712.6136    
         8   0             -1003.1047     -3.3327074     -2.4529503     -5.0922217     -2.4529503      9.1141933e-09  1.2462612e-07  1.5735727e-07  8.2955636      12.443358      16.591127      1712.6136    
         9   0             -1003.1047     -3.3327073     -2.4529502     -5.0922216     -2.4529502      3.1844214e-08  6.9771033e-08  1.0991349e-07  8.2955636      12.443358      16.591127      1712.6136    
        10   0             -1003.1047     -3.3327073     -2.4529502     -5.0922215     -2.4529502      6.3113026e-08  1.0060901e-07  4.6221951e-08  8.2955636      12.443358      16.591127      1712.6136    
        11   0             -1003.1047     -3.3327073     -2.4529502     -5.0922215     -2.4529502      6.1203503e-08  6.6912297e-08  7.3300586e-10  8.2955636      12.443358      16.591127      1712.6136    
        12   0             -1003.1047     -3.3327073     -2.4529502     -5.0922215     -2.4529501      2.9858248e-08  3.2765234e-08 -5.5273027e-09  8.2955636      12.443358      16.591127      1712.6136    
        13   0             -1003.1047     -3.3327072     -2.4529501     -5.0922215     -2.4529501      2.4117683e-08  2.1012014e-08 -1.0246585e-09  8.2955636      12.443358      16.591127      1712.6136    
        14   0             -1003.1047     -3.3327072     -2.4529501     -5.0922214     -2.4529501      3.1412559e-08  1.3390234e-08  7.8195879e-09  8.2955636      12.443358      16.591127      1712.6136    
        15   0             -1003.1047     -3.3327072     -2.4529501     -5.0922214     -2.4529501      2.3689352e-08  6.4901027e-09  3.8130399e-09  8.2955636      12.443358      16.591127      1712.6136    
        16   0             -1003.1047     -3.3327072     -2.4529501     -5.0922214     -2.4529501      1.5560144e-08  3.1552897e-09  1.5243748e-09  8.2955636      12.443358      16.591127      1712.6136    
        17   0             -1003.1047     -3.3327072     -2.4529501     -5.0922214     -2.4529501      8.4141561e-09  3.6994997e-09  1.7044052e-09  8.2955636      12.443358      16.591127      1712.6136    
        18   0             -1003.1047     -3.3327072     -2.4529501     -5.0922214     -2.4529501      6.4416403e-09  2.6262839e-09  2.0615705e-09  8.2955636      12.443358      16.591127      1712.6136    
        19   0             -1003.1047     -3.3327072     -2.4529501     -5.0922214     -2.4529501      6.3607829e-09  6.282387e-10   1.61783e-09    8.2955636      12.443358      16.591127      1712.6136    
        20   0             -1003.1047     -3.3327072     -2.4529501     -5.0922214     -2.4529501      3.1721343e-09 -2.2904914e-10  9.1591056e-10  8.2955636      12.443358      16.591127      1712.6136    
        21   0             -1003.1047     -3.3327072     -2.4529501     -5.0922214     -2.4529501      1.5923769e-09 -6.3125592e-10  6.0546922e-10  8.2955636      12.443358      16.591127      1712.6136    
        22   0             -1003.1047     -3.3327072     -2.4529501     -5.0922214     -2.4529501      1.28354e-09    1.4977223e-10  1.4688878e-11  8.2955636      12.443358      16.591127      1712.6136    
        23   0             -1003.1047     -3.3327072     -2.4529501     -5.0922214     -2.4529501      7.7107953e-10  5.1497988e-10  3.4202079e-11  8.2955636      12.443358      16.591127      1712.6136    
        24   0             -1003.1047     -3.3327072     -2.4529501     -5.0922214     -2.4529501      5.5301899e-10  3.8706729e-10  5.5732034e-11  8.2955636      12.443358      16.591127      1712.6136    
        25   0             -1003.1047     -3.3327072     -2.4529501     -5.0922214     -2.4529501      3.5988558e-10  1.6191158e-10 -4.309241e-11   8.2955636      12.443358      16.591127      1712.6136    
        26   0             -1003.1047     -3.3327072     -2.4529501     -5.0922214     -2.4529501      2.7747023e-10  1.1770766e-10 -2.9724199e-11  8.2955636      12.443358      16.591127      1712.6136    
        27   0             -1003.1047     -3.3327072     -2.4529501     -5.0922214     -2.4529501      1.2240264e-10  1.4942123e-10  3.5275646e-11  8.2955636      12.443358      16.591127      1712.6136    
        28   0             -1003.1047     -3.3327072     -2.4529501     -5.0922214     -2.4529501      4.3674426e-11  5.3152395e-11  6.354001e-11   8.2955636      12.443358      16.591127      1712.6136    
        29   0             -1003.1047     -3.3327072     -2.4529501     -5.0922214     -2.4529501      2.3369194e-11  6.297219e-12   2.5604419e-11  8.2955636      12.443358      16.591127      1712.6136    
        30   0             -1003.1047     -3.3327072     -2.4529501     -5.0922214     -2.4529501      6.3875796e-12 -8.8278729e-12 -5.0948829e-12  8.2955636      12.443358      16.591127      1712.6136    
        31   0             -1003.1047     -3.3327072     -2.4529501     -5.0922214     -2.4529501      1.6618093e-12  1.221956e-11  -7.5788159e-12  8.2955636      12.443358      16.591127      1712.6136    
        32   0             -1003.1047     -3.3327072     -2.4529501     -5.0922214     -2.4529501     -5.7644011e-12 -1.1991438e-11  1.5637959e-12  8.2955636      12.443358      16.591127      1712.6136    
        33   0             -1003.1047     -3.3327072     -2.4529501     -5.0922214     -2.4529501      2.6485086e-12 -2.922012e-12  -4.9429299e-13  8.2955636      12.443358      16.591127      1712.6136    
        34   0             -1003.1047     -3.3327072     -2.4529501     -5.0922214     -2.4529501     -3.1158925e-12 -7.9938131e-13  1.4609339e-13  8.2955636      12.443358      16.591127      1712.6136    
        35   0             -1003.1047     -3.3327072     -2.4529501     -5.0922214     -2.4529501      1.5475599e-11 -4.9726844e-12 -1.5065925e-11  8.2955636      12.443358      16.591127      1712.6136    
        36   0             -1003.1047     -3.3327072     -2.4529501     -5.0922214     -2.4529501     -6.0240588e-12 -9.3187171e-12  7.4060344e-12  8.2955636      12.443358      16.591127      1712.6136    
        37   0             -1003.1047     -3.3327072     -2.4529501     -5.0922214     -2.4529501      1.2982885e-12 -1.9866844e-11 -9.5676399e-12  8.2955636      12.443358      16.591127      1712.6136    
        38   0             -1003.1047     -3.3327072     -2.4529501     -5.0922214     -2.4529501     -1.817604e-12  -1.0951357e-11 -1.2488165e-11  8.2955636      12.443358      16.591127      1712.6136    
        39   0             -1003.1047     -3.3327072     -2.4529501     -5.0922214     -2.4529501     -3.1158925e-12 -9.5366411e-13 -6.0002577e-12  8.2955636      12.443358      16.591127      1712.6136    
        40   0             -1003.1047     -3.3327072     -2.4529501     -5.0922214     -2.4529501      3.3755502e-12  4.9292751e-12  4.7864414e-12  8.2955636      12.443358      16.591127      1712.6136    
        41   0             -1003.1047     -3.3327072     -2.4529501     -5.0922214     -2.4529501     -1.1321076e-11  1.0499676e-11  1.0111355e-11  8.2955636      12.443358      16.591127      1712.6136    
        42   0             -1003.1047     -3.3327072     -2.4529501     -5.0922214     -2.4529501      7.3742789e-12  4.4056831e-12 -7.2731621e-12  8.2955636      12.443358      16.591127      1712.6136    
        43   0             -1003.1047     -3.3327072     -2.4529501     -5.0922214     -2.4529501      5.5566749e-12 -2.3864524e-12 -7.8297002e-12  8.2955636      12.443358      16.591127      1712.6136    
[...]
        13   0             -1003.1047     -7.0389581e-07  6.1712974e-09 -7.5204917e-07 -1.3658096e-06 -0.27533064     2.0999776e-08 -1.030461e-09   8.2955636      12.443345      16.591127      1712.6118    
        14   0             -1003.1047     -6.9481195e-07  1.8133344e-08 -7.4223845e-07 -1.3603307e-06 -0.27533063     1.3387918e-08  7.830714e-09   8.2955636      12.443345      16.591127      1712.6118    
        15   0             -1003.1047     -6.8601827e-07  2.8272962e-08 -7.3291438e-07 -1.3534134e-06 -0.27533064     6.4891349e-09  3.8268935e-09  8.2955636      12.443345      16.591127      1712.6118    
        16   0             -1003.1047     -6.8220393e-07  3.3489932e-08 -7.2940754e-07 -1.3506942e-06 -0.27533064     3.0215139e-09  1.4405277e-09  8.2955636      12.443345      16.591127      1712.6118    
        17   0             -1003.1047     -6.8003606e-07  3.6645659e-08 -7.2877631e-07 -1.3479775e-06 -0.27533065     3.5287664e-09  1.6385329e-09  8.2955636      12.443345      16.591127      1712.6118    
        18   0             -1003.1047     -6.7842103e-07  3.8919217e-08 -7.2763239e-07 -1.3465499e-06 -0.27533065     2.586736e-09   2.0334289e-09  8.2955636      12.443345      16.591127      1712.6118    
        19   0             -1003.1047     -6.7720392e-07  4.0499833e-08 -7.2684664e-07 -1.3452649e-06 -0.27533065     6.213632e-10   1.6296238e-09  8.2955636      12.443345      16.591127      1712.6118    
        20   0             -1003.1047     -6.7570441e-07  4.2301769e-08 -7.2590447e-07 -1.3435105e-06 -0.27533066    -2.2344255e-10  9.3135039e-10  8.2955636      12.443345      16.591127      1712.6118    
        21   0             -1003.1047     -6.7448616e-07  4.3588991e-08 -7.2485222e-07 -1.3421953e-06 -0.27533066    -6.3714966e-10  5.8799362e-10  8.2955636      12.443345      16.591127      1712.6118    
        22   0             -1003.1047     -6.7419829e-07  4.4052084e-08 -7.2476459e-07 -1.3418824e-06 -0.27533066     1.4436189e-10  9.1267445e-12  8.2955636      12.443345      16.591127      1712.6118    
        23   0             -1003.1047     -6.7400452e-07  4.4282479e-08 -7.2482155e-07 -1.3414745e-06 -0.27533066     5.0654584e-10  3.0296717e-11  8.2955636      12.443345      16.591127      1712.6118    
        24   0             -1003.1047     -6.7400919e-07  4.4317721e-08 -7.2484192e-07 -1.3415034e-06 -0.27533066     3.8866029e-10  4.8984843e-11  8.2955636      12.443345      16.591127      1712.6118    
        25   0             -1003.1047     -6.7387958e-07  4.4452496e-08 -7.2470975e-07 -1.3413815e-06 -0.27533066     1.970103e-10  -9.9225454e-12  8.2955636      12.443345      16.591127      1712.6118    
        26   0             -1003.1047     -6.7386803e-07  4.456731e-08  -7.2476109e-07 -1.3414103e-06 -0.27533066     8.1569635e-11 -2.3563266e-11  8.2955636      12.443345      16.591127      1712.6118    
        27   0             -1003.1047     -6.7357906e-07  4.4885184e-08 -7.2451746e-07 -1.3411049e-06 -0.27533066     1.4894063e-10  2.1960084e-11  8.2955636      12.443345      16.591127      1712.6118    
        28   0             -1003.1047     -6.7346196e-07  4.495128e-08  -7.2436212e-07 -1.340975e-06  -0.27533066     5.0347269e-11  6.1690254e-11  8.2955636      12.443345      16.591127      1712.6118    
        29   0             -1003.1047     -6.7353272e-07  4.4940887e-08 -7.2446652e-07 -1.3410725e-06 -0.27533066     2.067881e-11   4.2537221e-11  8.2955636      12.443345      16.591127      1712.6118    
        30   0             -1003.1047     -6.7361191e-07  4.4789045e-08 -7.2452826e-07 -1.3410965e-06 -0.27533066    -2.2130202e-11 -1.6240673e-11  8.2955636      12.443345      16.591127      1712.6118    
        31   0             -1003.1047     -6.7357352e-07  4.4872623e-08 -7.2444669e-07 -1.3411465e-06 -0.27533066     1.7390886e-11 -2.0077077e-11  8.2955636      12.443345      16.591127      1712.6118    
        32   0             -1003.1047     -6.7352831e-07  4.4939309e-08 -7.2448322e-07 -1.341041e-06  -0.27533066    -1.2559609e-11 -1.1650868e-11  8.2955636      12.443345      16.591127      1712.6118    
        33   0             -1003.1047     -6.7357302e-07  4.4849396e-08 -7.2446225e-07 -1.3411062e-06 -0.27533066    -4.2843501e-12 -6.556132e-12   8.2955636      12.443345      16.591127      1712.6118    
        34   0             -1003.1047     -6.7348983e-07  4.4960342e-08 -7.2436468e-07 -1.3410652e-06 -0.27533066     7.4216336e-12 -6.4916503e-12  8.2955636      12.443345      16.591127      1712.6118    
        35   0             -1003.1047     -6.7359002e-07  4.4881023e-08 -7.2450564e-07 -1.3411454e-06 -0.27533066    -1.3356056e-11 -1.3981507e-11  8.2955636      12.443345      16.591127      1712.6118    
        36   0             -1003.1047     -6.7344494e-07  4.4955369e-08 -7.2434294e-07 -1.3409473e-06 -0.27533066     1.6959666e-12  6.7352549e-14  8.2955636      12.443345      16.591127      1712.6118    
        37   0             -1003.1047     -6.7343211e-07  4.4985159e-08 -7.24329e-07   -1.3409525e-06 -0.27533066     5.7343685e-12  1.3790704e-11  8.2955636      12.443345      16.591127      1712.6118    
        38   0             -1003.1047     -6.7354048e-07  4.4934292e-08 -7.2446441e-07 -1.3410913e-06 -0.27533066    -1.4536319e-11 -2.4673283e-12  8.2955636      12.443345      16.591127      1712.6118    
        39   0             -1003.1047     -6.7346659e-07  4.4963906e-08 -7.244108e-07  -1.3409529e-06 -0.27533066     7.6009122e-12 -4.5169143e-12  8.2955636      12.443345      16.591127      1712.6118    
        40   0             -1003.1047     -6.7353684e-07  4.4896531e-08 -7.2444909e-07 -1.3410579e-06 -0.27533066    -6.5704764e-12 -3.6988664e-12  8.2955636      12.443345      16.591127      1712.6118    
        41   0             -1003.1047     -6.7359047e-07  4.4858458e-08 -7.2449331e-07 -1.3411366e-06 -0.27533066     1.4719565e-11 -3.6961306e-12  8.2955636      12.443345      16.591127      1712.6118    
        42   0             -1003.1047     -6.7350471e-07  4.4885606e-08 -7.2443474e-07 -1.340965e-06  -0.27533066    -6.7298685e-12 -5.9602465e-12  8.2955636      12.443345      16.591127      1712.6118    
        43   0             -1003.1047     -6.7361923e-07  4.4856031e-08 -7.2454786e-07 -1.3411658e-06 -0.27533066    -2.5225301e-12 -6.1253102e-12  8.2955636      12.443345      16.591127      1712.6118    
        44   0             -1003.1047     -6.7355542e-07  4.4920504e-08 -7.2447735e-07 -1.3411094e-06 -0.27533066    -1.6873509e-11 -4.5157088e-12  8.2955636      12.443345      16.591127      1712.6118    
        45   0             -1003.1047     -6.7359799e-07  4.4861711e-08 -7.2451219e-07 -1.3411435e-06 -0.27533066     1.0954576e-12  9.4192939e-13  8.2955636      12.443345      16.591127      1712.6118    
        46   0             -1003.1047     -6.7344936e-07  4.4988651e-08 -7.2440322e-07 -1.3409335e-06 -0.27533066    -4.5674961e-12 -6.1751071e-12  8.2955636      12.443345      16.591127      1712.6118    
        47   0             -1003.1047     -6.7347683e-07  4.4946158e-08 -7.2439512e-07 -1.3409815e-06 -0.27533066     5.8832409e-12  1.9942181e-11  8.2955636      12.443345      16.591127      1712.6118    
        48   0             -1003.1047     -6.7349124e-07  4.4951578e-08 -7.2443893e-07 -1.3409864e-06 -0.27533066    -3.8806746e-12  1.321209e-11   8.2955636      12.443345      16.591127      1712.6118    
        49   0             -1003.1047     -6.7351796e-07  4.4938777e-08 -7.244331e-07  -1.3410596e-06 -0.27533066    -1.462625e-11  -5.0618107e-12  8.2955636      12.443345      16.591127      1712.6118    
Loop time of 0.114248 on 4 procs for 48 steps with 192 atoms

82.1% CPU use with 4 MPI tasks x 1 OpenMP threads

Minimization stats:
  Stopping criterion = force tolerance
  Energy initial, next-to-last, final = 
     -1003.10473048033  -1003.10473054361  -1003.10473054361
  Force two-norm initial, final = 0.001107453 8.759399e-11
  Force max component initial, final = 0.00014459563 1.5501794e-11
  Final line search alpha, max atom move = 1 1.5501794e-11
  Iterations, force evaluations = 48 96

MPI task timing breakdown:
Section |  min time  |  avg time  |  max time  |%varavg| %total
---------------------------------------------------------------
Pair    | 0.10753    | 0.10946    | 0.11095    |   0.4 | 95.81
Neigh   | 0          | 0          | 0          |   0.0 |  0.00
Comm    | 0.002159   | 0.0035997  | 0.005475   |   2.4 |  3.15
Output  | 0.000565   | 0.00059025 | 0.000641   |   0.0 |  0.52
Modify  | 0          | 0          | 0          |   0.0 |  0.00
Other   |            | 0.0005965  |            |       |  0.52

Nlocal:             48 ave          50 max          46 min
Histogram: 2 0 0 0 0 0 0 0 0 2
Nghost:            600 ave         602 max         598 min
Histogram: 2 0 0 0 0 0 0 0 0 2
Neighs:           2208 ave        2332 max        2097 min
Histogram: 1 1 0 0 0 0 0 1 0 1
FullNghs:         4416 ave        4600 max        4232 min
Histogram: 2 0 0 0 0 0 0 0 0 2

Total # of neighbors = 17664
Ave neighs/atom = 92
Neighbor list builds = 0
Dangerous builds = 0

# Obtain new stress tensor

variable tmp equal pe
variable e1 equal ${tmp}
variable e1 equal -1003.10473054361
variable tmp equal press
variable p1 equal ${tmp}
variable p1 equal -6.73517961642069e-07
variable tmp equal pxx
variable pxx1 equal ${tmp}
variable pxx1 equal 4.49387771633637e-08
variable tmp equal pyy
variable pyy1 equal ${tmp}
variable pyy1 equal -7.24433102309525e-07
variable tmp equal pzz
variable pzz1 equal ${tmp}
variable pzz1 equal -1.34105955978004e-06
variable tmp equal pxy
variable pxy1 equal ${tmp}
variable pxy1 equal -0.275330659800962
variable tmp equal pxz
variable pxz1 equal ${tmp}
variable pxz1 equal -1.46262498795291e-11
variable tmp equal pyz
variable pyz1 equal ${tmp}
variable pyz1 equal -5.06181074490778e-12

# Compute elastic constant from pressure tensor

variable C1pos equal ${d1}
variable C1pos equal -4.4306360710171e-06
variable C2pos equal ${d2}
variable C2pos equal 7.24442437013442e-05
variable C3pos equal ${d3}
variable C3pos equal 0.00013415947667818
variable C4pos equal ${d4}
variable C4pos equal 8.62886206779225e-10
variable C5pos equal ${d5}
variable C5pos equal 1.2318539697026e-09
variable C6pos equal ${d6}
variable C6pos equal 27.5330659802754

# Combine positive and negative

variable C1${dir} equal 0.5*(${C1neg}+${C1pos})
variable C16 equal 0.5*(${C1neg}+${C1pos})
variable C16 equal 0.5*(4.4448043079913e-06+${C1pos})
variable C16 equal 0.5*(4.4448043079913e-06+-4.4306360710171e-06)
variable C2${dir} equal 0.5*(${C2neg}+${C2pos})
variable C26 equal 0.5*(${C2neg}+${C2pos})
variable C26 equal 0.5*(-7.24347486586327e-05+${C2pos})
variable C26 equal 0.5*(-7.24347486586327e-05+7.24442437013442e-05)
variable C3${dir} equal 0.5*(${C3neg}+${C3pos})
variable C36 equal 0.5*(${C3neg}+${C3pos})
variable C36 equal 0.5*(-0.000134151390604513+${C3pos})
variable C36 equal 0.5*(-0.000134151390604513+0.00013415947667818)
variable C4${dir} equal 0.5*(${C4neg}+${C4pos})
variable C46 equal 0.5*(${C4neg}+${C4pos})
variable C46 equal 0.5*(-1.40993392588549e-10+${C4pos})
variable C46 equal 0.5*(-1.40993392588549e-10+8.62886206779225e-10)
variable C5${dir} equal 0.5*(${C5neg}+${C5pos})
variable C56 equal 0.5*(${C5neg}+${C5pos})
variable C56 equal 0.5*(1.04288689958018e-09+${C5pos})
variable C56 equal 0.5*(1.04288689958018e-09+1.2318539697026e-09)
variable C6${dir} equal 0.5*(${C6neg}+${C6pos})
variable C66 equal 0.5*(${C6neg}+${C6pos})
variable C66 equal 0.5*(27.5330659786498+${C6pos})
variable C66 equal 0.5*(27.5330659786498+27.5330659802754)

# Delete dir to make sure it is not reused

variable dir delete

# Output final values

variable C11all equal ${C11}
variable C11all equal 509.225773039136
variable C22all equal ${C22}
variable C22all equal 509.225773035435
variable C33all equal ${C33}
variable C33all equal 509.225773027248

variable C12all equal 0.5*(${C12}+${C21})
variable C12all equal 0.5*(245.295675926276+${C21})
variable C12all equal 0.5*(245.295675926276+245.295675928926)
variable C13all equal 0.5*(${C13}+${C31})
variable C13all equal 0.5*(245.295675923919+${C31})
variable C13all equal 0.5*(245.295675923919+245.295675927619)
variable C23all equal 0.5*(${C23}+${C32})
variable C23all equal 0.5*(245.295675919987+${C32})
variable C23all equal 0.5*(245.295675919987+245.295675927874)

variable C44all equal ${C44}
variable C44all equal 27.5330659797526
variable C55all equal ${C55}
variable C55all equal 27.5330659795051
variable C66all equal ${C66}
variable C66all equal 27.5330659794626

variable C14all equal 0.5*(${C14}+${C41})
variable C14all equal 0.5*(-5.38400794749454e-09+${C41})
variable C14all equal 0.5*(-5.38400794749454e-09+-1.97145661175371e-10)
variable C15all equal 0.5*(${C15}+${C51})
variable C15all equal 0.5*(1.06086508178749e-08+${C51})
variable C15all equal 0.5*(1.06086508178749e-08+8.0641575098777e-11)
variable C16all equal 0.5*(${C16}+${C61})
variable C16all equal 0.5*(7.08411848709995e-09+${C61})
variable C16all equal 0.5*(7.08411848709995e-09+-5.11526358750265e-10)

variable C24all equal 0.5*(${C24}+${C42})
variable C24all equal 0.5*(3.15419515521518e-09+${C42})
variable C24all equal 0.5*(3.15419515521518e-09+-2.79191011996661e-10)
variable C25all equal 0.5*(${C25}+${C52})
variable C25all equal 0.5*(7.99519337950252e-09+${C52})
variable C25all equal 0.5*(7.99519337950252e-09+-4.65217310871595e-10)
variable C26all equal 0.5*(${C26}+${C62})
variable C26all equal 0.5*(4.7475213557505e-09+${C62})
variable C26all equal 0.5*(4.7475213557505e-09+9.78910689124526e-10)

variable C34all equal 0.5*(${C34}+${C43})
variable C34all equal 0.5*(2.1592182825446e-09+${C43})
variable C34all equal 0.5*(2.1592182825446e-09+-5.72073619039887e-10)
variable C35all equal 0.5*(${C35}+${C53})
variable C35all equal 0.5*(5.09448931429918e-09+${C53})
variable C35all equal 0.5*(5.09448931429918e-09+-8.55422641398715e-10)
variable C36all equal 0.5*(${C36}+${C63})
variable C36all equal 0.5*(4.04303683349157e-09+${C63})
variable C36all equal 0.5*(4.04303683349157e-09+8.12728915076722e-10)

variable C45all equal 0.5*(${C45}+${C54})
variable C45all equal 0.5*(6.12800226870444e-10+${C54})
variable C45all equal 0.5*(6.12800226870444e-10+9.51401242059681e-10)
variable C46all equal 0.5*(${C46}+${C64})
variable C46all equal 0.5*(3.60946407095338e-10+${C64})
variable C46all equal 0.5*(3.60946407095338e-10+6.38758599038819e-10)
variable C56all equal 0.5*(${C56}+${C65})
variable C56all equal 0.5*(1.13737043464139e-09+${C65})
variable C56all equal 0.5*(1.13737043464139e-09+7.42621785874402e-10)

# Average moduli for cubic crystals

variable C11cubic equal (${C11all}+${C22all}+${C33all})/3.0
variable C11cubic equal (509.225773039136+${C22all}+${C33all})/3.0
variable C11cubic equal (509.225773039136+509.225773035435+${C33all})/3.0
variable C11cubic equal (509.225773039136+509.225773035435+509.225773027248)/3.0
variable C12cubic equal (${C12all}+${C13all}+${C23all})/3.0
variable C12cubic equal (245.295675927601+${C13all}+${C23all})/3.0
variable C12cubic equal (245.295675927601+245.295675925769+${C23all})/3.0
variable C12cubic equal (245.295675927601+245.295675925769+245.295675923931)/3.0
variable C44cubic equal (${C44all}+${C55all}+${C66all})/3.0
variable C44cubic equal (27.5330659797526+${C55all}+${C66all})/3.0
variable C44cubic equal (27.5330659797526+27.5330659795051+${C66all})/3.0
variable C44cubic equal (27.5330659797526+27.5330659795051+27.5330659794626)/3.0

variable bulkmodulus equal (${C11cubic}+2*${C12cubic})/3.0
variable bulkmodulus equal (509.22577303394+2*${C12cubic})/3.0
variable bulkmodulus equal (509.22577303394+2*245.295675925767)/3.0
variable shearmodulus1 equal ${C44cubic}
variable shearmodulus1 equal 27.5330659795734
variable shearmodulus2 equal (${C11cubic}-${C12cubic})/2.0
variable shearmodulus2 equal (509.22577303394-${C12cubic})/2.0
variable shearmodulus2 equal (509.22577303394-245.295675925767)/2.0
variable poissonratio equal 1.0/(1.0+${C11cubic}/${C12cubic})
variable poissonratio equal 1.0/(1.0+509.22577303394/${C12cubic})
variable poissonratio equal 1.0/(1.0+509.22577303394/245.295675925767)

# For Stillinger-Weber silicon, the analytical results
# are known to be (E. R. Cowley, 1988):
#               C11 = 151.4 GPa
#               C12 = 76.4 GPa
#               C44 = 56.4 GPa

print "========================================="
=========================================
print "Components of the Elastic Constant Tensor"
Components of the Elastic Constant Tensor
print "========================================="
=========================================

print "Elastic Constant C11all = ${C11all} ${cunits}"
Elastic Constant C11all = 509.225773039136 GPa
print "Elastic Constant C22all = ${C22all} ${cunits}"
Elastic Constant C22all = 509.225773035435 GPa
print "Elastic Constant C33all = ${C33all} ${cunits}"
Elastic Constant C33all = 509.225773027248 GPa

print "Elastic Constant C12all = ${C12all} ${cunits}"
Elastic Constant C12all = 245.295675927601 GPa
print "Elastic Constant C13all = ${C13all} ${cunits}"
Elastic Constant C13all = 245.295675925769 GPa
print "Elastic Constant C23all = ${C23all} ${cunits}"
Elastic Constant C23all = 245.295675923931 GPa

print "Elastic Constant C44all = ${C44all} ${cunits}"
Elastic Constant C44all = 27.5330659797526 GPa
print "Elastic Constant C55all = ${C55all} ${cunits}"
Elastic Constant C55all = 27.5330659795051 GPa
print "Elastic Constant C66all = ${C66all} ${cunits}"
Elastic Constant C66all = 27.5330659794626 GPa

print "Elastic Constant C14all = ${C14all} ${cunits}"
Elastic Constant C14all = -2.79057680433496e-09 GPa
print "Elastic Constant C15all = ${C15all} ${cunits}"
Elastic Constant C15all = 5.34464619648684e-09 GPa
print "Elastic Constant C16all = ${C16all} ${cunits}"
Elastic Constant C16all = 3.28629606417484e-09 GPa

print "Elastic Constant C24all = ${C24all} ${cunits}"
Elastic Constant C24all = 1.43750207160926e-09 GPa
print "Elastic Constant C25all = ${C25all} ${cunits}"
Elastic Constant C25all = 3.76498803431546e-09 GPa
print "Elastic Constant C26all = ${C26all} ${cunits}"
Elastic Constant C26all = 2.86321602243751e-09 GPa

print "Elastic Constant C34all = ${C34all} ${cunits}"
Elastic Constant C34all = 7.93572331752357e-10 GPa
print "Elastic Constant C35all = ${C35all} ${cunits}"
Elastic Constant C35all = 2.11953333645023e-09 GPa
print "Elastic Constant C36all = ${C36all} ${cunits}"
Elastic Constant C36all = 2.42788287428415e-09 GPa

print "Elastic Constant C45all = ${C45all} ${cunits}"
Elastic Constant C45all = 7.82100734465062e-10 GPa
print "Elastic Constant C46all = ${C46all} ${cunits}"
Elastic Constant C46all = 4.99852503067078e-10 GPa
print "Elastic Constant C56all = ${C56all} ${cunits}"
Elastic Constant C56all = 9.39996110257896e-10 GPa

print "========================================="
=========================================
print "Average properties for a cubic crystal"
Average properties for a cubic crystal
print "========================================="
=========================================

print "Bulk Modulus = ${bulkmodulus} ${cunits}"
Bulk Modulus = 333.272374961825 GPa
print "Shear Modulus 1 = ${shearmodulus1} ${cunits}"
Shear Modulus 1 = 27.5330659795734 GPa
print "Shear Modulus 2 = ${shearmodulus2} ${cunits}"
Shear Modulus 2 = 131.965048554087 GPa
print "Poisson Ratio = ${poissonratio}"
Poisson Ratio = 0.325100997809893
Total wall time: 0:00:01
