LAMMPS (22 Dec 2022)
  using 1 OpenMP thread(s) per MPI task
Loaded 1 plugins from C:\Program Files\LAMMPS 64-bit 23Jun2022\plugins
Loaded 0 plugins from C:\Program Files\LAMMPS 64-bit 23Jun2022-MPI\plugins
Loaded 1 plugins from C:\Program Files\LAMMPS 64-bit 22Dec2022-MSMPI\plugins
Loaded 1 plugins from C:\Program Files\LAMMPS 64-bit 28Mar2023-MPI\plugins
# Compute elastic constant tensor for a crystal
#
# Written by Aidan Thompson (Sandia, athomps@sandia.gov)
#
#  This script uses the following three include files.
#
#   init.mod      (must be modified for different crystal structures)
# 	       	  Define units, deformation parameters and initial
#		  configuration of the atoms and simulation cell.
#
#
#   potential.mod    (must be modified for different pair styles)
# 		     Define pair style and other attributes
#		     not stored in restart file
#
#
#   displace.mod    (displace.mod should not need to be modified)
# 		    Perform positive and negative box displacements
# 		    in direction ${dir} and size ${up}.
# 		    It uses the resultant changes
#		    in stress to compute one
# 		    row of the elastic stiffness tensor
#
#		    Inputs variables:
#		    	   dir = the Voigt deformation component
#		    		    (1,2,3,4,5,6)
#		    Global constants:
#       	    	   up = the deformation magnitude (strain units)
#       		   cfac = conversion from LAMMPS pressure units to
#               	   output units for elastic constants
#
#
#  To run this on a different system, it should only be necessary to
#  modify the files init.mod and potential.mod. In order to calculate
#  the elastic constants correctly, care must be taken to specify
#  the correct units in init.mod (units, cfac and cunits). It is also
#  important to verify that the minimization of energy w.r.t atom
#  positions in the deformed cell is fully converged.
#  One indication of this is that the elastic constants are insensitive
#  to the choice of the variable ${up} in init.mod. Another is to check
#  the final max and two-norm forces reported in the log file. If you know
#  that minimization is not required, you can set maxiter = 0.0 in
#  init.mod.
#

include init.mod
# NOTE: This script can be modified for different atomic structures,
# units, etc. See in.elastic for more info.
#

# Define the finite deformation size. Try several values of this
# variable to verify that results do not depend on it.
variable up equal 1.0e-6

# Define the amount of random jiggle for atoms
# This prevents atoms from staying on saddle points
variable atomjiggle equal 1.0e-5

# Uncomment one of these blocks, depending on what units
# you are using in LAMMPS and for output

# metal units, elastic constants in eV/A^3
#units		metal
#variable cfac equal 6.2414e-7
#variable cunits string eV/A^3

# metal units, elastic constants in GPa
units		metal
variable cfac equal 1.0e-4
variable cunits string GPa

# real units, elastic constants in GPa
#units		real
#variable cfac equal 1.01325e-4
#variable cunits string GPa

# Define minimization parameters
variable etol equal 0.0
variable ftol equal 1.0e-10
variable maxiter equal 100
variable maxeval equal 1000
variable dmax equal 1.0e-2

# generate the box and atom positions using a diamond lattice

dimension    3
boundary     p p p
read_data    data.in
Reading data file ...
  orthogonal box = (-9.0958083e-06 -9.0958083e-06 -9.0958083e-06) to (4.1480091 4.1480091 4.1480091)
  2 by 1 by 2 MPI processor grid
  reading atoms ...
  8 atoms
  reading velocities ...
  8 velocities
  read_data CPU = 0.001 seconds
#replicate    2 3 4
replicate    2 3 4
Replication is creating a 2x3x4 = 24 times larger system...
  orthogonal box = (-9.0958083e-06 -9.0958083e-06 -9.0958083e-06) to (8.2960273 12.444045 16.592064)
  1 by 2 by 2 MPI processor grid
  192 atoms
  replicate CPU = 0.000 seconds
change_box   all triclinic
Changing box ...
  triclinic box = (-9.0958083e-06 -9.0958083e-06 -9.0958083e-06) to (8.2960273 12.444045 16.592064) with tilt (0 0 0)

# Need to set mass to something, just to satisfy LAMMPS
mass 1 1.0e-20

include potential.mod
# NOTE: This script can be modified for different pair styles
# See in.elastic for more info.

# Choose potential
#-----------------------
#pair_style	sw
#pair_coeff * * Si.sw Si
#-----------------------
#pair_style morse	2.83994742	# D0[eV] a[1/A] r0[A] rc[A], 1NN for BCC
#pair_coeff 1 1	2.1173	1.0202	2.4595	2.6497	#	Fe-Fe
#-----------------------
#pair_style smatb # R0(A)   p       q     A(eV)   xi(eV)  Rcs(A)   Rc(A), 4NN: Rcs=4NN, Rc=(4NN+5NN)/2
#pair_coeff 1 1	2.4802	7.0149	2.3779	0.3144	3.0551	4.033	4.176	#	Co	Co
#-----------------------
#pair_style eam/alloy
#pair_coeff * * AlCrFeCoNi_Zhou04.eam.alloy Fe
#-----------------------
pair_style meam
#pair_coeff * * ./../../library.meam Fe Cr Ni N ./../../FeCrNiN.meam Fe Ni
pair_coeff * * ./../../library.meam Fe Cr Ni N ./../../FeCrNiN.meam Cr N
#pair_coeff * * ./../../library.meam Fe Cr Ni N ./../../FeCrNiN.meam Ni N
#-----------------------

# Setup neighbor style
neighbor 1.0 nsq
neigh_modify once no every 1 delay 0 check yes

# Setup minimization style
min_style	     cg
min_modify	     dmax ${dmax} line quadratic
min_modify	     dmax 0.01 line quadratic

# Setup output
thermo		1
thermo_style custom step temp pe press pxx pyy pzz pxy pxz pyz lx ly lz vol
thermo_modify norm no

# Compute initial state
fix 3 all box/relax  aniso 0.0
minimize ${etol} ${ftol} ${maxiter} ${maxeval}
minimize 0 ${ftol} ${maxiter} ${maxeval}
minimize 0 1e-10 ${maxiter} ${maxeval}
minimize 0 1e-10 100 ${maxeval}
minimize 0 1e-10 100 1000
Neighbor list info ...
  update: every = 1 steps, delay = 0 steps, check = yes
  max neighbors/atom: 2000, page size: 100000
  master list distance cutoff = 6
  ghost atom cutoff = 6
  2 neighbor lists, perpetual/occasional/extra = 2 0 0
  (1) pair meam, perpetual
      attributes: full, newton on
      pair build: full/nsq
      stencil: none
      bin: none
  (2) pair meam, perpetual, half/full from (1)
      attributes: half, newton on
      pair build: halffull/newton
      stencil: none
      bin: none
Per MPI rank memory allocation (min/avg/max) = 9.908 | 9.908 | 9.908 Mbytes
   Step          Temp          PotEng         Press           Pxx            Pyy            Pzz            Pxy            Pxz            Pyz             Lx             Ly             Lz           Volume    
         0   0             -1003.1047     -569.5956      -569.5956      -569.5956      -569.5956       1.3110486e-12  2.3495029e-12 -2.4144062e-12  8.2960364      12.444055      16.592073      1712.9047    
         1   0             -1003.1047     -0.13866938    -0.13866938    -0.13866938    -0.13866938    -1.0159118e-12 -4.7095462e-12 -2.2070926e-12  8.2955637      12.443346      16.591127      1712.6119    
         2   0             -1003.1047     -7.842488e-05  -7.8425021e-05 -7.8424779e-05 -7.8424839e-05 -1.9409433e-12  1.4768047e-12 -4.9659586e-13  8.2955636      12.443345      16.591127      1712.6118    
         3   0             -1003.1047     -6.157053e-10  -3.1349805e-10 -5.9250053e-10 -9.4111732e-10 -1.3372385e-12  3.3885365e-12  1.3989073e-12  8.2955636      12.443345      16.591127      1712.6118    
Loop time of 0.00803075 on 4 procs for 3 steps with 192 atoms

0.0% CPU use with 4 MPI tasks x 1 OpenMP threads

Minimization stats:
  Stopping criterion = force tolerance
  Energy initial, next-to-last, final = 
     -1003.10467847967  -1003.10473054376  -1003.10473054375
  Force two-norm initial, final = 1.0547514 1.2393046e-12
  Force max component initial, final = 0.60896099 1.0060443e-12
  Final line search alpha, max atom move = 1 1.0060443e-12
  Iterations, force evaluations = 3 6

MPI task timing breakdown:
Section |  min time  |  avg time  |  max time  |%varavg| %total
---------------------------------------------------------------
Pair    | 0.007531   | 0.0075438  | 0.007563   |   0.0 | 93.94
Neigh   | 0          | 0          | 0          |   0.0 |  0.00
Comm    | 0.000173   | 0.0001865  | 0.000206   |   0.0 |  2.32
Output  | 2.8e-05    | 2.8e-05    | 2.8e-05    |   0.0 |  0.35
Modify  | 0          | 0          | 0          |   0.0 |  0.00
Other   |            | 0.0002725  |            |       |  3.39

Nlocal:             48 ave          48 max          48 min
Histogram: 4 0 0 0 0 0 0 0 0 0
Nghost:            600 ave         600 max         600 min
Histogram: 4 0 0 0 0 0 0 0 0 0
Neighs:           2208 ave        2208 max        2208 min
Histogram: 4 0 0 0 0 0 0 0 0 0
FullNghs:         4416 ave        4416 max        4416 min
Histogram: 4 0 0 0 0 0 0 0 0 0

Total # of neighbors = 17664
Ave neighs/atom = 92
Neighbor list builds = 0
Dangerous builds = 0

variable tmp equal pxx
variable pxx0 equal ${tmp}
variable pxx0 equal -3.13498046564846e-10
variable tmp equal pyy
variable pyy0 equal ${tmp}
variable pyy0 equal -5.92500532201924e-10
variable tmp equal pzz
variable pzz0 equal ${tmp}
variable pzz0 equal -9.41117318815551e-10
variable tmp equal pyz
variable pyz0 equal ${tmp}
variable pyz0 equal 1.39890729769173e-12
variable tmp equal pxz
variable pxz0 equal ${tmp}
variable pxz0 equal 3.38853647051082e-12
variable tmp equal pxy
variable pxy0 equal ${tmp}
variable pxy0 equal -1.3372385305081e-12

variable tmp equal lx
variable lx0 equal ${tmp}
variable lx0 equal 8.29556357884772
variable tmp equal ly
variable ly0 equal ${tmp}
variable ly0 equal 12.4433453682716
variable tmp equal lz
variable lz0 equal ${tmp}
variable lz0 equal 16.5911271576954

# These formulas define the derivatives w.r.t. strain components
# Constants uses $, variables use v_
variable d1 equal -(v_pxx1-${pxx0})/(v_delta/v_len0)*${cfac}
variable d1 equal -(v_pxx1--3.13498046564846e-10)/(v_delta/v_len0)*${cfac}
variable d1 equal -(v_pxx1--3.13498046564846e-10)/(v_delta/v_len0)*0.0001
variable d2 equal -(v_pyy1-${pyy0})/(v_delta/v_len0)*${cfac}
variable d2 equal -(v_pyy1--5.92500532201924e-10)/(v_delta/v_len0)*${cfac}
variable d2 equal -(v_pyy1--5.92500532201924e-10)/(v_delta/v_len0)*0.0001
variable d3 equal -(v_pzz1-${pzz0})/(v_delta/v_len0)*${cfac}
variable d3 equal -(v_pzz1--9.41117318815551e-10)/(v_delta/v_len0)*${cfac}
variable d3 equal -(v_pzz1--9.41117318815551e-10)/(v_delta/v_len0)*0.0001
variable d4 equal -(v_pyz1-${pyz0})/(v_delta/v_len0)*${cfac}
variable d4 equal -(v_pyz1-1.39890729769173e-12)/(v_delta/v_len0)*${cfac}
variable d4 equal -(v_pyz1-1.39890729769173e-12)/(v_delta/v_len0)*0.0001
variable d5 equal -(v_pxz1-${pxz0})/(v_delta/v_len0)*${cfac}
variable d5 equal -(v_pxz1-3.38853647051082e-12)/(v_delta/v_len0)*${cfac}
variable d5 equal -(v_pxz1-3.38853647051082e-12)/(v_delta/v_len0)*0.0001
variable d6 equal -(v_pxy1-${pxy0})/(v_delta/v_len0)*${cfac}
variable d6 equal -(v_pxy1--1.3372385305081e-12)/(v_delta/v_len0)*${cfac}
variable d6 equal -(v_pxy1--1.3372385305081e-12)/(v_delta/v_len0)*0.0001

displace_atoms all random ${atomjiggle} ${atomjiggle} ${atomjiggle} 87287 units box
displace_atoms all random 1e-05 ${atomjiggle} ${atomjiggle} 87287 units box
displace_atoms all random 1e-05 1e-05 ${atomjiggle} 87287 units box
displace_atoms all random 1e-05 1e-05 1e-05 87287 units box
Displacing atoms ...

# Write restart
unfix 3
write_restart restart.equil
System init for write_restart ...

# uxx Perturbation

variable dir equal 1
include displace.mod
# NOTE: This script should not need to be
# modified. See in.elastic for more info.
#
# Find which reference length to use

if "${dir} == 1" then    "variable len0 equal ${lx0}"
variable len0 equal ${lx0}
variable len0 equal 8.29556357884772
if "${dir} == 2" then    "variable len0 equal ${ly0}"
if "${dir} == 3" then    "variable len0 equal ${lz0}"
if "${dir} == 4" then    "variable len0 equal ${lz0}"
if "${dir} == 5" then    "variable len0 equal ${lz0}"
if "${dir} == 6" then    "variable len0 equal ${ly0}"

# Reset box and simulation parameters

clear
  using 1 OpenMP thread(s) per MPI task
Loaded 1 plugins from C:\Program Files\LAMMPS 64-bit 23Jun2022\plugins
Loaded 0 plugins from C:\Program Files\LAMMPS 64-bit 23Jun2022-MPI\plugins
Loaded 1 plugins from C:\Program Files\LAMMPS 64-bit 22Dec2022-MSMPI\plugins
Loaded 1 plugins from C:\Program Files\LAMMPS 64-bit 28Mar2023-MPI\plugins
box tilt large

The 'box' command has been removed and will be ignored

read_restart restart.equil
Reading restart file ...
  restart file = 22 Dec 2022, LAMMPS = 22 Dec 2022
  restoring atom style atomic from restart
  triclinic box = (0.00022730638 0.00034550748 0.00046370858) to (8.2957909 12.443691 16.591591) with tilt (0 0 0)
  1 by 2 by 2 MPI processor grid
  pair style meam stores no restart info
  192 atoms
  read_restart CPU = 0.000 seconds
include potential.mod
# NOTE: This script can be modified for different pair styles
# See in.elastic for more info.

# Choose potential
#-----------------------
#pair_style	sw
#pair_coeff * * Si.sw Si
#-----------------------
#pair_style morse	2.83994742	# D0[eV] a[1/A] r0[A] rc[A], 1NN for BCC
#pair_coeff 1 1	2.1173	1.0202	2.4595	2.6497	#	Fe-Fe
#-----------------------
#pair_style smatb # R0(A)   p       q     A(eV)   xi(eV)  Rcs(A)   Rc(A), 4NN: Rcs=4NN, Rc=(4NN+5NN)/2
#pair_coeff 1 1	2.4802	7.0149	2.3779	0.3144	3.0551	4.033	4.176	#	Co	Co
#-----------------------
#pair_style eam/alloy
#pair_coeff * * AlCrFeCoNi_Zhou04.eam.alloy Fe
#-----------------------
pair_style meam
#pair_coeff * * ./../../library.meam Fe Cr Ni N ./../../FeCrNiN.meam Fe Ni
pair_coeff * * ./../../library.meam Fe Cr Ni N ./../../FeCrNiN.meam Cr N
#pair_coeff * * ./../../library.meam Fe Cr Ni N ./../../FeCrNiN.meam Ni N
#-----------------------

# Setup neighbor style
neighbor 1.0 nsq
neigh_modify once no every 1 delay 0 check yes

# Setup minimization style
min_style	     cg
min_modify	     dmax ${dmax} line quadratic
min_modify	     dmax 0.01 line quadratic

# Setup output
thermo		1
thermo_style custom step temp pe press pxx pyy pzz pxy pxz pyz lx ly lz vol
thermo_modify norm no

# Negative deformation

variable delta equal -${up}*${len0}
variable delta equal -1e-06*${len0}
variable delta equal -1e-06*8.29556357884772
variable deltaxy equal -${up}*xy
variable deltaxy equal -1e-06*xy
variable deltaxz equal -${up}*xz
variable deltaxz equal -1e-06*xz
variable deltayz equal -${up}*yz
variable deltayz equal -1e-06*yz
if "${dir} == 1" then    "change_box all x delta 0 ${delta} xy delta ${deltaxy} xz delta ${deltaxz} remap units box"
change_box all x delta 0 ${delta} xy delta ${deltaxy} xz delta ${deltaxz} remap units box
change_box all x delta 0 -8.29556357884772e-06 xy delta ${deltaxy} xz delta ${deltaxz} remap units box
change_box all x delta 0 -8.29556357884772e-06 xy delta -0 xz delta ${deltaxz} remap units box
change_box all x delta 0 -8.29556357884772e-06 xy delta -0 xz delta -0 remap units box
Changing box ...
  triclinic box = (0.00022730638 0.00034550748 0.00046370858) to (8.2957826 12.443691 16.591591) with tilt (0 0 0)
  triclinic box = (0.00022730638 0.00034550748 0.00046370858) to (8.2957826 12.443691 16.591591) with tilt (0 0 0)
  triclinic box = (0.00022730638 0.00034550748 0.00046370858) to (8.2957826 12.443691 16.591591) with tilt (0 0 0)
if "${dir} == 2" then    "change_box all y delta 0 ${delta} yz delta ${deltayz} remap units box"
if "${dir} == 3" then    "change_box all z delta 0 ${delta} remap units box"
if "${dir} == 4" then    "change_box all yz delta ${delta} remap units box"
if "${dir} == 5" then    "change_box all xz delta ${delta} remap units box"
if "${dir} == 6" then    "change_box all xy delta ${delta} remap units box"

# Relax atoms positions

minimize ${etol} ${ftol} ${maxiter} ${maxeval}
minimize 0 ${ftol} ${maxiter} ${maxeval}
minimize 0 1e-10 ${maxiter} ${maxeval}
minimize 0 1e-10 100 ${maxeval}
minimize 0 1e-10 100 1000
Neighbor list info ...
  update: every = 1 steps, delay = 0 steps, check = yes
  max neighbors/atom: 2000, page size: 100000
  master list distance cutoff = 6
  ghost atom cutoff = 6
  2 neighbor lists, perpetual/occasional/extra = 2 0 0
  (1) pair meam, perpetual
      attributes: full, newton on
      pair build: full/nsq
      stencil: none
      bin: none
  (2) pair meam, perpetual, half/full from (1)
      attributes: half, newton on
      pair build: halffull/newton
      stencil: none
      bin: none
Per MPI rank memory allocation (min/avg/max) = 9.877 | 9.879 | 9.881 Mbytes
   Step          Temp          PotEng         Press           Pxx            Pyy            Pzz            Pxy            Pxz            Pyz             Lx             Ly             Lz           Volume    
         3   0             -1003.1047      3.3331065      5.0926303      2.4533448      2.4533444     -2.3380995e-05  4.1696845e-05 -7.0084736e-06  8.2955553      12.443345      16.591127      1712.6101    
         4   0             -1003.1047      3.3328088      5.0923728      2.4530205      2.4530331     -1.6972942e-05 -2.3279155e-06 -1.0117071e-05  8.2955553      12.443345      16.591127      1712.6101    
         5   0             -1003.1047      3.332752       5.092306       2.4529756      2.4529743     -5.2729161e-06  4.937096e-06  -8.9841259e-07  8.2955553      12.443345      16.591127      1712.6101    
         6   0             -1003.1047      3.3327439      5.0922971      2.4529675      2.4529672     -3.3825462e-06 -1.9885332e-06  2.1973883e-06  8.2955553      12.443345      16.591127      1712.6101    
         7   0             -1003.1047      3.3327409      5.0922948      2.4529642      2.4529636     -2.7189489e-06 -7.1113207e-08  1.2989076e-06  8.2955553      12.443345      16.591127      1712.6101    
         8   0             -1003.1047      3.33274        5.0922939      2.4529632      2.452963      -8.1927127e-07  9.2315724e-07  1.5495044e-07  8.2955553      12.443345      16.591127      1712.6101    
         9   0             -1003.1047      3.3327399      5.0922938      2.4529631      2.4529629      1.0193143e-08  3.7239871e-07 -3.4754605e-08  8.2955553      12.443345      16.591127      1712.6101    
        10   0             -1003.1047      3.3327401      5.0922939      2.4529632      2.4529632      6.1120612e-08  1.3012792e-07  5.4411095e-08  8.2955553      12.443345      16.591127      1712.6101    
        11   0             -1003.1047      3.3327402      5.092294       2.4529633      2.4529633      8.4194128e-08  3.5871472e-08  8.408509e-08   8.2955553      12.443345      16.591127      1712.6101    
        12   0             -1003.1047      3.3327402      5.092294       2.4529634      2.4529633     -6.9863253e-09  6.223201e-08   2.1203485e-08  8.2955553      12.443345      16.591127      1712.6101    
        13   0             -1003.1047      3.3327402      5.092294       2.4529634      2.4529634     -2.1510204e-08  6.0441483e-08  6.4748698e-09  8.2955553      12.443345      16.591127      1712.6101    
        14   0             -1003.1047      3.3327403      5.092294       2.4529634      2.4529634     -6.6277243e-09  3.2154364e-08  1.0077875e-08  8.2955553      12.443345      16.591127      1712.6101    
        15   0             -1003.1047      3.3327403      5.092294       2.4529634      2.4529634     -6.0227466e-09  1.313351e-08   3.9282066e-09  8.2955553      12.443345      16.591127      1712.6101    
        16   0             -1003.1047      3.3327403      5.092294       2.4529634      2.4529634     -1.4456199e-08  1.333332e-08  -1.0569184e-09  8.2955553      12.443345      16.591127      1712.6101    
        17   0             -1003.1047      3.3327403      5.092294       2.4529634      2.4529634     -1.4748419e-08  1.54455e-08    2.4266876e-09  8.2955553      12.443345      16.591127      1712.6101    
        18   0             -1003.1047      3.3327403      5.092294       2.4529634      2.4529634     -8.8817654e-09  8.8586187e-09  2.341111e-09   8.2955553      12.443345      16.591127      1712.6101    
        19   0             -1003.1047      3.3327403      5.092294       2.4529634      2.4529634     -6.4388619e-09  4.3678183e-09  4.9450837e-10  8.2955553      12.443345      16.591127      1712.6101    
        20   0             -1003.1047      3.3327403      5.092294       2.4529634      2.4529634     -6.2533621e-09  1.5113354e-09 -1.005526e-09   8.2955553      12.443345      16.591127      1712.6101    
        21   0             -1003.1047      3.3327403      5.092294       2.4529634      2.4529634     -4.1112206e-09  4.2272664e-10  1.2192399e-10  8.2955553      12.443345      16.591127      1712.6101    
        22   0             -1003.1047      3.3327403      5.092294       2.4529634      2.4529634     -2.2693869e-09  8.6548692e-10  6.9776139e-10  8.2955553      12.443345      16.591127      1712.6101    
        23   0             -1003.1047      3.3327403      5.092294       2.4529634      2.4529634     -1.2130064e-09  2.1219372e-10  5.1549655e-10  8.2955553      12.443345      16.591127      1712.6101    
        24   0             -1003.1047      3.3327403      5.092294       2.4529634      2.4529634     -7.0945119e-10 -7.5605173e-13  7.6630523e-11  8.2955553      12.443345      16.591127      1712.6101    
        25   0             -1003.1047      3.3327403      5.092294       2.4529634      2.4529634     -6.5389731e-10  5.1650687e-11 -6.3549963e-11  8.2955553      12.443345      16.591127      1712.6101    
        26   0             -1003.1047      3.3327403      5.092294       2.4529634      2.4529634     -5.0551562e-10  1.5237982e-10  1.8529697e-11  8.2955553      12.443345      16.591127      1712.6101    
        27   0             -1003.1047      3.3327403      5.092294       2.4529634      2.4529634     -3.9525175e-10  1.7657246e-10  7.2238683e-11  8.2955553      12.443345      16.591127      1712.6101    
        28   0             -1003.1047      3.3327403      5.092294       2.4529634      2.4529634     -2.913625e-10   1.1643744e-10  3.3921892e-11  8.2955553      12.443345      16.591127      1712.6101    
        29   0             -1003.1047      3.3327403      5.092294       2.4529634      2.4529634     -2.0419523e-10  1.0428868e-10 -1.6878698e-11  8.2955553      12.443345      16.591127      1712.6101    
        30   0             -1003.1047      3.3327403      5.092294       2.4529634      2.4529634     -9.5710022e-11  7.2406305e-11 -8.3931233e-12  8.2955553      12.443345      16.591127      1712.6101    
        31   0             -1003.1047      3.3327403      5.092294       2.4529634      2.4529634     -7.487245e-11   2.0562903e-11 -2.1206453e-11  8.2955553      12.443345      16.591127      1712.6101    
        32   0             -1003.1047      3.3327403      5.092294       2.4529634      2.4529634     -1.8072213e-11  1.169172e-11   2.9381682e-12  8.2955553      12.443345      16.591127      1712.6101    
        33   0             -1003.1047      3.3327403      5.092294       2.4529634      2.4529634     -2.6653917e-11  1.8297588e-11  9.0981246e-12  8.2955553      12.443345      16.591127      1712.6101    
        34   0             -1003.1047      3.3327403      5.092294       2.4529634      2.4529634      5.0114038e-12 -4.3231066e-12  7.3798532e-12  8.2955553      12.443345      16.591127      1712.6101    
        35   0             -1003.1047      3.3327403      5.092294       2.4529634      2.4529634     -3.3236253e-12  4.0455969e-12  2.4580683e-13  8.2955553      12.443345      16.591127      1712.6101    
        36   0             -1003.1047      3.3327403      5.092294       2.4529634      2.4529634     -1.4385066e-11  1.1610171e-11  1.436932e-11   8.2955553      12.443345      16.591127      1712.6101    
        37   0             -1003.1047      3.3327403      5.092294       2.4529634      2.4529634      1.8682409e-11 -2.5495192e-12  4.120965e-13   8.2955553      12.443345      16.591127      1712.6101    
        38   0             -1003.1047      3.3327403      5.092294       2.4529634      2.4529634      9.2697987e-12 -7.1708271e-12  3.6414515e-13  8.2955553      12.443345      16.591127      1712.6101    
        39   0             -1003.1047      3.3327403      5.092294       2.4529634      2.4529634     -9.8799955e-12 -7.0338979e-12 -9.0741453e-12  8.2955553      12.443345      16.591127      1712.6101    
        40   0             -1003.1047      3.3327403      5.092294       2.4529634      2.4529634      1.106144e-11   1.8500649e-13  3.1464788e-12  8.2955553      12.443345      16.591127      1712.6101    
        41   0             -1003.1047      3.3327403      5.092294       2.4529634      2.4529634     -4.6998139e-12  9.9666159e-12 -2.2050553e-12  8.2955553      12.443345      16.591127      1712.6101    
        42   0             -1003.1047      3.3327403      5.092294       2.4529634      2.4529634     -4.1545316e-12 -7.9500046e-13  8.4162721e-12  8.2955553      12.443345      16.591127      1712.6101    
        43   0             -1003.1047      3.3327403      5.092294       2.4529634      2.4529634      1.0645987e-12 -6.8734373e-12  4.3272557e-12  8.2955553      12.443345      16.591127      1712.6101    
        44   0             -1003.1047      3.3327403      5.092294       2.4529634      2.4529634      1.5839152e-12 -5.439637e-12   2.0925372e-11  8.2955553      12.443345      16.591127      1712.6101    
        45   0             -1003.1047      3.3327403      5.092294       2.4529634      2.4529634     -8.9711917e-12  1.8462106e-12 -1.0232079e-11  8.2955553      12.443345      16.591127      1712.6101    
        46   0             -1003.1047      3.3327403      5.092294       2.4529634      2.4529634      9.6073544e-13 -2.1768691e-12  3.8933385e-12  8.2955553      12.443345      16.591127      1712.6101    
        47   0             -1003.1047      3.3327403      5.092294       2.4529634      2.4529634      4.8815747e-12  3.5593463e-12  5.5633851e-12  8.2955553      12.443345      16.591127      1712.6101    
        48   0             -1003.1047      3.3327403      5.092294       2.4529634      2.4529634     -5.0893012e-12 -1.6068381e-12  2.4273163e-12  8.2955553      12.443345      16.591127      1712.6101    
        49   0             -1003.1047      3.3327403      5.092294       2.4529634      2.4529634     -4.544019e-12   3.7861415e-12  8.4903708e-12  8.2955553      12.443345      16.591127      1712.6101    
        50   0             -1003.1047      3.3327403      5.092294       2.4529634      2.4529634      2.2590266e-12  1.9606225e-12  2.1820189e-11  8.2955553      12.443345      16.591127      1712.6101    
        51   0             -1003.1047      3.3327403      5.092294       2.4529634      2.4529634      1.6877785e-13  4.3977584e-12 -1.4220947e-11  8.2955553      12.443345      16.591127      1712.6101    
Loop time of 0.119886 on 4 procs for 48 steps with 192 atoms

61.9% CPU use with 4 MPI tasks x 1 OpenMP threads

Minimization stats:
  Stopping criterion = force tolerance
  Energy initial, next-to-last, final = 
     -1003.10473047527  -1003.10473054103  -1003.10473054103
  Force two-norm initial, final = 0.0011276319 8.5613668e-11
  Force max component initial, final = 0.0001208536 1.2432048e-11
  Final line search alpha, max atom move = 1 1.2432048e-11
  Iterations, force evaluations = 48 96

MPI task timing breakdown:
Section |  min time  |  avg time  |  max time  |%varavg| %total
---------------------------------------------------------------
Pair    | 0.11173    | 0.11368    | 0.11527    |   0.4 | 94.82
Neigh   | 0          | 0          | 0          |   0.0 |  0.00
Comm    | 0.003258   | 0.0049277  | 0.006794   |   1.8 |  4.11
Output  | 0.000531   | 0.0005625  | 0.000622   |   0.0 |  0.47
Modify  | 0          | 0          | 0          |   0.0 |  0.00
Other   |            | 0.000717   |            |       |  0.60

Nlocal:             48 ave          50 max          46 min
Histogram: 1 0 1 0 0 0 0 1 0 1
Nghost:            600 ave         602 max         598 min
Histogram: 1 0 1 0 0 0 0 1 0 1
Neighs:           2208 ave        2293 max        2123 min
Histogram: 1 1 0 0 0 0 0 0 1 1
FullNghs:         4416 ave        4600 max        4232 min
Histogram: 1 0 1 0 0 0 0 1 0 1

Total # of neighbors = 17664
Ave neighs/atom = 92
Neighbor list builds = 0
Dangerous builds = 0

# Obtain new stress tensor

variable tmp equal pxx
variable pxx1 equal ${tmp}
variable pxx1 equal 5.09229403091355
variable tmp equal pyy
variable pyy1 equal ${tmp}
variable pyy1 equal 2.4529634113449
variable tmp equal pzz
variable pzz1 equal ${tmp}
variable pzz1 equal 2.45296341110908
variable tmp equal pxy
variable pxy1 equal ${tmp}
variable pxy1 equal 1.68777847385666e-13
variable tmp equal pxz
variable pxz1 equal ${tmp}
variable pxz1 equal 4.39775835754069e-12
variable tmp equal pyz
variable pyz1 equal ${tmp}
variable pyz1 equal -1.42209473088577e-11

# Compute elastic constant from pressure tensor

variable C1neg equal ${d1}
variable C1neg equal 509.229403122705
variable C2neg equal ${d2}
variable C2neg equal 245.29634119374
variable C3neg equal ${d3}
variable C3neg equal 245.29634120502
variable C4neg equal ${d4}
variable C4neg equal -1.56198546065494e-09
variable C5neg equal ${d5}
variable C5neg equal 1.00922188702987e-10
variable C6neg equal ${d6}
variable C6neg equal 1.50601637789377e-10

# Reset box and simulation parameters

clear
  using 1 OpenMP thread(s) per MPI task
Loaded 1 plugins from C:\Program Files\LAMMPS 64-bit 23Jun2022\plugins
Loaded 0 plugins from C:\Program Files\LAMMPS 64-bit 23Jun2022-MPI\plugins
Loaded 1 plugins from C:\Program Files\LAMMPS 64-bit 22Dec2022-MSMPI\plugins
Loaded 1 plugins from C:\Program Files\LAMMPS 64-bit 28Mar2023-MPI\plugins
box tilt large

The 'box' command has been removed and will be ignored

read_restart restart.equil
Reading restart file ...
  restart file = 22 Dec 2022, LAMMPS = 22 Dec 2022
  restoring atom style atomic from restart
  triclinic box = (0.00022730638 0.00034550748 0.00046370858) to (8.2957909 12.443691 16.591591) with tilt (0 0 0)
  1 by 2 by 2 MPI processor grid
  pair style meam stores no restart info
  192 atoms
  read_restart CPU = 0.000 seconds
include potential.mod
# NOTE: This script can be modified for different pair styles
# See in.elastic for more info.

# Choose potential
#-----------------------
#pair_style	sw
#pair_coeff * * Si.sw Si
#-----------------------
#pair_style morse	2.83994742	# D0[eV] a[1/A] r0[A] rc[A], 1NN for BCC
#pair_coeff 1 1	2.1173	1.0202	2.4595	2.6497	#	Fe-Fe
#-----------------------
#pair_style smatb # R0(A)   p       q     A(eV)   xi(eV)  Rcs(A)   Rc(A), 4NN: Rcs=4NN, Rc=(4NN+5NN)/2
#pair_coeff 1 1	2.4802	7.0149	2.3779	0.3144	3.0551	4.033	4.176	#	Co	Co
#-----------------------
#pair_style eam/alloy
#pair_coeff * * AlCrFeCoNi_Zhou04.eam.alloy Fe
#-----------------------
pair_style meam
#pair_coeff * * ./../../library.meam Fe Cr Ni N ./../../FeCrNiN.meam Fe Ni
pair_coeff * * ./../../library.meam Fe Cr Ni N ./../../FeCrNiN.meam Cr N
#pair_coeff * * ./../../library.meam Fe Cr Ni N ./../../FeCrNiN.meam Ni N
#-----------------------

# Setup neighbor style
neighbor 1.0 nsq
neigh_modify once no every 1 delay 0 check yes

# Setup minimization style
min_style	     cg
min_modify	     dmax ${dmax} line quadratic
min_modify	     dmax 0.01 line quadratic

# Setup output
thermo		1
thermo_style custom step temp pe press pxx pyy pzz pxy pxz pyz lx ly lz vol
thermo_modify norm no

# Positive deformation

variable delta equal ${up}*${len0}
variable delta equal 1e-06*${len0}
variable delta equal 1e-06*8.29556357884772
variable deltaxy equal ${up}*xy
variable deltaxy equal 1e-06*xy
variable deltaxz equal ${up}*xz
variable deltaxz equal 1e-06*xz
variable deltayz equal ${up}*yz
variable deltayz equal 1e-06*yz
if "${dir} == 1" then    "change_box all x delta 0 ${delta} xy delta ${deltaxy} xz delta ${deltaxz} remap units box"
change_box all x delta 0 ${delta} xy delta ${deltaxy} xz delta ${deltaxz} remap units box
change_box all x delta 0 8.29556357884772e-06 xy delta ${deltaxy} xz delta ${deltaxz} remap units box
change_box all x delta 0 8.29556357884772e-06 xy delta 0 xz delta ${deltaxz} remap units box
change_box all x delta 0 8.29556357884772e-06 xy delta 0 xz delta 0 remap units box
Changing box ...
  triclinic box = (0.00022730638 0.00034550748 0.00046370858) to (8.2957992 12.443691 16.591591) with tilt (0 0 0)
  triclinic box = (0.00022730638 0.00034550748 0.00046370858) to (8.2957992 12.443691 16.591591) with tilt (0 0 0)
  triclinic box = (0.00022730638 0.00034550748 0.00046370858) to (8.2957992 12.443691 16.591591) with tilt (0 0 0)
if "${dir} == 2" then    "change_box all y delta 0 ${delta} yz delta ${deltayz} remap units box"
if "${dir} == 3" then    "change_box all z delta 0 ${delta} remap units box"
if "${dir} == 4" then    "change_box all yz delta ${delta} remap units box"
if "${dir} == 5" then    "change_box all xz delta ${delta} remap units box"
if "${dir} == 6" then    "change_box all xy delta ${delta} remap units box"

# Relax atoms positions

minimize ${etol} ${ftol} ${maxiter} ${maxeval}
minimize 0 ${ftol} ${maxiter} ${maxeval}
minimize 0 1e-10 ${maxiter} ${maxeval}
minimize 0 1e-10 100 ${maxeval}
minimize 0 1e-10 100 1000
Neighbor list info ...
  update: every = 1 steps, delay = 0 steps, check = yes
  max neighbors/atom: 2000, page size: 100000
  master list distance cutoff = 6
  ghost atom cutoff = 6
  2 neighbor lists, perpetual/occasional/extra = 2 0 0
  (1) pair meam, perpetual
      attributes: full, newton on
      pair build: full/nsq
      stencil: none
      bin: none
  (2) pair meam, perpetual, half/full from (1)
      attributes: half, newton on
      pair build: halffull/newton
      stencil: none
      bin: none
Per MPI rank memory allocation (min/avg/max) = 9.877 | 9.879 | 9.881 Mbytes
   Step          Temp          PotEng         Press           Pxx            Pyy            Pzz            Pxy            Pxz            Pyz             Lx             Ly             Lz           Volume    
         3   0             -1003.1047     -3.332341      -5.0918852     -2.4525687     -2.4525691     -2.3380849e-05  4.1696514e-05 -7.0084721e-06  8.2955719      12.443345      16.591127      1712.6136    
         4   0             -1003.1047     -3.3326387     -5.0921427     -2.452893      -2.4528804     -1.697241e-05  -2.3277752e-06 -1.0116957e-05  8.2955719      12.443345      16.591127      1712.6136    
         5   0             -1003.1047     -3.3326955     -5.0922094     -2.452938      -2.4529392     -5.272583e-06   4.9368985e-06 -8.9812428e-07  8.2955719      12.443345      16.591127      1712.6136    
         6   0             -1003.1047     -3.3327036     -5.0922184     -2.452946      -2.4529463     -3.3824876e-06 -1.9886805e-06  2.1974656e-06  8.2955719      12.443345      16.591127      1712.6136    
         7   0             -1003.1047     -3.3327066     -5.0922207     -2.4529493     -2.4529499     -2.7189564e-06 -7.1128456e-08  1.2987876e-06  8.2955719      12.443345      16.591127      1712.6136    
         8   0             -1003.1047     -3.3327075     -5.0922216     -2.4529503     -2.4529505     -8.1923186e-07  9.2317158e-07  1.5487645e-07  8.2955719      12.443345      16.591127      1712.6136    
         9   0             -1003.1047     -3.3327076     -5.0922217     -2.4529504     -2.4529506      1.0197537e-08  3.7240547e-07 -3.4746551e-08  8.2955719      12.443345      16.591127      1712.6136    
        10   0             -1003.1047     -3.3327074     -5.0922216     -2.4529503     -2.4529504      6.1118439e-08  1.3011631e-07  5.4411369e-08  8.2955719      12.443345      16.591127      1712.6136    
        11   0             -1003.1047     -3.3327073     -5.0922215     -2.4529502     -2.4529502      8.4177562e-08  3.5878203e-08  8.4082246e-08  8.2955719      12.443345      16.591127      1712.6136    
        12   0             -1003.1047     -3.3327073     -5.0922215     -2.4529502     -2.4529502     -6.9785346e-09  6.2228427e-08  2.1214996e-08  8.2955719      12.443345      16.591127      1712.6136    
        13   0             -1003.1047     -3.3327073     -5.0922215     -2.4529502     -2.4529502     -2.1513576e-08  6.0436659e-08  6.4390654e-09  8.2955719      12.443345      16.591127      1712.6136    
        14   0             -1003.1047     -3.3327072     -5.0922215     -2.4529501     -2.4529501     -6.6281784e-09  3.2150194e-08  1.0077399e-08  8.2955719      12.443345      16.591127      1712.6136    
        15   0             -1003.1047     -3.3327072     -5.0922214     -2.4529501     -2.4529501     -6.0501284e-09  1.311837e-08   3.9227055e-09  8.2955719      12.443345      16.591127      1712.6136    
        16   0             -1003.1047     -3.3327072     -5.0922214     -2.4529501     -2.4529501     -1.4418598e-08  1.3330659e-08 -1.057652e-09   8.2955719      12.443345      16.591127      1712.6136    
        17   0             -1003.1047     -3.3327072     -5.0922214     -2.4529501     -2.4529501     -1.4735354e-08  1.5462677e-08  2.427157e-09   8.2955719      12.443345      16.591127      1712.6136    
        18   0             -1003.1047     -3.3327072     -5.0922214     -2.4529501     -2.4529501     -8.8660254e-09  8.8515154e-09  2.3464281e-09  8.2955719      12.443345      16.591127      1712.6136    
        19   0             -1003.1047     -3.3327072     -5.0922214     -2.4529501     -2.4529501     -6.4140647e-09  4.3566942e-09  4.9945323e-10  8.2955719      12.443345      16.591127      1712.6136    
        20   0             -1003.1047     -3.3327072     -5.0922214     -2.4529501     -2.4529501     -6.2426387e-09  1.5246679e-09 -1.0129503e-09  8.2955719      12.443345      16.591127      1712.6136    
        21   0             -1003.1047     -3.3327072     -5.0922214     -2.4529501     -2.4529501     -4.1066295e-09  4.5131086e-10  1.1656785e-10  8.2955719      12.443345      16.591127      1712.6136    
        22   0             -1003.1047     -3.3327072     -5.0922214     -2.4529501     -2.4529501     -2.2785613e-09  8.5424181e-10  6.7819711e-10  8.2955719      12.443345      16.591127      1712.6136    
        23   0             -1003.1047     -3.3327072     -5.0922214     -2.4529501     -2.4529501     -1.2255324e-09  2.1650584e-10  5.2625674e-10  8.2955719      12.443345      16.591127      1712.6136    
        24   0             -1003.1047     -3.3327072     -5.0922214     -2.4529501     -2.4529501     -7.042696e-10   5.8441241e-12  6.4709893e-11  8.2955719      12.443345      16.591127      1712.6136    
        25   0             -1003.1047     -3.3327072     -5.0922214     -2.4529501     -2.4529501     -6.7500618e-10  5.2897346e-11 -5.4383804e-11  8.2955719      12.443345      16.591127      1712.6136    
        26   0             -1003.1047     -3.3327072     -5.0922214     -2.4529501     -2.4529501     -5.134861e-10   1.5635005e-10  5.6771082e-12  8.2955719      12.443345      16.591127      1712.6136    
        27   0             -1003.1047     -3.3327072     -5.0922214     -2.4529501     -2.4529501     -3.8766896e-10  1.5245863e-10  6.090572e-11   8.2955719      12.443345      16.591127      1712.6136    
        28   0             -1003.1047     -3.3327072     -5.0922214     -2.4529501     -2.4529501     -3.0308546e-10  1.2364636e-10  5.2748501e-11  8.2955719      12.443345      16.591127      1712.6136    
        29   0             -1003.1047     -3.3327072     -5.0922214     -2.4529501     -2.4529501     -1.922246e-10   1.0832108e-10 -1.5469681e-11  8.2955719      12.443345      16.591127      1712.6136    
        30   0             -1003.1047     -3.3327072     -5.0922214     -2.4529501     -2.4529501     -1.1244477e-10  7.4153373e-11 -1.5448652e-11  8.2955719      12.443345      16.591127      1712.6136    
        31   0             -1003.1047     -3.3327072     -5.0922214     -2.4529501     -2.4529501     -4.6868216e-11  4.5109238e-11 -5.5208199e-12  8.2955719      12.443345      16.591127      1712.6136    
        32   0             -1003.1047     -3.3327072     -5.0922214     -2.4529501     -2.4529501     -2.5251712e-11  1.7812113e-11  1.3452382e-12  8.2955719      12.443345      16.591127      1712.6136    
        33   0             -1003.1047     -3.3327072     -5.0922214     -2.4529501     -2.4529501     -9.9968217e-13  8.8316078e-12  1.040957e-11   8.2955719      12.443345      16.591127      1712.6136    
        34   0             -1003.1047     -3.3327072     -5.0922214     -2.4529501     -2.4529501     -1.2255844e-11  1.1504256e-11  1.1938444e-11  8.2955719      12.443345      16.591127      1712.6136    
        35   0             -1003.1047     -3.3327072     -5.0922214     -2.4529501     -2.4529501     -6.4914427e-13 -1.2137375e-11  7.0981683e-12  8.2955719      12.443345      16.591127      1712.6136    
        36   0             -1003.1047     -3.3327072     -5.0922214     -2.4529501     -2.4529501     -1.1139316e-11 -1.0968712e-11 -1.190144e-12   8.2955719      12.443345      16.591127      1712.6136    
        37   0             -1003.1047     -3.3327072     -5.0922214     -2.4529501     -2.4529501     -8.5297557e-12 -2.4002312e-11  5.1346852e-12  8.2955719      12.443345      16.591127      1712.6136    
        38   0             -1003.1047     -3.3327072     -5.0922214     -2.4529501     -2.4529501     -2.2070905e-13 -1.2562159e-11 -2.3083608e-12  8.2955719      12.443345      16.591127      1712.6136    
        39   0             -1003.1047     -3.3327072     -5.0922214     -2.4529501     -2.4529501     -2.6355257e-12 -9.1823485e-12  1.1871257e-11  8.2955719      12.443345      16.591127      1712.6136    
        40   0             -1003.1047     -3.3327072     -5.0922214     -2.4529501     -2.4529501      7.1925185e-12  2.757646e-12   5.3145993e-13  8.2955719      12.443345      16.591127      1712.6136    
        41   0             -1003.1047     -3.3327072     -5.0922214     -2.4529501     -2.4529501     -3.2457213e-12 -1.2083821e-11 -1.5213831e-11  8.2955719      12.443345      16.591127      1712.6136    
        42   0             -1003.1047     -3.3327072     -5.0922214     -2.4529501     -2.4529501      8.3090466e-13  4.4900498e-12  2.7472606e-12  8.2955719      12.443345      16.591127      1712.6136    
        43   0             -1003.1047     -3.3327072     -5.0922214     -2.4529501     -2.4529501      1.16067e-11    2.6909059e-12  7.0255287e-15  8.2955719      12.443345      16.591127      1712.6136    
        44   0             -1003.1047     -3.3327072     -5.0922214     -2.4529501     -2.4529501      9.6592667e-12  1.4493972e-11  2.8555565e-12  8.2955719      12.443345      16.591127      1712.6136    
        45   0             -1003.1047     -3.3327072     -5.0922214     -2.4529501     -2.4529501      9.3476775e-12 -9.6426324e-12 -1.6092876e-11  8.2955719      12.443345      16.591127      1712.6136    
        46   0             -1003.1047     -3.3327072     -5.0922214     -2.4529501     -2.4529501     -1.2009169e-11  3.7094538e-12 -3.7286333e-12  8.2955719      12.443345      16.591127      1712.6136    
        47   0             -1003.1047     -3.3327072     -5.0922214     -2.4529501     -2.4529501      1.2580416e-11 -1.5724303e-11 -7.707478e-12   8.2955719      12.443345      16.591127      1712.6136    
        48   0             -1003.1047     -3.3327072     -5.0922214     -2.4529501     -2.4529501     -9.6203181e-12  1.0576994e-12  2.6943528e-12  8.2955719      12.443345      16.591127      1712.6136    
        49   0             -1003.1047     -3.3327072     -5.0922214     -2.4529501     -2.4529501     -4.4401468e-12  3.4577075e-12  1.4801661e-11  8.2955719      12.443345      16.591127      1712.6136    
        50   0             -1003.1047     -3.3327072     -5.0922214     -2.4529501     -2.4529501      5.1931541e-13 -8.7374819e-12  9.8405231e-12  8.2955719      12.443345      16.591127      1712.6136    
        51   0             -1003.1047     -3.3327072     -5.0922214     -2.4529501     -2.4529501     -3.1548411e-12 -4.8375448e-12  7.7334153e-12  8.2955719      12.443345      16.591127      1712.6136    
Loop time of 0.116125 on 4 procs for 48 steps with 192 atoms

50.5% CPU use with 4 MPI tasks x 1 OpenMP threads

Minimization stats:
  Stopping criterion = force tolerance
  Energy initial, next-to-last, final = 
     -1003.10473047527  -1003.10473054103  -1003.10473054103
  Force two-norm initial, final = 0.0011276204 8.5650765e-11
  Force max component initial, final = 0.00012085316 1.1936656e-11
  Final line search alpha, max atom move = 1 1.1936656e-11
  Iterations, force evaluations = 48 96

MPI task timing breakdown:
Section |  min time  |  avg time  |  max time  |%varavg| %total
---------------------------------------------------------------
Pair    | 0.10979    | 0.11108    | 0.11254    |   0.3 | 95.66
Neigh   | 0          | 0          | 0          |   0.0 |  0.00
Comm    | 0.002401   | 0.003867   | 0.005146   |   1.8 |  3.33
Output  | 0.000515   | 0.000543   | 0.000606   |   0.0 |  0.47
Modify  | 0          | 0          | 0          |   0.0 |  0.00
Other   |            | 0.000634   |            |       |  0.55

Nlocal:             48 ave          50 max          46 min
Histogram: 1 0 1 0 0 0 0 1 0 1
Nghost:            600 ave         602 max         598 min
Histogram: 1 0 1 0 0 0 0 1 0 1
Neighs:           2208 ave        2293 max        2123 min
Histogram: 1 1 0 0 0 0 0 0 1 1
FullNghs:         4416 ave        4600 max        4232 min
Histogram: 1 0 1 0 0 0 0 1 0 1

Total # of neighbors = 17664
Ave neighs/atom = 92
Neighbor list builds = 0
Dangerous builds = 0

# Obtain new stress tensor

variable tmp equal pe
variable e1 equal ${tmp}
variable e1 equal -1003.10473054103
variable tmp equal press
variable p1 equal ${tmp}
variable p1 equal -3.33270721490724
variable tmp equal pxx
variable pxx1 equal ${tmp}
variable pxx1 equal -5.09222142991175
variable tmp equal pyy
variable pyy1 equal ${tmp}
variable pyy1 equal -2.45295010730251
variable tmp equal pzz
variable pzz1 equal ${tmp}
variable pzz1 equal -2.45295010750747
variable tmp equal pxy
variable pxy1 equal ${tmp}
variable pxy1 equal -3.15484114528962e-12
variable tmp equal pxz
variable pxz1 equal ${tmp}
variable pxz1 equal -4.83754480399444e-12
variable tmp equal pyz
variable pyz1 equal ${tmp}
variable pyz1 equal 7.73341526343589e-12

# Compute elastic constant from pressure tensor

variable C1pos equal ${d1}
variable C1pos equal 509.222142959825
variable C2pos equal ${d2}
variable C2pos equal 245.295010671001
variable C3pos equal ${d3}
variable C3pos equal 245.295010656635
variable C4pos equal ${d4}
variable C4pos equal -6.33450796574416e-10
variable C5pos equal ${d5}
variable C5pos equal 8.22608127450526e-10
variable C6pos equal ${d6}
variable C6pos equal 1.81760261478152e-10

# Combine positive and negative

variable C1${dir} equal 0.5*(${C1neg}+${C1pos})
variable C11 equal 0.5*(${C1neg}+${C1pos})
variable C11 equal 0.5*(509.229403122705+${C1pos})
variable C11 equal 0.5*(509.229403122705+509.222142959825)
variable C2${dir} equal 0.5*(${C2neg}+${C2pos})
variable C21 equal 0.5*(${C2neg}+${C2pos})
variable C21 equal 0.5*(245.29634119374+${C2pos})
variable C21 equal 0.5*(245.29634119374+245.295010671001)
variable C3${dir} equal 0.5*(${C3neg}+${C3pos})
variable C31 equal 0.5*(${C3neg}+${C3pos})
variable C31 equal 0.5*(245.29634120502+${C3pos})
variable C31 equal 0.5*(245.29634120502+245.295010656635)
variable C4${dir} equal 0.5*(${C4neg}+${C4pos})
variable C41 equal 0.5*(${C4neg}+${C4pos})
variable C41 equal 0.5*(-1.56198546065494e-09+${C4pos})
variable C41 equal 0.5*(-1.56198546065494e-09+-6.33450796574416e-10)
variable C5${dir} equal 0.5*(${C5neg}+${C5pos})
variable C51 equal 0.5*(${C5neg}+${C5pos})
variable C51 equal 0.5*(1.00922188702987e-10+${C5pos})
variable C51 equal 0.5*(1.00922188702987e-10+8.22608127450526e-10)
variable C6${dir} equal 0.5*(${C6neg}+${C6pos})
variable C61 equal 0.5*(${C6neg}+${C6pos})
variable C61 equal 0.5*(1.50601637789377e-10+${C6pos})
variable C61 equal 0.5*(1.50601637789377e-10+1.81760261478152e-10)

# Delete dir to make sure it is not reused

variable dir delete

# uyy Perturbation

variable dir equal 2
include displace.mod
# NOTE: This script should not need to be
# modified. See in.elastic for more info.
#
# Find which reference length to use

if "${dir} == 1" then    "variable len0 equal ${lx0}"
if "${dir} == 2" then    "variable len0 equal ${ly0}"
variable len0 equal ${ly0}
variable len0 equal 12.4433453682716
if "${dir} == 3" then    "variable len0 equal ${lz0}"
if "${dir} == 4" then    "variable len0 equal ${lz0}"
if "${dir} == 5" then    "variable len0 equal ${lz0}"
if "${dir} == 6" then    "variable len0 equal ${ly0}"

# Reset box and simulation parameters

clear
  using 1 OpenMP thread(s) per MPI task
Loaded 1 plugins from C:\Program Files\LAMMPS 64-bit 23Jun2022\plugins
Loaded 0 plugins from C:\Program Files\LAMMPS 64-bit 23Jun2022-MPI\plugins
Loaded 1 plugins from C:\Program Files\LAMMPS 64-bit 22Dec2022-MSMPI\plugins
Loaded 1 plugins from C:\Program Files\LAMMPS 64-bit 28Mar2023-MPI\plugins
box tilt large

The 'box' command has been removed and will be ignored

read_restart restart.equil
Reading restart file ...
  restart file = 22 Dec 2022, LAMMPS = 22 Dec 2022
  restoring atom style atomic from restart
  triclinic box = (0.00022730638 0.00034550748 0.00046370858) to (8.2957909 12.443691 16.591591) with tilt (0 0 0)
  1 by 2 by 2 MPI processor grid
  pair style meam stores no restart info
  192 atoms
  read_restart CPU = 0.000 seconds
include potential.mod
# NOTE: This script can be modified for different pair styles
# See in.elastic for more info.

# Choose potential
#-----------------------
#pair_style	sw
#pair_coeff * * Si.sw Si
#-----------------------
#pair_style morse	2.83994742	# D0[eV] a[1/A] r0[A] rc[A], 1NN for BCC
#pair_coeff 1 1	2.1173	1.0202	2.4595	2.6497	#	Fe-Fe
#-----------------------
#pair_style smatb # R0(A)   p       q     A(eV)   xi(eV)  Rcs(A)   Rc(A), 4NN: Rcs=4NN, Rc=(4NN+5NN)/2
#pair_coeff 1 1	2.4802	7.0149	2.3779	0.3144	3.0551	4.033	4.176	#	Co	Co
#-----------------------
#pair_style eam/alloy
#pair_coeff * * AlCrFeCoNi_Zhou04.eam.alloy Fe
#-----------------------
pair_style meam
#pair_coeff * * ./../../library.meam Fe Cr Ni N ./../../FeCrNiN.meam Fe Ni
pair_coeff * * ./../../library.meam Fe Cr Ni N ./../../FeCrNiN.meam Cr N
#pair_coeff * * ./../../library.meam Fe Cr Ni N ./../../FeCrNiN.meam Ni N
#-----------------------

# Setup neighbor style
neighbor 1.0 nsq
neigh_modify once no every 1 delay 0 check yes

# Setup minimization style
min_style	     cg
min_modify	     dmax ${dmax} line quadratic
min_modify	     dmax 0.01 line quadratic

# Setup output
thermo		1
thermo_style custom step temp pe press pxx pyy pzz pxy pxz pyz lx ly lz vol
thermo_modify norm no

# Negative deformation

variable delta equal -${up}*${len0}
variable delta equal -1e-06*${len0}
variable delta equal -1e-06*12.4433453682716
variable deltaxy equal -${up}*xy
variable deltaxy equal -1e-06*xy
variable deltaxz equal -${up}*xz
variable deltaxz equal -1e-06*xz
variable deltayz equal -${up}*yz
variable deltayz equal -1e-06*yz
if "${dir} == 1" then    "change_box all x delta 0 ${delta} xy delta ${deltaxy} xz delta ${deltaxz} remap units box"
if "${dir} == 2" then    "change_box all y delta 0 ${delta} yz delta ${deltayz} remap units box"
change_box all y delta 0 ${delta} yz delta ${deltayz} remap units box
change_box all y delta 0 -1.24433453682716e-05 yz delta ${deltayz} remap units box
change_box all y delta 0 -1.24433453682716e-05 yz delta -0 remap units box
Changing box ...
  triclinic box = (0.00022730638 0.00034550748 0.00046370858) to (8.2957909 12.443678 16.591591) with tilt (0 0 0)
  triclinic box = (0.00022730638 0.00034550748 0.00046370858) to (8.2957909 12.443678 16.591591) with tilt (0 0 0)
if "${dir} == 3" then    "change_box all z delta 0 ${delta} remap units box"
if "${dir} == 4" then    "change_box all yz delta ${delta} remap units box"
if "${dir} == 5" then    "change_box all xz delta ${delta} remap units box"
if "${dir} == 6" then    "change_box all xy delta ${delta} remap units box"

# Relax atoms positions

minimize ${etol} ${ftol} ${maxiter} ${maxeval}
minimize 0 ${ftol} ${maxiter} ${maxeval}
minimize 0 1e-10 ${maxiter} ${maxeval}
minimize 0 1e-10 100 ${maxeval}
minimize 0 1e-10 100 1000
Neighbor list info ...
  update: every = 1 steps, delay = 0 steps, check = yes
  max neighbors/atom: 2000, page size: 100000
  master list distance cutoff = 6
  ghost atom cutoff = 6
  2 neighbor lists, perpetual/occasional/extra = 2 0 0
  (1) pair meam, perpetual
      attributes: full, newton on
      pair build: full/nsq
      stencil: none
      bin: none
  (2) pair meam, perpetual, half/full from (1)
      attributes: half, newton on
      pair build: halffull/newton
      stencil: none
      bin: none
Per MPI rank memory allocation (min/avg/max) = 9.877 | 9.879 | 9.881 Mbytes
   Step          Temp          PotEng         Press           Pxx            Pyy            Pzz            Pxy            Pxz            Pyz             Lx             Ly             Lz           Volume    
         3   0             -1003.1047      3.3331065      2.4532997      5.0926755      2.4533444     -2.3381093e-05  4.169676e-05  -7.0084592e-06  8.2955636      12.443333      16.591127      1712.6101    
         4   0             -1003.1047      3.3328088      2.4530422      5.0923512      2.4530331     -1.6972637e-05 -2.3277968e-06 -1.0117148e-05  8.2955636      12.443333      16.591127      1712.6101    
         5   0             -1003.1047      3.332752       2.4529754      5.0923062      2.4529743     -5.2727688e-06  4.9370534e-06 -8.9830854e-07  8.2955636      12.443333      16.591127      1712.6101    
         6   0             -1003.1047      3.3327439      2.4529665      5.0922981      2.4529672     -3.3825947e-06 -1.9885911e-06  2.1974075e-06  8.2955636      12.443333      16.591127      1712.6101    
         7   0             -1003.1047      3.3327409      2.4529642      5.0922948      2.4529636     -2.7189797e-06 -7.1115863e-08  1.2988732e-06  8.2955636      12.443333      16.591127      1712.6101    
         8   0             -1003.1047      3.33274        2.4529632      5.0922938      2.452963      -8.1924729e-07  9.2314797e-07  1.549212e-07   8.2955636      12.443333      16.591127      1712.6101    
         9   0             -1003.1047      3.3327399      2.4529631      5.0922937      2.4529629      1.0211891e-08  3.7240445e-07 -3.474855e-08   8.2955636      12.443333      16.591127      1712.6101    
        10   0             -1003.1047      3.3327401      2.4529632      5.0922938      2.4529632      6.1119003e-08  1.3012426e-07  5.4410035e-08  8.2955636      12.443333      16.591127      1712.6101    
        11   0             -1003.1047      3.3327402      2.4529634      5.0922939      2.4529633      8.4169954e-08  3.5886358e-08  8.4084102e-08  8.2955636      12.443333      16.591127      1712.6101    
        12   0             -1003.1047      3.3327402      2.4529634      5.092294       2.4529633     -6.9764713e-09  6.2221147e-08  2.1208159e-08  8.2955636      12.443333      16.591127      1712.6101    
        13   0             -1003.1047      3.3327402      2.4529634      5.092294       2.4529634     -2.1504583e-08  6.0435156e-08  6.4772719e-09  8.2955636      12.443333      16.591127      1712.6101    
        14   0             -1003.1047      3.3327403      2.4529634      5.092294       2.4529634     -6.6306065e-09  3.2153877e-08  1.0085498e-08  8.2955636      12.443333      16.591127      1712.6101    
        15   0             -1003.1047      3.3327403      2.4529634      5.092294       2.4529634     -6.0166317e-09  1.3113071e-08  3.9172057e-09  8.2955636      12.443333      16.591127      1712.6101    
        16   0             -1003.1047      3.3327403      2.4529634      5.092294       2.4529634     -1.446086e-08   1.3328097e-08 -1.0482582e-09  8.2955636      12.443333      16.591127      1712.6101    
        17   0             -1003.1047      3.3327403      2.4529634      5.092294       2.4529634     -1.4747912e-08  1.5452665e-08  2.4348927e-09  8.2955636      12.443333      16.591127      1712.6101    
        18   0             -1003.1047      3.3327403      2.4529634      5.092294       2.4529634     -8.8884646e-09  8.8695153e-09  2.3488164e-09  8.2955636      12.443333      16.591127      1712.6101    
        19   0             -1003.1047      3.3327403      2.4529634      5.092294       2.4529634     -6.431215e-09   4.3487629e-09  4.9989126e-10  8.2955636      12.443333      16.591127      1712.6101    
        20   0             -1003.1047      3.3327403      2.4529634      5.092294       2.4529634     -6.2423655e-09  1.5328771e-09 -1.0026287e-09  8.2955636      12.443333      16.591127      1712.6101    
        21   0             -1003.1047      3.3327403      2.4529634      5.092294       2.4529634     -4.128397e-09   4.4453144e-10  1.1854973e-10  8.2955636      12.443333      16.591127      1712.6101    
        22   0             -1003.1047      3.3327403      2.4529634      5.092294       2.4529634     -2.2659984e-09  8.5482653e-10  6.9008928e-10  8.2955636      12.443333      16.591127      1712.6101    
        23   0             -1003.1047      3.3327403      2.4529634      5.092294       2.4529634     -1.2274174e-09  2.1135429e-10  5.2387648e-10  8.2955636      12.443333      16.591127      1712.6101    
        24   0             -1003.1047      3.3327403      2.4529634      5.092294       2.4529634     -6.9615669e-10  1.6808204e-11  4.5960048e-11  8.2955636      12.443333      16.591127      1712.6101    
        25   0             -1003.1047      3.3327403      2.4529634      5.092294       2.4529634     -6.7674724e-10  5.0075292e-11 -5.7839849e-11  8.2955636      12.443333      16.591127      1712.6101    
        26   0             -1003.1047      3.3327403      2.4529634      5.092294       2.4529634     -5.2478226e-10  1.4227547e-10  1.4896057e-11  8.2955636      12.443333      16.591127      1712.6101    
        27   0             -1003.1047      3.3327403      2.4529634      5.092294       2.4529634     -3.9700445e-10  1.591853e-10   7.3202553e-11  8.2955636      12.443333      16.591127      1712.6101    
        28   0             -1003.1047      3.3327403      2.4529634      5.092294       2.4529634     -2.9060949e-10  1.1057485e-10  3.6745268e-11  8.2955636      12.443333      16.591127      1712.6101    
        29   0             -1003.1047      3.3327403      2.4529634      5.092294       2.4529634     -1.8742131e-10  9.6533829e-11 -8.1447633e-12  8.2955636      12.443333      16.591127      1712.6101    
        30   0             -1003.1047      3.3327403      2.4529634      5.092294       2.4529634     -1.0015018e-10  6.3130826e-11 -5.0556973e-12  8.2955636      12.443333      16.591127      1712.6101    
        31   0             -1003.1047      3.3327403      2.4529634      5.092294       2.4529634     -4.6829361e-11  3.528451e-11  -1.2532334e-11  8.2955636      12.443333      16.591127      1712.6101    
        32   0             -1003.1047      3.3327403      2.4529634      5.092294       2.4529634     -3.6715673e-11  1.7482099e-11  5.4586407e-12  8.2955636      12.443333      16.591127      1712.6101    
        33   0             -1003.1047      3.3327403      2.4529634      5.092294       2.4529634      1.4281202e-13  8.5829215e-12  4.4523525e-12  8.2955636      12.443333      16.591127      1712.6101    
        34   0             -1003.1047      3.3327403      2.4529634      5.092294       2.4529634     -1.2593424e-12 -9.7972295e-12 -3.9789057e-12  8.2955636      12.443333      16.591127      1712.6101    
        35   0             -1003.1047      3.3327403      2.4529634      5.092294       2.4529634     -2.7004456e-12  7.4112138e-12  3.8617671e-12  8.2955636      12.443333      16.591127      1712.6101    
        36   0             -1003.1047      3.3327403      2.4529634      5.092294       2.4529634     -2.1421804e-12 -5.4497799e-12  1.203312e-11   8.2955636      12.443333      16.591127      1712.6101    
        37   0             -1003.1047      3.3327403      2.4529634      5.092294       2.4529634      2.9730867e-12  1.4571898e-11  1.482333e-11   8.2955636      12.443333      16.591127      1712.6101    
        38   0             -1003.1047      3.3327403      2.4529634      5.092294       2.4529634      1.2982911e-13 -4.8280202e-14  1.6709127e-12  8.2955636      12.443333      16.591127      1712.6101    
        39   0             -1003.1047      3.3327403      2.4529634      5.092294       2.4529634      1.8176076e-13 -9.5684057e-12  4.7397349e-12  8.2955636      12.443333      16.591127      1712.6101    
        40   0             -1003.1047      3.3327403      2.4529634      5.092294       2.4529634     -3.7910101e-12 -1.1644049e-13  5.1870289e-12  8.2955636      12.443333      16.591127      1712.6101    
        41   0             -1003.1047      3.3327403      2.4529634      5.092294       2.4529634      7.6988664e-12  1.1495962e-12  1.15272e-11    8.2955636      12.443333      16.591127      1712.6101    
        42   0             -1003.1047      3.3327403      2.4529634      5.092294       2.4529634      4.8815747e-12  1.2537841e-11 -2.1286935e-12  8.2955636      12.443333      16.591127      1712.6101    
        43   0             -1003.1047      3.3327403      2.4529634      5.092294       2.4529634      6.439524e-12  -3.7731586e-12  6.7138736e-12  8.2955636      12.443333      16.591127      1712.6101    
        44   0             -1003.1047      3.3327403      2.4529634      5.092294       2.4529634      3.2716937e-12  3.5175575e-12 -8.0627239e-12  8.2955636      12.443333      16.591127      1712.6101    
        45   0             -1003.1047      3.3327403      2.4529634      5.092294       2.4529634     -1.9110845e-11 -4.062637e-12  -1.5789001e-11  8.2955636      12.443333      16.591127      1712.6101    
        46   0             -1003.1047      3.3327403      2.4529634      5.092294       2.4529634     -4.3103266e-12 -5.773947e-12   7.0246481e-12  8.2955636      12.443333      16.591127      1712.6101    
        47   0             -1003.1047      3.3327403      2.4529634      5.092294       2.4529634      5.4008911e-12 -8.7632623e-12  1.3603737e-11  8.2955636      12.443333      16.591127      1712.6101    
        48   0             -1003.1047      3.3327403      2.4529634      5.092294       2.4529634      9.3087474e-12  9.2598587e-12  1.7024112e-12  8.2955636      12.443333      16.591127      1712.6101    
        49   0             -1003.1047      3.3327403      2.4529634      5.092294       2.4529634      1.2982911e-12 -6.4204554e-13 -1.4394819e-12  8.2955636      12.443333      16.591127      1712.6101    
        50   0             -1003.1047      3.3327403      2.4529634      5.092294       2.4529634     -2.4018386e-12 -1.6354614e-11  1.6354898e-11  8.2955636      12.443333      16.591127      1712.6101    
        51   0             -1003.1047      3.3327403      2.4529634      5.092294       2.4529634      5.9331905e-12  2.2529408e-12  4.9732601e-12  8.2955636      12.443333      16.591127      1712.6101    
Loop time of 0.11554 on 4 procs for 48 steps with 192 atoms

50.7% CPU use with 4 MPI tasks x 1 OpenMP threads

Minimization stats:
  Stopping criterion = force tolerance
  Energy initial, next-to-last, final = 
     -1003.10473047527  -1003.10473054103  -1003.10473054103
  Force two-norm initial, final = 0.0011276329 7.5506388e-11
  Force max component initial, final = 0.00012085364 9.8035885e-12
  Final line search alpha, max atom move = 1 9.8035885e-12
  Iterations, force evaluations = 48 96

MPI task timing breakdown:
Section |  min time  |  avg time  |  max time  |%varavg| %total
---------------------------------------------------------------
Pair    | 0.10924    | 0.11062    | 0.11196    |   0.3 | 95.74
Neigh   | 0          | 0          | 0          |   0.0 |  0.00
Comm    | 0.002408   | 0.003735   | 0.00511    |   1.9 |  3.23
Output  | 0.000507   | 0.00056275 | 0.00062    |   0.0 |  0.49
Modify  | 0          | 0          | 0          |   0.0 |  0.00
Other   |            | 0.0006212  |            |       |  0.54

Nlocal:             48 ave          50 max          46 min
Histogram: 1 0 1 0 0 0 0 1 0 1
Nghost:            600 ave         602 max         598 min
Histogram: 1 0 1 0 0 0 0 1 0 1
Neighs:           2208 ave        2293 max        2123 min
Histogram: 1 1 0 0 0 0 0 0 1 1
FullNghs:         4416 ave        4600 max        4232 min
Histogram: 1 0 1 0 0 0 0 1 0 1

Total # of neighbors = 17664
Ave neighs/atom = 92
Neighbor list builds = 0
Dangerous builds = 0

# Obtain new stress tensor

variable tmp equal pxx
variable pxx1 equal ${tmp}
variable pxx1 equal 2.45296341164411
variable tmp equal pyy
variable pyy1 equal ${tmp}
variable pyy1 equal 5.09229403046976
variable tmp equal pzz
variable pzz1 equal ${tmp}
variable pzz1 equal 2.45296341107995
variable tmp equal pxy
variable pxy1 equal ${tmp}
variable pxy1 equal 5.93319048117303e-12
variable tmp equal pxz
variable pxz1 equal ${tmp}
variable pxz1 equal 2.25294083301106e-12
variable tmp equal pyz
variable pyz1 equal ${tmp}
variable pyz1 equal 4.97326013485487e-12

# Compute elastic constant from pressure tensor

variable C1neg equal ${d1}
variable C1neg equal 245.296341195761
variable C2neg equal ${d2}
variable C2neg equal 509.229403106226
variable C3neg equal ${d3}
variable C3neg equal 245.296341202107
variable C4neg equal ${d4}
variable C4neg equal 3.57435283716314e-10
variable C5neg equal ${d5}
variable C5neg equal -1.13559563749976e-10
variable C6neg equal ${d6}
variable C6neg equal 7.27042901168113e-10

# Reset box and simulation parameters

clear
  using 1 OpenMP thread(s) per MPI task
Loaded 1 plugins from C:\Program Files\LAMMPS 64-bit 23Jun2022\plugins
Loaded 0 plugins from C:\Program Files\LAMMPS 64-bit 23Jun2022-MPI\plugins
Loaded 1 plugins from C:\Program Files\LAMMPS 64-bit 22Dec2022-MSMPI\plugins
Loaded 1 plugins from C:\Program Files\LAMMPS 64-bit 28Mar2023-MPI\plugins
box tilt large

The 'box' command has been removed and will be ignored

read_restart restart.equil
Reading restart file ...
  restart file = 22 Dec 2022, LAMMPS = 22 Dec 2022
  restoring atom style atomic from restart
  triclinic box = (0.00022730638 0.00034550748 0.00046370858) to (8.2957909 12.443691 16.591591) with tilt (0 0 0)
  1 by 2 by 2 MPI processor grid
  pair style meam stores no restart info
  192 atoms
  read_restart CPU = 0.000 seconds
include potential.mod
# NOTE: This script can be modified for different pair styles
# See in.elastic for more info.

# Choose potential
#-----------------------
#pair_style	sw
#pair_coeff * * Si.sw Si
#-----------------------
#pair_style morse	2.83994742	# D0[eV] a[1/A] r0[A] rc[A], 1NN for BCC
#pair_coeff 1 1	2.1173	1.0202	2.4595	2.6497	#	Fe-Fe
#-----------------------
#pair_style smatb # R0(A)   p       q     A(eV)   xi(eV)  Rcs(A)   Rc(A), 4NN: Rcs=4NN, Rc=(4NN+5NN)/2
#pair_coeff 1 1	2.4802	7.0149	2.3779	0.3144	3.0551	4.033	4.176	#	Co	Co
#-----------------------
#pair_style eam/alloy
#pair_coeff * * AlCrFeCoNi_Zhou04.eam.alloy Fe
#-----------------------
pair_style meam
#pair_coeff * * ./../../library.meam Fe Cr Ni N ./../../FeCrNiN.meam Fe Ni
pair_coeff * * ./../../library.meam Fe Cr Ni N ./../../FeCrNiN.meam Cr N
#pair_coeff * * ./../../library.meam Fe Cr Ni N ./../../FeCrNiN.meam Ni N
#-----------------------

# Setup neighbor style
neighbor 1.0 nsq
neigh_modify once no every 1 delay 0 check yes

# Setup minimization style
min_style	     cg
min_modify	     dmax ${dmax} line quadratic
min_modify	     dmax 0.01 line quadratic

# Setup output
thermo		1
thermo_style custom step temp pe press pxx pyy pzz pxy pxz pyz lx ly lz vol
thermo_modify norm no

# Positive deformation

variable delta equal ${up}*${len0}
variable delta equal 1e-06*${len0}
variable delta equal 1e-06*12.4433453682716
variable deltaxy equal ${up}*xy
variable deltaxy equal 1e-06*xy
variable deltaxz equal ${up}*xz
variable deltaxz equal 1e-06*xz
variable deltayz equal ${up}*yz
variable deltayz equal 1e-06*yz
if "${dir} == 1" then    "change_box all x delta 0 ${delta} xy delta ${deltaxy} xz delta ${deltaxz} remap units box"
if "${dir} == 2" then    "change_box all y delta 0 ${delta} yz delta ${deltayz} remap units box"
change_box all y delta 0 ${delta} yz delta ${deltayz} remap units box
change_box all y delta 0 1.24433453682716e-05 yz delta ${deltayz} remap units box
change_box all y delta 0 1.24433453682716e-05 yz delta 0 remap units box
Changing box ...
  triclinic box = (0.00022730638 0.00034550748 0.00046370858) to (8.2957909 12.443703 16.591591) with tilt (0 0 0)
  triclinic box = (0.00022730638 0.00034550748 0.00046370858) to (8.2957909 12.443703 16.591591) with tilt (0 0 0)
if "${dir} == 3" then    "change_box all z delta 0 ${delta} remap units box"
if "${dir} == 4" then    "change_box all yz delta ${delta} remap units box"
if "${dir} == 5" then    "change_box all xz delta ${delta} remap units box"
if "${dir} == 6" then    "change_box all xy delta ${delta} remap units box"

# Relax atoms positions

minimize ${etol} ${ftol} ${maxiter} ${maxeval}
minimize 0 ${ftol} ${maxiter} ${maxeval}
minimize 0 1e-10 ${maxiter} ${maxeval}
minimize 0 1e-10 100 ${maxeval}
minimize 0 1e-10 100 1000
Neighbor list info ...
  update: every = 1 steps, delay = 0 steps, check = yes
  max neighbors/atom: 2000, page size: 100000
  master list distance cutoff = 6
  ghost atom cutoff = 6
  2 neighbor lists, perpetual/occasional/extra = 2 0 0
  (1) pair meam, perpetual
      attributes: full, newton on
      pair build: full/nsq
      stencil: none
      bin: none
  (2) pair meam, perpetual, half/full from (1)
      attributes: half, newton on
      pair build: halffull/newton
      stencil: none
      bin: none
Per MPI rank memory allocation (min/avg/max) = 9.877 | 9.879 | 9.881 Mbytes
   Step          Temp          PotEng         Press           Pxx            Pyy            Pzz            Pxy            Pxz            Pyz             Lx             Ly             Lz           Volume    
         3   0             -1003.1047     -3.332341      -2.4526138     -5.09184       -2.4525691     -2.33808e-05    4.169661e-05  -7.008469e-06   8.2955636      12.443358      16.591127      1712.6136    
         4   0             -1003.1047     -3.3326387     -2.4528714     -5.0921643     -2.4528804     -1.6972719e-05 -2.3278839e-06 -1.0116854e-05  8.2955636      12.443358      16.591127      1712.6136    
         5   0             -1003.1047     -3.3326955     -2.4529381     -5.0922093     -2.4529392     -5.2727164e-06  4.9369419e-06 -8.9823793e-07  8.2955636      12.443358      16.591127      1712.6136    
         6   0             -1003.1047     -3.3327036     -2.4529471     -5.0922173     -2.4529463     -3.3824679e-06 -1.9886287e-06  2.1974573e-06  8.2955636      12.443358      16.591127      1712.6136    
         7   0             -1003.1047     -3.3327066     -2.4529494     -5.0922206     -2.4529499     -2.7189233e-06 -7.1109058e-08  1.2988429e-06  8.2955636      12.443358      16.591127      1712.6136    
         8   0             -1003.1047     -3.3327075     -2.4529503     -5.0922216     -2.4529505     -8.1923478e-07  9.2316145e-07  1.5488442e-07  8.2955636      12.443358      16.591127      1712.6136    
         9   0             -1003.1047     -3.3327076     -2.4529504     -5.0922218     -2.4529506      1.0198043e-08  3.7239543e-07 -3.4750841e-08  8.2955636      12.443358      16.591127      1712.6136    
        10   0             -1003.1047     -3.3327074     -2.4529503     -5.0922216     -2.4529504      6.1129241e-08  1.3011321e-07  5.4401546e-08  8.2955636      12.443358      16.591127      1712.6136    
        11   0             -1003.1047     -3.3327073     -2.4529501     -5.0922215     -2.4529502      8.4177575e-08  3.5885596e-08  8.4086075e-08  8.2955636      12.443358      16.591127      1712.6136    
        12   0             -1003.1047     -3.3327073     -2.4529502     -5.0922215     -2.4529502     -6.9784177e-09  6.2219239e-08  2.1192812e-08  8.2955636      12.443358      16.591127      1712.6136    
        13   0             -1003.1047     -3.3327073     -2.4529501     -5.0922215     -2.4529502     -2.1510278e-08  6.0443249e-08  6.4816955e-09  8.2955636      12.443358      16.591127      1712.6136    
        14   0             -1003.1047     -3.3327072     -2.4529501     -5.0922215     -2.4529501     -6.644472e-09   3.2165316e-08  1.0093718e-08  8.2955636      12.443358      16.591127      1712.6136    
        15   0             -1003.1047     -3.3327072     -2.4529501     -5.0922214     -2.4529501     -6.0175284e-09  1.3119415e-08  3.9490657e-09  8.2955636      12.443358      16.591127      1712.6136    
        16   0             -1003.1047     -3.3327072     -2.4529501     -5.0922214     -2.4529501     -1.4450133e-08  1.3350208e-08 -1.0534273e-09  8.2955636      12.443358      16.591127      1712.6136    
        17   0             -1003.1047     -3.3327072     -2.4529501     -5.0922214     -2.4529501     -1.4737886e-08  1.5462954e-08  2.4382755e-09  8.2955636      12.443358      16.591127      1712.6136    
        18   0             -1003.1047     -3.3327072     -2.4529501     -5.0922214     -2.4529501     -8.8891999e-09  8.8771292e-09  2.3567905e-09  8.2955636      12.443358      16.591127      1712.6136    
        19   0             -1003.1047     -3.3327072     -2.4529501     -5.0922214     -2.4529501     -6.4133896e-09  4.3516995e-09  4.9481298e-10  8.2955636      12.443358      16.591127      1712.6136    
        20   0             -1003.1047     -3.3327072     -2.4529501     -5.0922214     -2.4529501     -6.2453521e-09  1.5192925e-09 -1.0074765e-09  8.2955636      12.443358      16.591127      1712.6136    
        21   0             -1003.1047     -3.3327072     -2.4529501     -5.0922214     -2.4529501     -4.1099531e-09  4.4825521e-10  1.2133917e-10  8.2955636      12.443358      16.591127      1712.6136    
        22   0             -1003.1047     -3.3327072     -2.4529501     -5.0922214     -2.4529501     -2.2900382e-09  8.5561373e-10  7.0037165e-10  8.2955636      12.443358      16.591127      1712.6136    
        23   0             -1003.1047     -3.3327072     -2.4529501     -5.0922214     -2.4529501     -1.2302452e-09  2.104832e-10   5.3297491e-10  8.2955636      12.443358      16.591127      1712.6136    
        24   0             -1003.1047     -3.3327072     -2.4529501     -5.0922214     -2.4529501     -7.1363026e-10  6.7091089e-12  5.742903e-11   8.2955636      12.443358      16.591127      1712.6136    
        25   0             -1003.1047     -3.3327072     -2.4529501     -5.0922214     -2.4529501     -6.8883295e-10  7.0032727e-11 -5.1157684e-11  8.2955636      12.443358      16.591127      1712.6136    
        26   0             -1003.1047     -3.3327072     -2.4529501     -5.0922214     -2.4529501     -5.0463177e-10  1.5813053e-10  1.0370516e-11  8.2955636      12.443358      16.591127      1712.6136    
        27   0             -1003.1047     -3.3327072     -2.4529501     -5.0922214     -2.4529501     -4.0840263e-10  1.7383455e-10  6.2375152e-11  8.2955636      12.443358      16.591127      1712.6136    
        28   0             -1003.1047     -3.3327072     -2.4529501     -5.0922214     -2.4529501     -2.8876534e-10  1.3346893e-10  3.3966476e-11  8.2955636      12.443358      16.591127      1712.6136    
        29   0             -1003.1047     -3.3327072     -2.4529501     -5.0922214     -2.4529501     -2.0026101e-10  9.9953409e-11 -1.5863328e-12  8.2955636      12.443358      16.591127      1712.6136    
        30   0             -1003.1047     -3.3327072     -2.4529501     -5.0922214     -2.4529501     -1.0988714e-10  6.3230303e-11 -1.1340922e-11  8.2955636      12.443358      16.591127      1712.6136    
        31   0             -1003.1047     -3.3327072     -2.4529501     -5.0922214     -2.4529501     -5.4917605e-11  2.958191e-11   2.9461728e-12  8.2955636      12.443358      16.591127      1712.6136    
        32   0             -1003.1047     -3.3327072     -2.4529501     -5.0922214     -2.4529501     -6.0370417e-12  9.0101224e-12  1.6859492e-11  8.2955636      12.443358      16.591127      1712.6136    
        33   0             -1003.1047     -3.3327072     -2.4529501     -5.0922214     -2.4529501     -5.0633253e-12  1.2402916e-11  2.6498668e-13  8.2955636      12.443358      16.591127      1712.6136    
        34   0             -1003.1047     -3.3327072     -2.4529501     -5.0922214     -2.4529501      1.0113668e-11 -2.3315031e-11  6.6842723e-12  8.2955636      12.443358      16.591127      1712.6136    
        35   0             -1003.1047     -3.3327072     -2.4529501     -5.0922214     -2.4529501      5.4917605e-12 -6.7125575e-13 -7.0820158e-12  8.2955636      12.443358      16.591127      1712.6136    
        36   0             -1003.1047     -3.3327072     -2.4529501     -5.0922214     -2.4529501      5.5566749e-12 -9.0068767e-13  1.4274346e-11  8.2955636      12.443358      16.591127      1712.6136    
        37   0             -1003.1047     -3.3327072     -2.4529501     -5.0922214     -2.4529501     -3.401516e-12   6.0573275e-13  4.7603718e-12  8.2955636      12.443358      16.591127      1712.6136    
        38   0             -1003.1047     -3.3327072     -2.4529501     -5.0922214     -2.4529501      1.3333423e-11  1.6633713e-11 -3.1833886e-12  8.2955636      12.443358      16.591127      1712.6136    
        39   0             -1003.1047     -3.3327072     -2.4529501     -5.0922214     -2.4529501      6.686186e-12   1.5023836e-11 -1.0619412e-12  8.2955636      12.443358      16.591127      1712.6136    
        40   0             -1003.1047     -3.3327072     -2.4529501     -5.0922214     -2.4529501      6.4784598e-12 -5.3992575e-12 -6.8421692e-12  8.2955636      12.443358      16.591127      1712.6136    
        41   0             -1003.1047     -3.3327072     -2.4529501     -5.0922214     -2.4529501      3.739071e-12  -9.9461073e-13 -9.4534043e-12  8.2955636      12.443358      16.591127      1712.6136    
        42   0             -1003.1047     -3.3327072     -2.4529501     -5.0922214     -2.4529501      9.5034721e-12 -6.2946708e-13 -3.315208e-13   8.2955636      12.443358      16.591127      1712.6136    
        43   0             -1003.1047     -3.3327072     -2.4529501     -5.0922214     -2.4529501      2.038313e-12  -5.1304712e-12 -3.5997379e-12  8.2955636      12.443358      16.591127      1712.6136    
[...]
        15   0             -1003.1047     -6.9266531e-07  3.2031339e-08 -7.4351135e-07 -1.3665159e-06 -0.27533067     1.3118826e-08  3.9211814e-09  8.2955636      12.443345      16.591127      1712.6118    
        16   0             -1003.1047     -6.8640891e-07  3.4499913e-08 -7.3733789e-07 -1.3563888e-06 -0.27533067     1.3355449e-08 -1.0354059e-09  8.2955636      12.443345      16.591127      1712.6118    
        17   0             -1003.1047     -6.8290773e-07  3.7051527e-08 -7.3426142e-07 -1.3515133e-06 -0.27533067     1.5371118e-08  2.4224253e-09  8.2955636      12.443345      16.591127      1712.6118    
        18   0             -1003.1047     -6.8025918e-07  3.925946e-08  -7.309725e-07  -1.3490645e-06 -0.27533067     9.1164531e-09  2.5427672e-09  8.2955636      12.443345      16.591127      1712.6118    
        19   0             -1003.1047     -6.7885547e-07  4.0479486e-08 -7.2922711e-07 -1.3478188e-06 -0.27533067     4.9068093e-09  9.893115e-10   8.2955636      12.443345      16.591127      1712.6118    
        20   0             -1003.1047     -6.7766148e-07  4.1459769e-08 -7.2800814e-07 -1.3464361e-06 -0.27533067     1.535094e-09  -1.01095e-09    8.2955636      12.443345      16.591127      1712.6118    
        21   0             -1003.1047     -6.7641867e-07  4.2392448e-08 -7.2667566e-07 -1.3449728e-06 -0.27533066     4.2676734e-10  1.1223162e-10  8.2955636      12.443345      16.591127      1712.6118    
        22   0             -1003.1047     -6.7540033e-07  4.3273594e-08 -7.2576238e-07 -1.3437122e-06 -0.27533066     8.5857469e-10  6.9994736e-10  8.2955636      12.443345      16.591127      1712.6118    
        23   0             -1003.1047     -6.7486878e-07  4.3712458e-08 -7.2530802e-07 -1.3430108e-06 -0.27533066     2.0437151e-10  5.1727771e-10  8.2955636      12.443345      16.591127      1712.6118    
        24   0             -1003.1047     -6.7451416e-07  4.4103892e-08 -7.2510722e-07 -1.3425391e-06 -0.27533066     6.2904171e-12  4.2461638e-11  8.2955636      12.443345      16.591127      1712.6118    
        25   0             -1003.1047     -6.7449195e-07  4.4213869e-08 -7.2522139e-07 -1.3424683e-06 -0.27533066     4.5811983e-11 -5.191924e-11   8.2955636      12.443345      16.591127      1712.6118    
        26   0             -1003.1047     -6.7441376e-07  4.4242702e-08 -7.2513998e-07 -1.342344e-06  -0.27533066     1.3996254e-10  2.0744184e-11  8.2955636      12.443345      16.591127      1712.6118    
        27   0             -1003.1047     -6.7443778e-07  4.4238898e-08 -7.2514313e-07 -1.3424091e-06 -0.27533066     1.5967018e-10  6.1580797e-11  8.2955636      12.443345      16.591127      1712.6118    
        28   0             -1003.1047     -6.7431601e-07  4.4308513e-08 -7.2499776e-07 -1.3422588e-06 -0.27533066     1.1978854e-10  3.8687874e-11  8.2955636      12.443345      16.591127      1712.6118    
        29   0             -1003.1047     -6.7430741e-07  4.436136e-08  -7.2499181e-07 -1.3422918e-06 -0.27533066     1.0133842e-10 -6.4442507e-12  8.2955636      12.443345      16.591127      1712.6118    
        30   0             -1003.1047     -6.741485e-07   4.4448436e-08 -7.2481919e-07 -1.3420747e-06 -0.27533066     8.7475929e-11 -4.6354288e-12  8.2955636      12.443345      16.591127      1712.6118    
        31   0             -1003.1047     -6.7408669e-07  4.454697e-08  -7.2483232e-07 -1.3419747e-06 -0.27533066     4.7286759e-11 -1.1069569e-12  8.2955636      12.443345      16.591127      1712.6118    
        32   0             -1003.1047     -6.741346e-07   4.4539808e-08 -7.2490794e-07 -1.3420357e-06 -0.27533066     9.1127775e-12 -5.6595096e-12  8.2955636      12.443345      16.591127      1712.6118    
        33   0             -1003.1047     -6.741534e-07   4.4490384e-08 -7.2486891e-07 -1.3420817e-06 -0.27533066     2.0358807e-12 -6.8278928e-12  8.2955636      12.443345      16.591127      1712.6118    
        34   0             -1003.1047     -6.742914e-07   4.4375061e-08 -7.2503851e-07 -1.3422108e-06 -0.27533066     6.6233067e-12 -6.9904548e-12  8.2955636      12.443345      16.591127      1712.6118    
        35   0             -1003.1047     -6.7413624e-07  4.4499405e-08 -7.2487206e-07 -1.3420361e-06 -0.27533066    -5.9822761e-12 -1.2686408e-11  8.2955636      12.443345      16.591127      1712.6118    
        36   0             -1003.1047     -6.7420675e-07  4.4418275e-08 -7.2492926e-07 -1.3421093e-06 -0.27533066    -3.60174e-12    1.3046867e-11  8.2955636      12.443345      16.591127      1712.6118    
        37   0             -1003.1047     -6.741664e-07   4.4467251e-08 -7.2488541e-07 -1.342081e-06  -0.27533066     2.70592e-12   -7.9333702e-12  8.2955636      12.443345      16.591127      1712.6118    
        38   0             -1003.1047     -6.7416905e-07  4.4416844e-08 -7.2487245e-07 -1.3420515e-06 -0.27533066    -8.1879488e-12  2.9216228e-12  8.2955636      12.443345      16.591127      1712.6118    
        39   0             -1003.1047     -6.7411847e-07  4.4539941e-08 -7.248216e-07  -1.3420737e-06 -0.27533066     3.4398595e-12 -8.9548804e-12  8.2955636      12.443345      16.591127      1712.6118    
        40   0             -1003.1047     -6.7417191e-07  4.4471526e-08 -7.2486116e-07 -1.3421261e-06 -0.27533066    -7.032268e-12  -1.1728732e-11  8.2955636      12.443345      16.591127      1712.6118    
        41   0             -1003.1047     -6.7421514e-07  4.441724e-08  -7.2494579e-07 -1.3421169e-06 -0.27533066    -1.0745174e-11 -2.3406405e-12  8.2955636      12.443345      16.591127      1712.6118    
        42   0             -1003.1047     -6.7432435e-07  4.4320385e-08 -7.2499601e-07 -1.3422974e-06 -0.27533066    -4.1293731e-12 -1.0743983e-11  8.2955636      12.443345      16.591127      1712.6118    
        43   0             -1003.1047     -6.7417037e-07  4.4480736e-08 -7.2492524e-07 -1.3420666e-06 -0.27533066     3.2899476e-12 -1.1596492e-12  8.2955636      12.443345      16.591127      1712.6118    
        44   0             -1003.1047     -6.7415597e-07  4.4515419e-08 -7.2485277e-07 -1.3421306e-06 -0.27533066     1.7981314e-12 -1.5964769e-11  8.2955636      12.443345      16.591127      1712.6118    
        45   0             -1003.1047     -6.7413981e-07  4.4537641e-08 -7.2488843e-07 -1.3420686e-06 -0.27533066    -7.2521659e-13 -4.3120347e-12  8.2955636      12.443345      16.591127      1712.6118    
        46   0             -1003.1047     -6.741905e-07   4.4462681e-08 -7.2494902e-07 -1.3420852e-06 -0.27533066    -3.1570757e-12 -1.4276679e-12  8.2955636      12.443345      16.591127      1712.6118    
        47   0             -1003.1047     -6.7416809e-07  4.4483352e-08 -7.248996e-07  -1.342088e-06  -0.27533066    -1.6058831e-11  5.1629961e-12  8.2955636      12.443345      16.591127      1712.6118    
        48   0             -1003.1047     -6.7422374e-07  4.4457707e-08 -7.249716e-07  -1.3421573e-06 -0.27533066     1.4618744e-11 -5.5670785e-12  8.2955636      12.443345      16.591127      1712.6118    
        49   0             -1003.1047     -6.7421781e-07  4.4420987e-08 -7.2497675e-07 -1.3420977e-06 -0.27533066    -3.7204118e-12 -1.0369129e-11  8.2955636      12.443345      16.591127      1712.6118    
        50   0             -1003.1047     -6.7425048e-07  4.4402225e-08 -7.249979e-07  -1.3421558e-06 -0.27533066     2.3369217e-12 -8.3650207e-12  8.2955636      12.443345      16.591127      1712.6118    
        51   0             -1003.1047     -6.7427463e-07  4.4349767e-08 -7.2502439e-07 -1.3421493e-06 -0.27533066    -3.1785787e-12 -8.8992039e-12  8.2955636      12.443345      16.591127      1712.6118    
Loop time of 0.115062 on 4 procs for 48 steps with 192 atoms

61.1% CPU use with 4 MPI tasks x 1 OpenMP threads

Minimization stats:
  Stopping criterion = force tolerance
  Energy initial, next-to-last, final = 
     -1003.10473047784  -1003.10473054361  -1003.10473054361
  Force two-norm initial, final = 0.0011276264 9.3548073e-11
  Force max component initial, final = 0.00012085343 1.3896e-11
  Final line search alpha, max atom move = 1 1.3896e-11
  Iterations, force evaluations = 48 96

MPI task timing breakdown:
Section |  min time  |  avg time  |  max time  |%varavg| %total
---------------------------------------------------------------
Pair    | 0.10883    | 0.11018    | 0.11161    |   0.3 | 95.76
Neigh   | 0          | 0          | 0          |   0.0 |  0.00
Comm    | 0.002284   | 0.0036852  | 0.005083   |   1.7 |  3.20
Output  | 0.000536   | 0.00056375 | 0.000636   |   0.0 |  0.49
Modify  | 0          | 0          | 0          |   0.0 |  0.00
Other   |            | 0.0006345  |            |       |  0.55

Nlocal:             48 ave          50 max          46 min
Histogram: 1 0 1 0 0 0 0 1 0 1
Nghost:            600 ave         602 max         598 min
Histogram: 1 0 1 0 0 0 0 1 0 1
Neighs:           2208 ave        2293 max        2123 min
Histogram: 1 1 0 0 0 0 0 0 1 1
FullNghs:         4416 ave        4600 max        4232 min
Histogram: 1 0 1 0 0 0 0 1 0 1

Total # of neighbors = 17664
Ave neighs/atom = 92
Neighbor list builds = 0
Dangerous builds = 0

# Obtain new stress tensor

variable tmp equal pe
variable e1 equal ${tmp}
variable e1 equal -1003.10473054361
variable tmp equal press
variable p1 equal ${tmp}
variable p1 equal -6.74274630383008e-07
variable tmp equal pxx
variable pxx1 equal ${tmp}
variable pxx1 equal 4.43497674079568e-08
variable tmp equal pyy
variable pyy1 equal ${tmp}
variable pyy1 equal -7.25024385695006e-07
variable tmp equal pzz
variable pzz1 equal ${tmp}
variable pzz1 equal -1.34214927286198e-06
variable tmp equal pxy
variable pxy1 equal ${tmp}
variable pxy1 equal -0.275330659786758
variable tmp equal pxz
variable pxz1 equal ${tmp}
variable pxz1 equal -3.17857866118499e-12
variable tmp equal pyz
variable pyz1 equal ${tmp}
variable pyz1 equal -8.89920390720878e-12

# Compute elastic constant from pressure tensor

variable C1pos equal ${d1}
variable C1pos equal -4.46632654545217e-06
variable C2pos equal ${d2}
variable C2pos equal 7.24431885162804e-05
variable C3pos equal ${d3}
variable C3pos equal 0.000134120815554316
variable C4pos equal ${d4}
variable C4pos equal 1.02981112049005e-09
variable C5pos equal ${d5}
variable C5pos equal 6.56711513169581e-10
variable C6pos equal ${d6}
variable C6pos equal 27.5330659785421

# Combine positive and negative

variable C1${dir} equal 0.5*(${C1neg}+${C1pos})
variable C16 equal 0.5*(${C1neg}+${C1pos})
variable C16 equal 0.5*(4.47081911514149e-06+${C1pos})
variable C16 equal 0.5*(4.47081911514149e-06+-4.46632654545217e-06)
variable C2${dir} equal 0.5*(${C2neg}+${C2pos})
variable C26 equal 0.5*(${C2neg}+${C2pos})
variable C26 equal 0.5*(-7.24412907411135e-05+${C2pos})
variable C26 equal 0.5*(-7.24412907411135e-05+7.24431885162804e-05)
variable C3${dir} equal 0.5*(${C3neg}+${C3pos})
variable C36 equal 0.5*(${C3neg}+${C3pos})
variable C36 equal 0.5*(-0.000134125407280891+${C3pos})
variable C36 equal 0.5*(-0.000134125407280891+0.000134120815554316)
variable C4${dir} equal 0.5*(${C4neg}+${C4pos})
variable C46 equal 0.5*(${C4neg}+${C4pos})
variable C46 equal 0.5*(-2.38146959074455e-09+${C4pos})
variable C46 equal 0.5*(-2.38146959074455e-09+1.02981112049005e-09)
variable C5${dir} equal 0.5*(${C5neg}+${C5pos})
variable C56 equal 0.5*(${C5neg}+${C5pos})
variable C56 equal 0.5*(-7.5749126164598e-10+${C5pos})
variable C56 equal 0.5*(-7.5749126164598e-10+6.56711513169581e-10)
variable C6${dir} equal 0.5*(${C6neg}+${C6pos})
variable C66 equal 0.5*(${C6neg}+${C6pos})
variable C66 equal 0.5*(27.5330659768206+${C6pos})
variable C66 equal 0.5*(27.5330659768206+27.5330659785421)

# Delete dir to make sure it is not reused

variable dir delete

# Output final values

variable C11all equal ${C11}
variable C11all equal 509.225773041265
variable C22all equal ${C22}
variable C22all equal 509.225773042168
variable C33all equal ${C33}
variable C33all equal 509.225773028441

variable C12all equal 0.5*(${C12}+${C21})
variable C12all equal 0.5*(245.29567593019+${C21})
variable C12all equal 0.5*(245.29567593019+245.295675932371)
variable C13all equal 0.5*(${C13}+${C31})
variable C13all equal 0.5*(245.29567591533+${C31})
variable C13all equal 0.5*(245.29567591533+245.295675930827)
variable C23all equal 0.5*(${C23}+${C32})
variable C23all equal 0.5*(245.295675916844+${C32})
variable C23all equal 0.5*(245.295675916844+245.295675931354)

variable C44all equal ${C44}
variable C44all equal 27.533065978722
variable C55all equal ${C55}
variable C55all equal 27.5330659800622
variable C66all equal ${C66}
variable C66all equal 27.5330659776813

variable C14all equal 0.5*(${C14}+${C41})
variable C14all equal 0.5*(-4.02615906599743e-09+${C41})
variable C14all equal 0.5*(-4.02615906599743e-09+-1.09771812861468e-09)
variable C15all equal 0.5*(${C15}+${C51})
variable C15all equal 0.5*(3.64470528367019e-09+${C51})
variable C15all equal 0.5*(3.64470528367019e-09+4.61765158076757e-10)
variable C16all equal 0.5*(${C16}+${C61})
variable C16all equal 0.5*(2.24628484465991e-09+${C61})
variable C16all equal 0.5*(2.24628484465991e-09+1.66180949633764e-10)

variable C24all equal 0.5*(${C24}+${C42})
variable C24all equal 0.5*(1.49141044846527e-09+${C42})
variable C24all equal 0.5*(1.49141044846527e-09+4.86817136726766e-10)
variable C25all equal 0.5*(${C25}+${C52})
variable C25all equal 0.5*(3.82038012699702e-09+${C52})
variable C25all equal 0.5*(3.82038012699702e-09+1.4120938946799e-10)
variable C26all equal 0.5*(${C26}+${C62})
variable C26all equal 0.5*(9.48887583450116e-10+${C62})
variable C26all equal 0.5*(9.48887583450116e-10+1.53198640702889e-10)

variable C34all equal 0.5*(${C34}+${C43})
variable C34all equal 0.5*(-2.80170946489864e-09+${C43})
variable C34all equal 0.5*(-2.80170946489864e-09+1.45609097966158e-10)
variable C35all equal 0.5*(${C35}+${C53})
variable C35all equal 0.5*(-1.64087606580065e-09+${C53})
variable C35all equal 0.5*(-1.64087606580065e-09+2.21428467804625e-10)
variable C36all equal 0.5*(${C36}+${C63})
variable C36all equal 0.5*(-2.29586328750065e-09+${C63})
variable C36all equal 0.5*(-2.29586328750065e-09+-3.16133065352354e-10)

variable C45all equal 0.5*(${C45}+${C54})
variable C45all equal 0.5*(1.52462999588015e-10+${C54})
variable C45all equal 0.5*(1.52462999588015e-10+-1.12192527561106e-09)
variable C46all equal 0.5*(${C46}+${C64})
variable C46all equal 0.5*(-6.7582923512725e-10+${C64})
variable C46all equal 0.5*(-6.7582923512725e-10+4.11557877835988e-10)
variable C56all equal 0.5*(${C56}+${C65})
variable C56all equal 0.5*(-5.03898742381995e-11+${C65})
variable C56all equal 0.5*(-5.03898742381995e-11+2.72640865443399e-10)

# Average moduli for cubic crystals

variable C11cubic equal (${C11all}+${C22all}+${C33all})/3.0
variable C11cubic equal (509.225773041265+${C22all}+${C33all})/3.0
variable C11cubic equal (509.225773041265+509.225773042168+${C33all})/3.0
variable C11cubic equal (509.225773041265+509.225773042168+509.225773028441)/3.0
variable C12cubic equal (${C12all}+${C13all}+${C23all})/3.0
variable C12cubic equal (245.29567593128+${C13all}+${C23all})/3.0
variable C12cubic equal (245.29567593128+245.295675923079+${C23all})/3.0
variable C12cubic equal (245.29567593128+245.295675923079+245.295675924099)/3.0
variable C44cubic equal (${C44all}+${C55all}+${C66all})/3.0
variable C44cubic equal (27.533065978722+${C55all}+${C66all})/3.0
variable C44cubic equal (27.533065978722+27.5330659800622+${C66all})/3.0
variable C44cubic equal (27.533065978722+27.5330659800622+27.5330659776813)/3.0

variable bulkmodulus equal (${C11cubic}+2*${C12cubic})/3.0
variable bulkmodulus equal (509.225773037291+2*${C12cubic})/3.0
variable bulkmodulus equal (509.225773037291+2*245.295675926153)/3.0
variable shearmodulus1 equal ${C44cubic}
variable shearmodulus1 equal 27.5330659788218
variable shearmodulus2 equal (${C11cubic}-${C12cubic})/2.0
variable shearmodulus2 equal (509.225773037291-${C12cubic})/2.0
variable shearmodulus2 equal (509.225773037291-245.295675926153)/2.0
variable poissonratio equal 1.0/(1.0+${C11cubic}/${C12cubic})
variable poissonratio equal 1.0/(1.0+509.225773037291/${C12cubic})
variable poissonratio equal 1.0/(1.0+509.225773037291/245.295675926153)

# For Stillinger-Weber silicon, the analytical results
# are known to be (E. R. Cowley, 1988):
#               C11 = 151.4 GPa
#               C12 = 76.4 GPa
#               C44 = 56.4 GPa

print "========================================="
=========================================
print "Components of the Elastic Constant Tensor"
Components of the Elastic Constant Tensor
print "========================================="
=========================================

print "Elastic Constant C11all = ${C11all} ${cunits}"
Elastic Constant C11all = 509.225773041265 GPa
print "Elastic Constant C22all = ${C22all} ${cunits}"
Elastic Constant C22all = 509.225773042168 GPa
print "Elastic Constant C33all = ${C33all} ${cunits}"
Elastic Constant C33all = 509.225773028441 GPa

print "Elastic Constant C12all = ${C12all} ${cunits}"
Elastic Constant C12all = 245.29567593128 GPa
print "Elastic Constant C13all = ${C13all} ${cunits}"
Elastic Constant C13all = 245.295675923079 GPa
print "Elastic Constant C23all = ${C23all} ${cunits}"
Elastic Constant C23all = 245.295675924099 GPa

print "Elastic Constant C44all = ${C44all} ${cunits}"
Elastic Constant C44all = 27.533065978722 GPa
print "Elastic Constant C55all = ${C55all} ${cunits}"
Elastic Constant C55all = 27.5330659800622 GPa
print "Elastic Constant C66all = ${C66all} ${cunits}"
Elastic Constant C66all = 27.5330659776813 GPa

print "Elastic Constant C14all = ${C14all} ${cunits}"
Elastic Constant C14all = -2.56193859730606e-09 GPa
print "Elastic Constant C15all = ${C15all} ${cunits}"
Elastic Constant C15all = 2.05323522087347e-09 GPa
print "Elastic Constant C16all = ${C16all} ${cunits}"
Elastic Constant C16all = 1.20623289714684e-09 GPa

print "Elastic Constant C24all = ${C24all} ${cunits}"
Elastic Constant C24all = 9.89113792596018e-10 GPa
print "Elastic Constant C25all = ${C25all} ${cunits}"
Elastic Constant C25all = 1.9807947582325e-09 GPa
print "Elastic Constant C26all = ${C26all} ${cunits}"
Elastic Constant C26all = 5.51043112076503e-10 GPa

print "Elastic Constant C34all = ${C34all} ${cunits}"
Elastic Constant C34all = -1.32805018346624e-09 GPa
print "Elastic Constant C35all = ${C35all} ${cunits}"
Elastic Constant C35all = -7.09723798998013e-10 GPa
print "Elastic Constant C36all = ${C36all} ${cunits}"
Elastic Constant C36all = -1.3059981764265e-09 GPa

print "Elastic Constant C45all = ${C45all} ${cunits}"
Elastic Constant C45all = -4.84731138011522e-10 GPa
print "Elastic Constant C46all = ${C46all} ${cunits}"
Elastic Constant C46all = -1.32135678645631e-10 GPa
print "Elastic Constant C56all = ${C56all} ${cunits}"
Elastic Constant C56all = 1.111254956026e-10 GPa

print "========================================="
=========================================
print "Average properties for a cubic crystal"
Average properties for a cubic crystal
print "========================================="
=========================================

print "Bulk Modulus = ${bulkmodulus} ${cunits}"
Bulk Modulus = 333.272374963199 GPa
print "Shear Modulus 1 = ${shearmodulus1} ${cunits}"
Shear Modulus 1 = 27.5330659788218 GPa
print "Shear Modulus 2 = ${shearmodulus2} ${cunits}"
Shear Modulus 2 = 131.965048555569 GPa
print "Poisson Ratio = ${poissonratio}"
Poisson Ratio = 0.325100997808794
Total wall time: 0:00:01
