LAMMPS (22 Dec 2022)
  using 1 OpenMP thread(s) per MPI task
Loaded 1 plugins from C:\Program Files\LAMMPS 64-bit 23Jun2022\plugins
Loaded 0 plugins from C:\Program Files\LAMMPS 64-bit 23Jun2022-MPI\plugins
Loaded 1 plugins from C:\Program Files\LAMMPS 64-bit 22Dec2022-MSMPI\plugins
Loaded 1 plugins from C:\Program Files\LAMMPS 64-bit 28Mar2023-MPI\plugins
# Compute elastic constant tensor for a crystal
#
# Written by Aidan Thompson (Sandia, athomps@sandia.gov)
#
#  This script uses the following three include files.
#
#   init.mod      (must be modified for different crystal structures)
# 	       	  Define units, deformation parameters and initial
#		  configuration of the atoms and simulation cell.
#
#
#   potential.mod    (must be modified for different pair styles)
# 		     Define pair style and other attributes
#		     not stored in restart file
#
#
#   displace.mod    (displace.mod should not need to be modified)
# 		    Perform positive and negative box displacements
# 		    in direction ${dir} and size ${up}.
# 		    It uses the resultant changes
#		    in stress to compute one
# 		    row of the elastic stiffness tensor
#
#		    Inputs variables:
#		    	   dir = the Voigt deformation component
#		    		    (1,2,3,4,5,6)
#		    Global constants:
#       	    	   up = the deformation magnitude (strain units)
#       		   cfac = conversion from LAMMPS pressure units to
#               	   output units for elastic constants
#
#
#  To run this on a different system, it should only be necessary to
#  modify the files init.mod and potential.mod. In order to calculate
#  the elastic constants correctly, care must be taken to specify
#  the correct units in init.mod (units, cfac and cunits). It is also
#  important to verify that the minimization of energy w.r.t atom
#  positions in the deformed cell is fully converged.
#  One indication of this is that the elastic constants are insensitive
#  to the choice of the variable ${up} in init.mod. Another is to check
#  the final max and two-norm forces reported in the log file. If you know
#  that minimization is not required, you can set maxiter = 0.0 in
#  init.mod.
#

include init.mod
# NOTE: This script can be modified for different atomic structures,
# units, etc. See in.elastic for more info.
#

# Define the finite deformation size. Try several values of this
# variable to verify that results do not depend on it.
variable up equal 1.0e-6

# Define the amount of random jiggle for atoms
# This prevents atoms from staying on saddle points
variable atomjiggle equal 1.0e-5

# Uncomment one of these blocks, depending on what units
# you are using in LAMMPS and for output

# metal units, elastic constants in eV/A^3
#units		metal
#variable cfac equal 6.2414e-7
#variable cunits string eV/A^3

# metal units, elastic constants in GPa
units		metal
variable cfac equal 1.0e-4
variable cunits string GPa

# real units, elastic constants in GPa
#units		real
#variable cfac equal 1.01325e-4
#variable cunits string GPa

# Define minimization parameters
variable etol equal 0.0
variable ftol equal 1.0e-10
variable maxiter equal 100
variable maxeval equal 1000
variable dmax equal 1.0e-2

# generate the box and atom positions using a diamond lattice

dimension    3
boundary     p p p
read_data    data.in
Reading data file ...
  orthogonal box = (0.0001262746 0.0001262746 0.0001262746) to (4.1478737 4.1478737 4.1478737)
  1 by 2 by 2 MPI processor grid
  reading atoms ...
  8 atoms
  reading velocities ...
  8 velocities
  read_data CPU = 0.001 seconds
#replicate    2 3 4
replicate    2 3 4
Replication is creating a 2x3x4 = 24 times larger system...
  orthogonal box = (0.0001262746 0.0001262746 0.0001262746) to (8.2956212 12.443369 16.591116)
  1 by 2 by 2 MPI processor grid
  192 atoms
  replicate CPU = 0.000 seconds
change_box   all triclinic
Changing box ...
  triclinic box = (0.0001262746 0.0001262746 0.0001262746) to (8.2956212 12.443369 16.591116) with tilt (0 0 0)

# Need to set mass to something, just to satisfy LAMMPS
mass 1 1.0e-20

include potential.mod
# NOTE: This script can be modified for different pair styles
# See in.elastic for more info.

# Choose potential
#-----------------------
#pair_style	sw
#pair_coeff * * Si.sw Si
#-----------------------
#pair_style morse	2.83994742	# D0[eV] a[1/A] r0[A] rc[A], 1NN for BCC
#pair_coeff 1 1	2.1173	1.0202	2.4595	2.6497	#	Fe-Fe
#-----------------------
#pair_style smatb # R0(A)   p       q     A(eV)   xi(eV)  Rcs(A)   Rc(A), 4NN: Rcs=4NN, Rc=(4NN+5NN)/2
#pair_coeff 1 1	2.4802	7.0149	2.3779	0.3144	3.0551	4.033	4.176	#	Co	Co
#-----------------------
#pair_style eam/alloy
#pair_coeff * * AlCrFeCoNi_Zhou04.eam.alloy Fe
#-----------------------
pair_style meam
#pair_coeff * * ./../../library.meam Fe Cr Ni N ./../../FeCrNiN.meam Fe Ni
pair_coeff * * ./../../library.meam Fe Cr Ni N ./../../FeCrNiN.meam Cr N
#pair_coeff * * ./../../library.meam Fe Cr Ni N ./../../FeCrNiN.meam Ni N
#-----------------------

# Setup neighbor style
neighbor 1.0 nsq
neigh_modify once no every 1 delay 0 check yes

# Setup minimization style
min_style	     cg
min_modify	     dmax ${dmax} line quadratic
min_modify	     dmax 0.01 line quadratic

# Setup output
thermo		1
thermo_style custom step temp pe press pxx pyy pzz pxy pxz pyz lx ly lz vol
thermo_modify norm no

# Compute initial state
fix 3 all box/relax  aniso 0.0
minimize ${etol} ${ftol} ${maxiter} ${maxeval}
minimize 0 ${ftol} ${maxiter} ${maxeval}
minimize 0 1e-10 ${maxiter} ${maxeval}
minimize 0 1e-10 100 ${maxeval}
minimize 0 1e-10 100 1000
Neighbor list info ...
  update: every = 1 steps, delay = 0 steps, check = yes
  max neighbors/atom: 2000, page size: 100000
  master list distance cutoff = 6
  ghost atom cutoff = 6
  2 neighbor lists, perpetual/occasional/extra = 2 0 0
  (1) pair meam, perpetual
      attributes: full, newton on
      pair build: full/nsq
      stencil: none
      bin: none
  (2) pair meam, perpetual, half/full from (1)
      attributes: half, newton on
      pair build: halffull/newton
      stencil: none
      bin: none
Per MPI rank memory allocation (min/avg/max) = 9.908 | 9.908 | 9.908 Mbytes
   Step          Temp          PotEng         Press           Pxx            Pyy            Pzz            Pxy            Pxz            Pyz             Lx             Ly             Lz           Volume    
         0   0             -1003.2419      7.3863707e-12 -5.3013736e-11  1.1918597e-11  6.3254252e-11  5.498394e-12   8.6857747e-12  9.9678678e-12  8.2954949      12.443242      16.59099       1712.5693    
         1   0             -1003.2419      2.486211e-10   2.5172518e-10  2.6198517e-10  2.3215297e-10  9.4907344e-12 -2.1260024e-12  2.4765494e-12  8.2954949      12.443242      16.59099       1712.5693    
Loop time of 0.00343625 on 4 procs for 1 steps with 192 atoms

0.0% CPU use with 4 MPI tasks x 1 OpenMP threads

Minimization stats:
  Stopping criterion = force tolerance
  Energy initial, next-to-last, final = 
     -1003.24194874884  -1003.24194874884  -1003.24194874884
  Force two-norm initial, final = 1.6828273e-13 5.1081716e-13
  Force max component initial, final = 6.7612582e-14 2.8003641e-13
  Final line search alpha, max atom move = 1 2.8003641e-13
  Iterations, force evaluations = 1 2

MPI task timing breakdown:
Section |  min time  |  avg time  |  max time  |%varavg| %total
---------------------------------------------------------------
Pair    | 0.003221   | 0.0032448  | 0.003257   |   0.0 | 94.43
Neigh   | 0          | 0          | 0          |   0.0 |  0.00
Comm    | 8.1e-05    | 9.4e-05    | 0.000117   |   0.0 |  2.74
Output  | 0          | 0          | 0          |   0.0 |  0.00
Modify  | 0          | 0          | 0          |   0.0 |  0.00
Other   |            | 9.75e-05   |            |       |  2.84

Nlocal:             48 ave          48 max          48 min
Histogram: 4 0 0 0 0 0 0 0 0 0
Nghost:            600 ave         600 max         600 min
Histogram: 4 0 0 0 0 0 0 0 0 0
Neighs:           2208 ave        2208 max        2208 min
Histogram: 4 0 0 0 0 0 0 0 0 0
FullNghs:         4416 ave        4416 max        4416 min
Histogram: 4 0 0 0 0 0 0 0 0 0

Total # of neighbors = 17664
Ave neighs/atom = 92
Neighbor list builds = 0
Dangerous builds = 0

variable tmp equal pxx
variable pxx0 equal ${tmp}
variable pxx0 equal 2.51725176636563e-10
variable tmp equal pyy
variable pyy0 equal ${tmp}
variable pyy0 equal 2.61985166880112e-10
variable tmp equal pzz
variable pzz0 equal ${tmp}
variable pzz0 equal 2.32152971268452e-10
variable tmp equal pyz
variable pyz0 equal ${tmp}
variable pyz0 equal 2.47654936913245e-12
variable tmp equal pxz
variable pxz0 equal ${tmp}
variable pxz0 equal -2.12600240731553e-12
variable tmp equal pxy
variable pxy0 equal ${tmp}
variable pxy0 equal 9.4907344106727e-12

variable tmp equal lx
variable lx0 equal ${tmp}
variable lx0 equal 8.29549490158059
variable tmp equal ly
variable ly0 equal ${tmp}
variable ly0 equal 12.4432423523709
variable tmp equal lz
variable lz0 equal ${tmp}
variable lz0 equal 16.5909898031612

# These formulas define the derivatives w.r.t. strain components
# Constants uses $, variables use v_
variable d1 equal -(v_pxx1-${pxx0})/(v_delta/v_len0)*${cfac}
variable d1 equal -(v_pxx1-2.51725176636563e-10)/(v_delta/v_len0)*${cfac}
variable d1 equal -(v_pxx1-2.51725176636563e-10)/(v_delta/v_len0)*0.0001
variable d2 equal -(v_pyy1-${pyy0})/(v_delta/v_len0)*${cfac}
variable d2 equal -(v_pyy1-2.61985166880112e-10)/(v_delta/v_len0)*${cfac}
variable d2 equal -(v_pyy1-2.61985166880112e-10)/(v_delta/v_len0)*0.0001
variable d3 equal -(v_pzz1-${pzz0})/(v_delta/v_len0)*${cfac}
variable d3 equal -(v_pzz1-2.32152971268452e-10)/(v_delta/v_len0)*${cfac}
variable d3 equal -(v_pzz1-2.32152971268452e-10)/(v_delta/v_len0)*0.0001
variable d4 equal -(v_pyz1-${pyz0})/(v_delta/v_len0)*${cfac}
variable d4 equal -(v_pyz1-2.47654936913245e-12)/(v_delta/v_len0)*${cfac}
variable d4 equal -(v_pyz1-2.47654936913245e-12)/(v_delta/v_len0)*0.0001
variable d5 equal -(v_pxz1-${pxz0})/(v_delta/v_len0)*${cfac}
variable d5 equal -(v_pxz1--2.12600240731553e-12)/(v_delta/v_len0)*${cfac}
variable d5 equal -(v_pxz1--2.12600240731553e-12)/(v_delta/v_len0)*0.0001
variable d6 equal -(v_pxy1-${pxy0})/(v_delta/v_len0)*${cfac}
variable d6 equal -(v_pxy1-9.4907344106727e-12)/(v_delta/v_len0)*${cfac}
variable d6 equal -(v_pxy1-9.4907344106727e-12)/(v_delta/v_len0)*0.0001

displace_atoms all random ${atomjiggle} ${atomjiggle} ${atomjiggle} 87287 units box
displace_atoms all random 1e-05 ${atomjiggle} ${atomjiggle} 87287 units box
displace_atoms all random 1e-05 1e-05 ${atomjiggle} 87287 units box
displace_atoms all random 1e-05 1e-05 1e-05 87287 units box
Displacing atoms ...

# Write restart
unfix 3
write_restart restart.equil
System init for write_restart ...

# uxx Perturbation

variable dir equal 1
include displace.mod
# NOTE: This script should not need to be
# modified. See in.elastic for more info.
#
# Find which reference length to use

if "${dir} == 1" then    "variable len0 equal ${lx0}"
variable len0 equal ${lx0}
variable len0 equal 8.29549490158059
if "${dir} == 2" then    "variable len0 equal ${ly0}"
if "${dir} == 3" then    "variable len0 equal ${lz0}"
if "${dir} == 4" then    "variable len0 equal ${lz0}"
if "${dir} == 5" then    "variable len0 equal ${lz0}"
if "${dir} == 6" then    "variable len0 equal ${ly0}"

# Reset box and simulation parameters

clear
  using 1 OpenMP thread(s) per MPI task
Loaded 1 plugins from C:\Program Files\LAMMPS 64-bit 23Jun2022\plugins
Loaded 0 plugins from C:\Program Files\LAMMPS 64-bit 23Jun2022-MPI\plugins
Loaded 1 plugins from C:\Program Files\LAMMPS 64-bit 22Dec2022-MSMPI\plugins
Loaded 1 plugins from C:\Program Files\LAMMPS 64-bit 28Mar2023-MPI\plugins
box tilt large

The 'box' command has been removed and will be ignored

read_restart restart.equil
Reading restart file ...
  restart file = 22 Dec 2022, LAMMPS = 22 Dec 2022
  restoring atom style atomic from restart
  triclinic box = (0.0001262746 0.0001262746 0.0001262746) to (8.2956212 12.443369 16.591116) with tilt (0 0 0)
  1 by 2 by 2 MPI processor grid
  pair style meam stores no restart info
  192 atoms
  read_restart CPU = 0.000 seconds
include potential.mod
# NOTE: This script can be modified for different pair styles
# See in.elastic for more info.

# Choose potential
#-----------------------
#pair_style	sw
#pair_coeff * * Si.sw Si
#-----------------------
#pair_style morse	2.83994742	# D0[eV] a[1/A] r0[A] rc[A], 1NN for BCC
#pair_coeff 1 1	2.1173	1.0202	2.4595	2.6497	#	Fe-Fe
#-----------------------
#pair_style smatb # R0(A)   p       q     A(eV)   xi(eV)  Rcs(A)   Rc(A), 4NN: Rcs=4NN, Rc=(4NN+5NN)/2
#pair_coeff 1 1	2.4802	7.0149	2.3779	0.3144	3.0551	4.033	4.176	#	Co	Co
#-----------------------
#pair_style eam/alloy
#pair_coeff * * AlCrFeCoNi_Zhou04.eam.alloy Fe
#-----------------------
pair_style meam
#pair_coeff * * ./../../library.meam Fe Cr Ni N ./../../FeCrNiN.meam Fe Ni
pair_coeff * * ./../../library.meam Fe Cr Ni N ./../../FeCrNiN.meam Cr N
#pair_coeff * * ./../../library.meam Fe Cr Ni N ./../../FeCrNiN.meam Ni N
#-----------------------

# Setup neighbor style
neighbor 1.0 nsq
neigh_modify once no every 1 delay 0 check yes

# Setup minimization style
min_style	     cg
min_modify	     dmax ${dmax} line quadratic
min_modify	     dmax 0.01 line quadratic

# Setup output
thermo		1
thermo_style custom step temp pe press pxx pyy pzz pxy pxz pyz lx ly lz vol
thermo_modify norm no

# Negative deformation

variable delta equal -${up}*${len0}
variable delta equal -1e-06*${len0}
variable delta equal -1e-06*8.29549490158059
variable deltaxy equal -${up}*xy
variable deltaxy equal -1e-06*xy
variable deltaxz equal -${up}*xz
variable deltaxz equal -1e-06*xz
variable deltayz equal -${up}*yz
variable deltayz equal -1e-06*yz
if "${dir} == 1" then    "change_box all x delta 0 ${delta} xy delta ${deltaxy} xz delta ${deltaxz} remap units box"
change_box all x delta 0 ${delta} xy delta ${deltaxy} xz delta ${deltaxz} remap units box
change_box all x delta 0 -8.29549490158059e-06 xy delta ${deltaxy} xz delta ${deltaxz} remap units box
change_box all x delta 0 -8.29549490158059e-06 xy delta -0 xz delta ${deltaxz} remap units box
change_box all x delta 0 -8.29549490158059e-06 xy delta -0 xz delta -0 remap units box
Changing box ...
  triclinic box = (0.0001262746 0.0001262746 0.0001262746) to (8.2956129 12.443369 16.591116) with tilt (0 0 0)
  triclinic box = (0.0001262746 0.0001262746 0.0001262746) to (8.2956129 12.443369 16.591116) with tilt (0 0 0)
  triclinic box = (0.0001262746 0.0001262746 0.0001262746) to (8.2956129 12.443369 16.591116) with tilt (0 0 0)
if "${dir} == 2" then    "change_box all y delta 0 ${delta} yz delta ${deltayz} remap units box"
if "${dir} == 3" then    "change_box all z delta 0 ${delta} remap units box"
if "${dir} == 4" then    "change_box all yz delta ${delta} remap units box"
if "${dir} == 5" then    "change_box all xz delta ${delta} remap units box"
if "${dir} == 6" then    "change_box all xy delta ${delta} remap units box"

# Relax atoms positions

minimize ${etol} ${ftol} ${maxiter} ${maxeval}
minimize 0 ${ftol} ${maxiter} ${maxeval}
minimize 0 1e-10 ${maxiter} ${maxeval}
minimize 0 1e-10 100 ${maxeval}
minimize 0 1e-10 100 1000
Neighbor list info ...
  update: every = 1 steps, delay = 0 steps, check = yes
  max neighbors/atom: 2000, page size: 100000
  master list distance cutoff = 6
  ghost atom cutoff = 6
  2 neighbor lists, perpetual/occasional/extra = 2 0 0
  (1) pair meam, perpetual
      attributes: full, newton on
      pair build: full/nsq
      stencil: none
      bin: none
  (2) pair meam, perpetual, half/full from (1)
      attributes: half, newton on
      pair build: halffull/newton
      stencil: none
      bin: none
Per MPI rank memory allocation (min/avg/max) = 9.866 | 9.879 | 9.888 Mbytes
   Step          Temp          PotEng         Press           Pxx            Pyy            Pzz            Pxy            Pxz            Pyz             Lx             Ly             Lz           Volume    
         1   0             -1003.2419      3.3342821      5.095562       2.4536218      2.4536626      1.6390841e-05 -4.3954585e-05  2.3262387e-05  8.2954866      12.443242      16.59099       1712.5676    
         2   0             -1003.2419      3.3340159      5.0952736      2.4533905      2.4533836      3.0158234e-06 -1.0982317e-05 -3.6207602e-06  8.2954866      12.443242      16.59099       1712.5676    
         3   0             -1003.2419      3.3339582      5.0952154      2.4533323      2.453327      -1.8941489e-06 -3.7762856e-06 -1.0027259e-06  8.2954866      12.443242      16.59099       1712.5676    
         4   0             -1003.2419      3.3339504      5.0952134      2.4533189      2.453319       1.6646754e-07  1.2342165e-06  1.6942515e-06  8.2954866      12.443242      16.59099       1712.5676    
         5   0             -1003.2419      3.3339473      5.0952093      2.4533164      2.4533161     -1.1135717e-06  1.4780917e-06  3.7781843e-07  8.2954866      12.443242      16.59099       1712.5676    
         6   0             -1003.2419      3.3339468      5.0952091      2.4533157      2.4533155     -6.5137858e-08  2.7248766e-07 -9.5620008e-08  8.2954866      12.443242      16.59099       1712.5676    
         7   0             -1003.2419      3.3339468      5.0952091      2.4533158      2.4533156     -3.2302467e-08 -1.5773884e-07 -1.4225349e-08  8.2954866      12.443242      16.59099       1712.5676    
         8   0             -1003.2419      3.3339471      5.0952094      2.453316       2.4533158     -4.1002922e-08 -1.2511014e-07 -6.5284002e-08  8.2954866      12.443242      16.59099       1712.5676    
         9   0             -1003.2419      3.3339472      5.0952095      2.453316       2.453316       4.3727687e-08  4.5808731e-08 -7.1598546e-08  8.2954866      12.443242      16.59099       1712.5676    
        10   0             -1003.2419      3.3339471      5.0952095      2.453316       2.453316       3.5190847e-08  4.456521e-08  -3.0976074e-08  8.2954866      12.443242      16.59099       1712.5676    
        11   0             -1003.2419      3.3339472      5.0952095      2.453316       2.453316      -4.05147e-09    1.472276e-08  -1.9397875e-08  8.2954866      12.443242      16.59099       1712.5676    
        12   0             -1003.2419      3.3339472      5.0952095      2.453316       2.453316      -1.0199784e-08  1.1450901e-08 -9.3030065e-09  8.2954866      12.443242      16.59099       1712.5676    
        13   0             -1003.2419      3.3339472      5.0952095      2.453316       2.453316      -1.150678e-09   1.2082132e-08  1.1290853e-10  8.2954866      12.443242      16.59099       1712.5676    
        14   0             -1003.2419      3.3339472      5.0952095      2.453316       2.453316       6.9198689e-09  9.5950707e-09 -1.2866364e-09  8.2954866      12.443242      16.59099       1712.5676    
        15   0             -1003.2419      3.3339472      5.0952095      2.453316       2.453316      -5.6519912e-10  1.1752683e-09  2.7670673e-10  8.2954866      12.443242      16.59099       1712.5676    
        16   0             -1003.2419      3.3339472      5.0952095      2.453316       2.453316      -2.0575699e-09  2.7933428e-10  7.5619269e-10  8.2954866      12.443242      16.59099       1712.5676    
        17   0             -1003.2419      3.3339472      5.0952095      2.453316       2.453316      -1.4454234e-09  1.577041e-09  -2.5603666e-10  8.2954866      12.443242      16.59099       1712.5676    
        18   0             -1003.2419      3.3339472      5.0952095      2.453316       2.453316      -2.4118953e-10  1.748556e-09  -9.9644637e-10  8.2954866      12.443242      16.59099       1712.5676    
        19   0             -1003.2419      3.3339472      5.0952095      2.453316       2.453316      -4.6326775e-10  4.3547064e-10 -5.0917576e-10  8.2954866      12.443242      16.59099       1712.5676    
        20   0             -1003.2419      3.3339472      5.0952095      2.453316       2.453316      -6.778806e-10  -6.0887472e-10 -1.2842711e-10  8.2954866      12.443242      16.59099       1712.5676    
        21   0             -1003.2419      3.3339472      5.0952095      2.4533161      2.453316      -2.8498198e-11  1.2813803e-10 -9.7869922e-11  8.2954866      12.443242      16.59099       1712.5676    
        22   0             -1003.2419      3.3339472      5.0952095      2.4533161      2.4533161      1.907237e-11   2.2013073e-10 -5.4440858e-11  8.2954866      12.443242      16.59099       1712.5676    
        23   0             -1003.2419      3.3339472      5.0952095      2.4533161      2.4533161     -1.4459427e-10  3.4152396e-11  4.0531262e-11  8.2954866      12.443242      16.59099       1712.5676    
        24   0             -1003.2419      3.3339472      5.0952095      2.4533161      2.4533161      3.6859401e-11  8.7149957e-11 -5.8767555e-11  8.2954866      12.443242      16.59099       1712.5676    
        25   0             -1003.2419      3.3339472      5.0952095      2.4533161      2.4533161     -5.5386475e-11  1.1060417e-10  5.7217713e-12  8.2954866      12.443242      16.59099       1712.5676    
        26   0             -1003.2419      3.3339472      5.0952095      2.4533161      2.4533161     -7.3004724e-11  9.6231729e-11  1.2507705e-11  8.2954866      12.443242      16.59099       1712.5676    
        27   0             -1003.2419      3.3339472      5.0952095      2.4533161      2.4533161     -3.8586171e-11  8.7253823e-11  1.8355689e-11  8.2954866      12.443242      16.59099       1712.5676    
        28   0             -1003.2419      3.3339472      5.0952095      2.4533161      2.4533161      8.8026325e-12  8.2488976e-11 -1.9860989e-11  8.2954866      12.443242      16.59099       1712.5676    
        29   0             -1003.2419      3.3339472      5.0952095      2.4533161      2.4533161      2.5875585e-11  6.2741477e-11 -1.5547776e-11  8.2954866      12.443242      16.59099       1712.5676    
        30   0             -1003.2419      3.3339472      5.0952095      2.4533161      2.4533161     -7.1537618e-12  8.7896493e-12  4.495538e-12   8.2954866      12.443242      16.59099       1712.5676    
        31   0             -1003.2419      3.3339472      5.0952095      2.4533161      2.4533161     -1.0152889e-11  1.0990307e-11 -1.5826546e-11  8.2954866      12.443242      16.59099       1712.5676    
        32   0             -1003.2419      3.3339472      5.0952095      2.4533161      2.4533161      1.4930719e-12 -5.7191145e-12  1.6844392e-11  8.2954866      12.443242      16.59099       1712.5676    
        33   0             -1003.2419      3.3339472      5.0952095      2.4533161      2.4533161      1.918922e-11  -2.0773174e-12  3.6999722e-12  8.2954866      12.443242      16.59099       1712.5676    
        34   0             -1003.2419      3.3339472      5.0952095      2.4533161      2.4533161      1.3268865e-11 -8.0690798e-12  1.7264713e-13  8.2954866      12.443242      16.59099       1712.5676    
        35   0             -1003.2419      3.3339472      5.0952095      2.4533161      2.4533161     -1.8462158e-11  1.6793813e-11 -1.1293264e-12  8.2954866      12.443242      16.59099       1712.5676    
        36   0             -1003.2419      3.3339472      5.0952095      2.4533161      2.4533161     -3.7391713e-12  5.0959193e-12  5.6631336e-12  8.2954866      12.443242      16.59099       1712.5676    
        37   0             -1003.2419      3.3339472      5.0952095      2.4533161      2.4533161     -6.439684e-12   4.5960648e-12  7.2085693e-12  8.2954866      12.443242      16.59099       1712.5676    
        38   0             -1003.2419      3.3339472      5.0952095      2.4533161      2.4533161     -4.3364001e-12 -8.9584313e-12 -1.1970669e-11  8.2954866      12.443242      16.59099       1712.5676    
        39   0             -1003.2419      3.3339472      5.0952095      2.4533161      2.4533161      5.6866564e-12  5.1932935e-13  2.1930722e-13  8.2954866      12.443242      16.59099       1712.5676    
        40   0             -1003.2419      3.3339472      5.0952095      2.4533161      2.4533161     -8.7117499e-12 -1.2003e-11    -1.5524546e-11  8.2954866      12.443242      16.59099       1712.5676    
        41   0             -1003.2419      3.3339472      5.0952095      2.4533161      2.4533161      7.776957e-12  -4.7064222e-12  4.0373637e-12  8.2954866      12.443242      16.59099       1712.5676    
        42   0             -1003.2419      3.3339472      5.0952095      2.4533161      2.4533161      1.1736843e-11  7.2641193e-12 -8.4809381e-12  8.2954866      12.443242      16.59099       1712.5676    
        43   0             -1003.2419      3.3339472      5.0952095      2.4533161      2.4533161      1.6203076e-11 -9.1726547e-12 -7.0821129e-12  8.2954866      12.443242      16.59099       1712.5676    
        44   0             -1003.2419      3.3339472      5.0952095      2.4533161      2.4533161      4.7648468e-12 -3.998836e-12   1.9669425e-12  8.2954866      12.443242      16.59099       1712.5676    
        45   0             -1003.2419      3.3339472      5.0952095      2.4533161      2.4533161     -5.8424552e-13 -9.3544199e-12 -6.9969994e-13  8.2954866      12.443242      16.59099       1712.5676    
        46   0             -1003.2419      3.3339472      5.0952095      2.4533161      2.4533161      2.8043785e-12  6.5110917e-12 -8.6952312e-12  8.2954866      12.443242      16.59099       1712.5676    
        47   0             -1003.2419      3.3339472      5.0952095      2.4533161      2.4533161      7.9846888e-12 -6.6214492e-12 -1.7361805e-11  8.2954866      12.443242      16.59099       1712.5676    
        48   0             -1003.2419      3.3339472      5.0952095      2.4533161      2.4533161     -4.3364001e-12 -5.9203546e-12 -8.1289383e-12  8.2954866      12.443242      16.59099       1712.5676    
Loop time of 0.128714 on 4 procs for 47 steps with 192 atoms

60.7% CPU use with 4 MPI tasks x 1 OpenMP threads

Minimization stats:
  Stopping criterion = force tolerance
  Energy initial, next-to-last, final = 
     -1003.24194868201  -1003.24194874612  -1003.24194874612
  Force two-norm initial, final = 0.0011385698 7.5384503e-11
  Force max component initial, final = 0.00015066893 1.1140318e-11
  Final line search alpha, max atom move = 1 1.1140318e-11
  Iterations, force evaluations = 47 94

MPI task timing breakdown:
Section |  min time  |  avg time  |  max time  |%varavg| %total
---------------------------------------------------------------
Pair    | 0.11376    | 0.12096    | 0.12505    |   1.3 | 93.98
Neigh   | 0          | 0          | 0          |   0.0 |  0.00
Comm    | 0.002453   | 0.0065223  | 0.013685   |   5.4 |  5.07
Output  | 0.000541   | 0.000589   | 0.000696   |   0.0 |  0.46
Modify  | 0          | 0          | 0          |   0.0 |  0.00
Other   |            | 0.0006433  |            |       |  0.50

Nlocal:             48 ave          54 max          39 min
Histogram: 1 0 0 0 0 0 1 0 1 1
Nghost:            600 ave         609 max         594 min
Histogram: 1 0 1 0 1 0 0 0 0 1
Neighs:           2208 ave        2453 max        1740 min
Histogram: 1 0 0 0 0 0 0 1 0 2
FullNghs:         4416 ave        4968 max        3588 min
Histogram: 1 0 0 0 0 0 1 0 1 1

Total # of neighbors = 17664
Ave neighs/atom = 92
Neighbor list builds = 0
Dangerous builds = 0

# Obtain new stress tensor

variable tmp equal pxx
variable pxx1 equal ${tmp}
variable pxx1 equal 5.09520949555235
variable tmp equal pyy
variable pyy1 equal ${tmp}
variable pyy1 equal 2.45331605091971
variable tmp equal pzz
variable pzz1 equal ${tmp}
variable pzz1 equal 2.4533160510694
variable tmp equal pxy
variable pxy1 equal ${tmp}
variable pxy1 equal -4.33640008628337e-12
variable tmp equal pxz
variable pxz1 equal ${tmp}
variable pxz1 equal -5.92035460881802e-12
variable tmp equal pyz
variable pyz1 equal ${tmp}
variable pyz1 equal -8.12893826211923e-12

# Compute elastic constant from pressure tensor

variable C1neg equal ${d1}
variable C1neg equal 509.520949530062
variable C2neg equal ${d2}
variable C2neg equal 245.331605065772
variable C3neg equal ${d3}
variable C3neg equal 245.331605083725
variable C4neg equal ${d4}
variable C4neg equal -1.06054876312517e-09
variable C5neg equal ${d5}
variable C5neg equal -3.79435220150249e-10
variable C6neg equal ${d6}
variable C6neg equal -1.38271344969561e-09

# Reset box and simulation parameters

clear
  using 1 OpenMP thread(s) per MPI task
Loaded 1 plugins from C:\Program Files\LAMMPS 64-bit 23Jun2022\plugins
Loaded 0 plugins from C:\Program Files\LAMMPS 64-bit 23Jun2022-MPI\plugins
Loaded 1 plugins from C:\Program Files\LAMMPS 64-bit 22Dec2022-MSMPI\plugins
Loaded 1 plugins from C:\Program Files\LAMMPS 64-bit 28Mar2023-MPI\plugins
box tilt large

The 'box' command has been removed and will be ignored

read_restart restart.equil
Reading restart file ...
  restart file = 22 Dec 2022, LAMMPS = 22 Dec 2022
  restoring atom style atomic from restart
  triclinic box = (0.0001262746 0.0001262746 0.0001262746) to (8.2956212 12.443369 16.591116) with tilt (0 0 0)
  1 by 2 by 2 MPI processor grid
  pair style meam stores no restart info
  192 atoms
  read_restart CPU = 0.000 seconds
include potential.mod
# NOTE: This script can be modified for different pair styles
# See in.elastic for more info.

# Choose potential
#-----------------------
#pair_style	sw
#pair_coeff * * Si.sw Si
#-----------------------
#pair_style morse	2.83994742	# D0[eV] a[1/A] r0[A] rc[A], 1NN for BCC
#pair_coeff 1 1	2.1173	1.0202	2.4595	2.6497	#	Fe-Fe
#-----------------------
#pair_style smatb # R0(A)   p       q     A(eV)   xi(eV)  Rcs(A)   Rc(A), 4NN: Rcs=4NN, Rc=(4NN+5NN)/2
#pair_coeff 1 1	2.4802	7.0149	2.3779	0.3144	3.0551	4.033	4.176	#	Co	Co
#-----------------------
#pair_style eam/alloy
#pair_coeff * * AlCrFeCoNi_Zhou04.eam.alloy Fe
#-----------------------
pair_style meam
#pair_coeff * * ./../../library.meam Fe Cr Ni N ./../../FeCrNiN.meam Fe Ni
pair_coeff * * ./../../library.meam Fe Cr Ni N ./../../FeCrNiN.meam Cr N
#pair_coeff * * ./../../library.meam Fe Cr Ni N ./../../FeCrNiN.meam Ni N
#-----------------------

# Setup neighbor style
neighbor 1.0 nsq
neigh_modify once no every 1 delay 0 check yes

# Setup minimization style
min_style	     cg
min_modify	     dmax ${dmax} line quadratic
min_modify	     dmax 0.01 line quadratic

# Setup output
thermo		1
thermo_style custom step temp pe press pxx pyy pzz pxy pxz pyz lx ly lz vol
thermo_modify norm no

# Positive deformation

variable delta equal ${up}*${len0}
variable delta equal 1e-06*${len0}
variable delta equal 1e-06*8.29549490158059
variable deltaxy equal ${up}*xy
variable deltaxy equal 1e-06*xy
variable deltaxz equal ${up}*xz
variable deltaxz equal 1e-06*xz
variable deltayz equal ${up}*yz
variable deltayz equal 1e-06*yz
if "${dir} == 1" then    "change_box all x delta 0 ${delta} xy delta ${deltaxy} xz delta ${deltaxz} remap units box"
change_box all x delta 0 ${delta} xy delta ${deltaxy} xz delta ${deltaxz} remap units box
change_box all x delta 0 8.29549490158059e-06 xy delta ${deltaxy} xz delta ${deltaxz} remap units box
change_box all x delta 0 8.29549490158059e-06 xy delta 0 xz delta ${deltaxz} remap units box
change_box all x delta 0 8.29549490158059e-06 xy delta 0 xz delta 0 remap units box
Changing box ...
  triclinic box = (0.0001262746 0.0001262746 0.0001262746) to (8.2956295 12.443369 16.591116) with tilt (0 0 0)
  triclinic box = (0.0001262746 0.0001262746 0.0001262746) to (8.2956295 12.443369 16.591116) with tilt (0 0 0)
  triclinic box = (0.0001262746 0.0001262746 0.0001262746) to (8.2956295 12.443369 16.591116) with tilt (0 0 0)
if "${dir} == 2" then    "change_box all y delta 0 ${delta} yz delta ${deltayz} remap units box"
if "${dir} == 3" then    "change_box all z delta 0 ${delta} remap units box"
if "${dir} == 4" then    "change_box all yz delta ${delta} remap units box"
if "${dir} == 5" then    "change_box all xz delta ${delta} remap units box"
if "${dir} == 6" then    "change_box all xy delta ${delta} remap units box"

# Relax atoms positions

minimize ${etol} ${ftol} ${maxiter} ${maxeval}
minimize 0 ${ftol} ${maxiter} ${maxeval}
minimize 0 1e-10 ${maxiter} ${maxeval}
minimize 0 1e-10 100 ${maxeval}
minimize 0 1e-10 100 1000
Neighbor list info ...
  update: every = 1 steps, delay = 0 steps, check = yes
  max neighbors/atom: 2000, page size: 100000
  master list distance cutoff = 6
  ghost atom cutoff = 6
  2 neighbor lists, perpetual/occasional/extra = 2 0 0
  (1) pair meam, perpetual
      attributes: full, newton on
      pair build: full/nsq
      stencil: none
      bin: none
  (2) pair meam, perpetual, half/full from (1)
      attributes: half, newton on
      pair build: halffull/newton
      stencil: none
      bin: none
Per MPI rank memory allocation (min/avg/max) = 9.866 | 9.879 | 9.888 Mbytes
   Step          Temp          PotEng         Press           Pxx            Pyy            Pzz            Pxy            Pxz            Pyz             Lx             Ly             Lz           Volume    
         1   0             -1003.2419     -3.3335792     -5.0947844     -2.452997      -2.4529562      1.6390838e-05 -4.3954379e-05  2.3262277e-05  8.2955032      12.443242      16.59099       1712.571     
         2   0             -1003.2419     -3.3338454     -5.0950727     -2.4532283     -2.4532352      3.0159176e-06 -1.0982134e-05 -3.6206205e-06  8.2955032      12.443242      16.59099       1712.571     
         3   0             -1003.2419     -3.3339031     -5.0951309     -2.4532864     -2.4532918     -1.8942124e-06 -3.7763155e-06 -1.0026599e-06  8.2955032      12.443242      16.59099       1712.571     
         4   0             -1003.2419     -3.3339109     -5.095133      -2.4532999     -2.4532998      1.6649328e-07  1.2341358e-06  1.6942265e-06  8.2955032      12.443242      16.59099       1712.571     
         5   0             -1003.2419     -3.3339141     -5.0951371     -2.4533024     -2.4533027     -1.1135074e-06  1.4781412e-06  3.7782557e-07  8.2955032      12.443242      16.59099       1712.571     
         6   0             -1003.2419     -3.3339146     -5.0951373     -2.4533031     -2.4533033     -6.5159864e-08  2.7252188e-07 -9.5617409e-08  8.2955032      12.443242      16.59099       1712.571     
         7   0             -1003.2419     -3.3339145     -5.0951372     -2.453303      -2.4533032     -3.2305882e-08 -1.577446e-07  -1.4226202e-08  8.2955032      12.443242      16.59099       1712.571     
         8   0             -1003.2419     -3.3339142     -5.095137      -2.4533028     -2.4533029     -4.0996374e-08 -1.2508946e-07 -6.5308747e-08  8.2955032      12.443242      16.59099       1712.571     
         9   0             -1003.2419     -3.3339142     -5.0951369     -2.4533028     -2.4533028      4.3752644e-08  4.5827737e-08 -7.1587237e-08  8.2955032      12.443242      16.59099       1712.571     
        10   0             -1003.2419     -3.3339142     -5.0951369     -2.4533028     -2.4533028      3.517882e-08   4.4573508e-08 -3.096959e-08   8.2955032      12.443242      16.59099       1712.571     
        11   0             -1003.2419     -3.3339142     -5.0951369     -2.4533028     -2.4533028     -4.0647957e-09  1.4718939e-08 -1.9398177e-08  8.2955032      12.443242      16.59099       1712.571     
        12   0             -1003.2419     -3.3339141     -5.0951369     -2.4533028     -2.4533028     -1.0188261e-08  1.1468996e-08 -9.3084149e-09  8.2955032      12.443242      16.59099       1712.571     
        13   0             -1003.2419     -3.3339141     -5.0951369     -2.4533028     -2.4533028     -1.1423665e-09  1.2065775e-08  1.2043302e-10  8.2955032      12.443242      16.59099       1712.571     
        14   0             -1003.2419     -3.3339141     -5.0951369     -2.4533027     -2.4533028      6.8969137e-09  9.6010627e-09 -1.2991414e-09  8.2955032      12.443242      16.59099       1712.571     
        15   0             -1003.2419     -3.3339141     -5.0951369     -2.4533027     -2.4533028     -5.6318559e-10  1.1628086e-09  2.5663043e-10  8.2955032      12.443242      16.59099       1712.571     
        16   0             -1003.2419     -3.3339141     -5.0951369     -2.4533027     -2.4533027     -2.0634732e-09  2.8589673e-10  7.6344522e-10  8.2955032      12.443242      16.59099       1712.571     
        17   0             -1003.2419     -3.3339141     -5.0951369     -2.4533027     -2.4533027     -1.444304e-09   1.5499548e-09 -2.5374686e-10  8.2955032      12.443242      16.59099       1712.571     
        18   0             -1003.2419     -3.3339141     -5.0951369     -2.4533027     -2.4533027     -2.6710353e-10  1.7549532e-09 -1.0027732e-09  8.2955032      12.443242      16.59099       1712.571     
        19   0             -1003.2419     -3.3339141     -5.0951369     -2.4533027     -2.4533027     -4.8899954e-10  4.1355412e-10 -5.109777e-10   8.2955032      12.443242      16.59099       1712.571     
        20   0             -1003.2419     -3.3339141     -5.0951369     -2.4533027     -2.4533027     -6.7754168e-10 -5.8638009e-10 -1.3628919e-10  8.2955032      12.443242      16.59099       1712.571     
        21   0             -1003.2419     -3.3339141     -5.0951369     -2.4533027     -2.4533027     -3.1562178e-11  9.3550504e-11 -1.1188444e-10  8.2955032      12.443242      16.59099       1712.571     
        22   0             -1003.2419     -3.3339141     -5.0951369     -2.4533027     -2.4533027     -2.9471882e-12  2.0031791e-10 -5.8093493e-11  8.2955032      12.443242      16.59099       1712.571     
        23   0             -1003.2419     -3.3339141     -5.0951369     -2.4533027     -2.4533027     -1.3471376e-10  4.0825697e-11  2.5762028e-11  8.2955032      12.443242      16.59099       1712.571     
        24   0             -1003.2419     -3.3339141     -5.0951369     -2.4533027     -2.4533027      3.067932e-11   9.6471726e-11 -3.6989078e-11  8.2955032      12.443242      16.59099       1712.571     
        25   0             -1003.2419     -3.3339141     -5.0951369     -2.4533027     -2.4533027     -6.3163306e-11  1.0049003e-10  4.8216358e-12  8.2955032      12.443242      16.59099       1712.571     
        26   0             -1003.2419     -3.3339141     -5.0951369     -2.4533027     -2.4533027     -6.9745792e-11  1.0799432e-10  2.346241e-11   8.2955032      12.443242      16.59099       1712.571     
        27   0             -1003.2419     -3.3339141     -5.0951369     -2.4533027     -2.4533027     -3.8949623e-13  7.6289329e-11  2.5614997e-11  8.2955032      12.443242      16.59099       1712.571     
        28   0             -1003.2419     -3.3339141     -5.0951369     -2.4533027     -2.4533027      1.6566573e-11  7.7068322e-11 -1.3611331e-11  8.2955032      12.443242      16.59099       1712.571     
        29   0             -1003.2419     -3.3339141     -5.0951369     -2.4533027     -2.4533027      2.0617334e-11  5.7139098e-11  8.6764997e-13  8.2955032      12.443242      16.59099       1712.571     
        30   0             -1003.2419     -3.3339141     -5.0951369     -2.4533027     -2.4533027     -2.1681957e-11  1.2924783e-11  1.425503e-12   8.2955032      12.443242      16.59099       1712.571     
        31   0             -1003.2419     -3.3339141     -5.0951369     -2.4533027     -2.4533027     -2.0292754e-11 -2.7913897e-13  4.5364104e-12  8.2955032      12.443242      16.59099       1712.571     
        32   0             -1003.2419     -3.3339141     -5.0951369     -2.4533027     -2.4533027     -1.4411361e-11  9.8088135e-12 -4.1649483e-12  8.2955032      12.443242      16.59099       1712.571     
        33   0             -1003.2419     -3.3339141     -5.0951369     -2.4533027     -2.4533027     -3.6093318e-12 -1.4930689e-12  2.4230956e-12  8.2955032      12.443242      16.59099       1712.571     
        34   0             -1003.2419     -3.3339141     -5.0951369     -2.4533027     -2.4533027     -1.3372704e-11 -2.8887637e-12  4.4555423e-12  8.2955032      12.443242      16.59099       1712.571     
        35   0             -1003.2419     -3.3339141     -5.0951369     -2.4533027     -2.4533027      9.1012287e-12  7.4199033e-12 -3.7086457e-12  8.2955032      12.443242      16.59099       1712.571     
        36   0             -1003.2419     -3.3339141     -5.0951369     -2.4533027     -2.4533027     -3.1289531e-12  1.3139006e-11  3.4579547e-12  8.2955032      12.443242      16.59099       1712.571     
        37   0             -1003.2419     -3.3339141     -5.0951369     -2.4533027     -2.4533027      5.1932831e-12  3.9923364e-12 -3.5040984e-12  8.2955032      12.443242      16.59099       1712.571     
        38   0             -1003.2419     -3.3339141     -5.0951369     -2.4533027     -2.4533027     -2.9731546e-12  5.4334725e-12 -7.4152761e-12  8.2955032      12.443242      16.59099       1712.571     
        39   0             -1003.2419     -3.3339141     -5.0951369     -2.4533027     -2.4533027     -1.3385687e-11 -1.0100936e-11  4.2034845e-12  8.2955032      12.443242      16.59099       1712.571     
        40   0             -1003.2419     -3.3339141     -5.0951369     -2.4533027     -2.4533027     -1.7215734e-11 -9.7049478e-12 -1.3160138e-13  8.2955032      12.443242      16.59099       1712.571     
        41   0             -1003.2419     -3.3339141     -5.0951369     -2.4533027     -2.4533027      4.0247944e-13 -2.0584876e-11 -3.5702984e-12  8.2955032      12.443242      16.59099       1712.571     
        42   0             -1003.2419     -3.3339141     -5.0951369     -2.4533027     -2.4533027     -9.685473e-12   9.7763555e-12  9.8050148e-12  8.2955032      12.443242      16.59099       1712.571     
        43   0             -1003.2419     -3.3339141     -5.0951369     -2.4533027     -2.4533027      6.5435367e-12 -3.8754875e-12  1.1382703e-11  8.2955032      12.443242      16.59099       1712.571     
        44   0             -1003.2419     -3.3339141     -5.0951369     -2.4533027     -2.4533027     -1.4021864e-11  1.274951e-11  -3.4974574e-12  8.2955032      12.443242      16.59099       1712.571     
        45   0             -1003.2419     -3.3339141     -5.0951369     -2.4533027     -2.4533027      1.8565987e-12  6.4656375e-12 -7.2558762e-12  8.2955032      12.443242      16.59099       1712.571     
        46   0             -1003.2419     -3.3339141     -5.0951369     -2.4533027     -2.4533027      1.5450017e-11 -5.1283671e-13 -1.2426145e-11  8.2955032      12.443242      16.59099       1712.571     
        47   0             -1003.2419     -3.3339141     -5.0951369     -2.4533027     -2.4533027     -1.5748631e-11  1.3372704e-12 -3.239938e-14   8.2955032      12.443242      16.59099       1712.571     
        48   0             -1003.2419     -3.3339141     -5.0951369     -2.4533027     -2.4533027      6.2059733e-12  5.2517076e-12 -1.6544748e-12  8.2955032      12.443242      16.59099       1712.571     
Loop time of 0.128511 on 4 procs for 47 steps with 192 atoms

66.9% CPU use with 4 MPI tasks x 1 OpenMP threads

Minimization stats:
  Stopping criterion = force tolerance
  Energy initial, next-to-last, final = 
     -1003.24194868201  -1003.24194874612  -1003.24194874612
  Force two-norm initial, final = 0.0011385571 7.6226349e-11
  Force max component initial, final = 0.00015066882 1.2106539e-11
  Final line search alpha, max atom move = 1 1.2106539e-11
  Iterations, force evaluations = 47 94

MPI task timing breakdown:
Section |  min time  |  avg time  |  max time  |%varavg| %total
---------------------------------------------------------------
Pair    | 0.11403    | 0.12093    | 0.12513    |   1.2 | 94.10
Neigh   | 0          | 0          | 0          |   0.0 |  0.00
Comm    | 0.002109   | 0.0062798  | 0.013134   |   5.3 |  4.89
Output  | 0.000611   | 0.0006515  | 0.000741   |   0.0 |  0.51
Modify  | 0          | 0          | 0          |   0.0 |  0.00
Other   |            | 0.000645   |            |       |  0.50

Nlocal:             48 ave          54 max          39 min
Histogram: 1 0 0 0 0 0 1 0 1 1
Nghost:            600 ave         609 max         594 min
Histogram: 1 0 1 0 1 0 0 0 0 1
Neighs:           2208 ave        2453 max        1740 min
Histogram: 1 0 0 0 0 0 0 1 0 2
FullNghs:         4416 ave        4968 max        3588 min
Histogram: 1 0 0 0 0 0 1 0 1 1

Total # of neighbors = 17664
Ave neighs/atom = 92
Neighbor list builds = 0
Dangerous builds = 0

# Obtain new stress tensor

variable tmp equal pe
variable e1 equal ${tmp}
variable e1 equal -1003.24194874612
variable tmp equal press
variable p1 equal ${tmp}
variable p1 equal -3.33391411663752
variable tmp equal pxx
variable pxx1 equal ${tmp}
variable pxx1 equal -5.09513686973692
variable tmp equal pyy
variable pyy1 equal ${tmp}
variable pyy1 equal -2.45330274021645
variable tmp equal pzz
variable pzz1 equal ${tmp}
variable pzz1 equal -2.45330273995918
variable tmp equal pxy
variable pxy1 equal ${tmp}
variable pxy1 equal 6.20597334026681e-12
variable tmp equal pxz
variable pxz1 equal ${tmp}
variable pxz1 equal 5.2517075651421e-12
variable tmp equal pyz
variable pyz1 equal ${tmp}
variable pyz1 equal -1.65447484152941e-12

# Compute elastic constant from pressure tensor

variable C1pos equal ${d1}
variable C1pos equal 509.513686998864
variable C2pos equal ${d2}
variable C2pos equal 245.330274047843
variable C3pos equal ${d3}
variable C3pos equal 245.330274019133
variable C4pos equal ${d4}
variable C4pos equal 4.13102421066186e-10
variable C5pos equal ${d5}
variable C5pos equal -7.37770997245763e-10
variable C6pos equal ${d6}
variable C6pos equal 3.28476107040589e-10

# Combine positive and negative

variable C1${dir} equal 0.5*(${C1neg}+${C1pos})
variable C11 equal 0.5*(${C1neg}+${C1pos})
variable C11 equal 0.5*(509.520949530062+${C1pos})
variable C11 equal 0.5*(509.520949530062+509.513686998864)
variable C2${dir} equal 0.5*(${C2neg}+${C2pos})
variable C21 equal 0.5*(${C2neg}+${C2pos})
variable C21 equal 0.5*(245.331605065772+${C2pos})
variable C21 equal 0.5*(245.331605065772+245.330274047843)
variable C3${dir} equal 0.5*(${C3neg}+${C3pos})
variable C31 equal 0.5*(${C3neg}+${C3pos})
variable C31 equal 0.5*(245.331605083725+${C3pos})
variable C31 equal 0.5*(245.331605083725+245.330274019133)
variable C4${dir} equal 0.5*(${C4neg}+${C4pos})
variable C41 equal 0.5*(${C4neg}+${C4pos})
variable C41 equal 0.5*(-1.06054876312517e-09+${C4pos})
variable C41 equal 0.5*(-1.06054876312517e-09+4.13102421066186e-10)
variable C5${dir} equal 0.5*(${C5neg}+${C5pos})
variable C51 equal 0.5*(${C5neg}+${C5pos})
variable C51 equal 0.5*(-3.79435220150249e-10+${C5pos})
variable C51 equal 0.5*(-3.79435220150249e-10+-7.37770997245763e-10)
variable C6${dir} equal 0.5*(${C6neg}+${C6pos})
variable C61 equal 0.5*(${C6neg}+${C6pos})
variable C61 equal 0.5*(-1.38271344969561e-09+${C6pos})
variable C61 equal 0.5*(-1.38271344969561e-09+3.28476107040589e-10)

# Delete dir to make sure it is not reused

variable dir delete

# uyy Perturbation

variable dir equal 2
include displace.mod
# NOTE: This script should not need to be
# modified. See in.elastic for more info.
#
# Find which reference length to use

if "${dir} == 1" then    "variable len0 equal ${lx0}"
if "${dir} == 2" then    "variable len0 equal ${ly0}"
variable len0 equal ${ly0}
variable len0 equal 12.4432423523709
if "${dir} == 3" then    "variable len0 equal ${lz0}"
if "${dir} == 4" then    "variable len0 equal ${lz0}"
if "${dir} == 5" then    "variable len0 equal ${lz0}"
if "${dir} == 6" then    "variable len0 equal ${ly0}"

# Reset box and simulation parameters

clear
  using 1 OpenMP thread(s) per MPI task
Loaded 1 plugins from C:\Program Files\LAMMPS 64-bit 23Jun2022\plugins
Loaded 0 plugins from C:\Program Files\LAMMPS 64-bit 23Jun2022-MPI\plugins
Loaded 1 plugins from C:\Program Files\LAMMPS 64-bit 22Dec2022-MSMPI\plugins
Loaded 1 plugins from C:\Program Files\LAMMPS 64-bit 28Mar2023-MPI\plugins
box tilt large

The 'box' command has been removed and will be ignored

read_restart restart.equil
Reading restart file ...
  restart file = 22 Dec 2022, LAMMPS = 22 Dec 2022
  restoring atom style atomic from restart
  triclinic box = (0.0001262746 0.0001262746 0.0001262746) to (8.2956212 12.443369 16.591116) with tilt (0 0 0)
  1 by 2 by 2 MPI processor grid
  pair style meam stores no restart info
  192 atoms
  read_restart CPU = 0.000 seconds
include potential.mod
# NOTE: This script can be modified for different pair styles
# See in.elastic for more info.

# Choose potential
#-----------------------
#pair_style	sw
#pair_coeff * * Si.sw Si
#-----------------------
#pair_style morse	2.83994742	# D0[eV] a[1/A] r0[A] rc[A], 1NN for BCC
#pair_coeff 1 1	2.1173	1.0202	2.4595	2.6497	#	Fe-Fe
#-----------------------
#pair_style smatb # R0(A)   p       q     A(eV)   xi(eV)  Rcs(A)   Rc(A), 4NN: Rcs=4NN, Rc=(4NN+5NN)/2
#pair_coeff 1 1	2.4802	7.0149	2.3779	0.3144	3.0551	4.033	4.176	#	Co	Co
#-----------------------
#pair_style eam/alloy
#pair_coeff * * AlCrFeCoNi_Zhou04.eam.alloy Fe
#-----------------------
pair_style meam
#pair_coeff * * ./../../library.meam Fe Cr Ni N ./../../FeCrNiN.meam Fe Ni
pair_coeff * * ./../../library.meam Fe Cr Ni N ./../../FeCrNiN.meam Cr N
#pair_coeff * * ./../../library.meam Fe Cr Ni N ./../../FeCrNiN.meam Ni N
#-----------------------

# Setup neighbor style
neighbor 1.0 nsq
neigh_modify once no every 1 delay 0 check yes

# Setup minimization style
min_style	     cg
min_modify	     dmax ${dmax} line quadratic
min_modify	     dmax 0.01 line quadratic

# Setup output
thermo		1
thermo_style custom step temp pe press pxx pyy pzz pxy pxz pyz lx ly lz vol
thermo_modify norm no

# Negative deformation

variable delta equal -${up}*${len0}
variable delta equal -1e-06*${len0}
variable delta equal -1e-06*12.4432423523709
variable deltaxy equal -${up}*xy
variable deltaxy equal -1e-06*xy
variable deltaxz equal -${up}*xz
variable deltaxz equal -1e-06*xz
variable deltayz equal -${up}*yz
variable deltayz equal -1e-06*yz
if "${dir} == 1" then    "change_box all x delta 0 ${delta} xy delta ${deltaxy} xz delta ${deltaxz} remap units box"
if "${dir} == 2" then    "change_box all y delta 0 ${delta} yz delta ${deltayz} remap units box"
change_box all y delta 0 ${delta} yz delta ${deltayz} remap units box
change_box all y delta 0 -1.24432423523709e-05 yz delta ${deltayz} remap units box
change_box all y delta 0 -1.24432423523709e-05 yz delta -0 remap units box
Changing box ...
  triclinic box = (0.0001262746 0.0001262746 0.0001262746) to (8.2956212 12.443356 16.591116) with tilt (0 0 0)
  triclinic box = (0.0001262746 0.0001262746 0.0001262746) to (8.2956212 12.443356 16.591116) with tilt (0 0 0)
if "${dir} == 3" then    "change_box all z delta 0 ${delta} remap units box"
if "${dir} == 4" then    "change_box all yz delta ${delta} remap units box"
if "${dir} == 5" then    "change_box all xz delta ${delta} remap units box"
if "${dir} == 6" then    "change_box all xy delta ${delta} remap units box"

# Relax atoms positions

minimize ${etol} ${ftol} ${maxiter} ${maxeval}
minimize 0 ${ftol} ${maxiter} ${maxeval}
minimize 0 1e-10 ${maxiter} ${maxeval}
minimize 0 1e-10 100 ${maxeval}
minimize 0 1e-10 100 1000
Neighbor list info ...
  update: every = 1 steps, delay = 0 steps, check = yes
  max neighbors/atom: 2000, page size: 100000
  master list distance cutoff = 6
  ghost atom cutoff = 6
  2 neighbor lists, perpetual/occasional/extra = 2 0 0
  (1) pair meam, perpetual
      attributes: full, newton on
      pair build: full/nsq
      stencil: none
      bin: none
  (2) pair meam, perpetual, half/full from (1)
      attributes: half, newton on
      pair build: halffull/newton
      stencil: none
      bin: none
Per MPI rank memory allocation (min/avg/max) = 9.866 | 9.879 | 9.888 Mbytes
   Step          Temp          PotEng         Press           Pxx            Pyy            Pzz            Pxy            Pxz            Pyz             Lx             Ly             Lz           Volume    
         1   0             -1003.2419      3.3342821      2.4536686      5.0955153      2.4536626      1.6390931e-05 -4.3954515e-05  2.3262467e-05  8.2954949      12.44323       16.59099       1712.5676    
         2   0             -1003.2419      3.3340159      2.4533802      5.0952839      2.4533836      3.0158711e-06 -1.0982138e-05 -3.6207454e-06  8.2954949      12.44323       16.59099       1712.5676    
         3   0             -1003.2419      3.3339582      2.453322       5.0952258      2.453327      -1.8942208e-06 -3.7762042e-06 -1.0027491e-06  8.2954949      12.44323       16.59099       1712.5676    
         4   0             -1003.2419      3.3339504      2.45332        5.0952123      2.453319       1.6643502e-07  1.2342374e-06  1.6942364e-06  8.2954949      12.44323       16.59099       1712.5676    
         5   0             -1003.2419      3.3339473      2.4533158      5.0952098      2.4533161     -1.1135257e-06  1.4781192e-06  3.7778697e-07  8.2954949      12.44323       16.59099       1712.5676    
         6   0             -1003.2419      3.3339468      2.4533156      5.0952092      2.4533155     -6.5170692e-08  2.7247616e-07 -9.5585505e-08  8.2954949      12.44323       16.59099       1712.5676    
         7   0             -1003.2419      3.3339468      2.4533157      5.0952092      2.4533156     -3.2294755e-08 -1.5773626e-07 -1.42085e-08    8.2954949      12.44323       16.59099       1712.5676    
         8   0             -1003.2419      3.3339471      2.4533159      5.0952094      2.4533158     -4.0995028e-08 -1.2510201e-07 -6.5316793e-08  8.2954949      12.44323       16.59099       1712.5676    
         9   0             -1003.2419      3.3339472      2.453316       5.0952095      2.453316       4.377244e-08   4.5817021e-08 -7.1582427e-08  8.2954949      12.44323       16.59099       1712.5676    
        10   0             -1003.2419      3.3339471      2.453316       5.0952094      2.453316       3.5173086e-08  4.4573052e-08 -3.0985748e-08  8.2954949      12.44323       16.59099       1712.5676    
        11   0             -1003.2419      3.3339472      2.453316       5.0952095      2.453316      -4.0440956e-09  1.473884e-08  -1.9411911e-08  8.2954949      12.44323       16.59099       1712.5676    
        12   0             -1003.2419      3.3339472      2.453316       5.0952095      2.453316      -1.0196266e-08  1.1462495e-08 -9.2820229e-09  8.2954949      12.44323       16.59099       1712.5676    
        13   0             -1003.2419      3.3339472      2.453316       5.0952095      2.453316      -1.1513791e-09  1.2086826e-08  1.0946689e-10  8.2954949      12.44323       16.59099       1712.5676    
        14   0             -1003.2419      3.3339472      2.453316       5.0952095      2.453316       6.9191029e-09  9.5980114e-09 -1.2939933e-09  8.2954949      12.44323       16.59099       1712.5676    
        15   0             -1003.2419      3.3339472      2.453316       5.0952095      2.453316      -5.6205717e-10  1.1601104e-09  2.7405161e-10  8.2954949      12.44323       16.59099       1712.5676    
        16   0             -1003.2419      3.3339472      2.453316       5.0952095      2.453316      -2.0510134e-09  2.8644909e-10  7.7662182e-10  8.2954949      12.44323       16.59099       1712.5676    
        17   0             -1003.2419      3.3339472      2.453316       5.0952095      2.453316      -1.4521487e-09  1.5875574e-09 -2.4222294e-10  8.2954949      12.44323       16.59099       1712.5676    
        18   0             -1003.2419      3.3339472      2.453316       5.0952095      2.453316      -2.6605243e-10  1.7577221e-09 -9.9745135e-10  8.2954949      12.44323       16.59099       1712.5676    
        19   0             -1003.2419      3.3339472      2.453316       5.0952095      2.453316      -4.7953574e-10  4.2730419e-10 -5.057194e-10   8.2954949      12.44323       16.59099       1712.5676    
        20   0             -1003.2419      3.3339472      2.453316       5.0952095      2.453316      -6.8121729e-10 -5.8018826e-10 -1.1628264e-10  8.2954949      12.44323       16.59099       1712.5676    
        21   0             -1003.2419      3.3339472      2.4533161      5.0952095      2.4533161     -3.384729e-11   1.070987e-10  -1.1022433e-10  8.2954949      12.44323       16.59099       1712.5676    
        22   0             -1003.2419      3.3339472      2.4533161      5.0952095      2.4533161      2.0643342e-12  2.0341482e-10 -4.1764104e-11  8.2954949      12.44323       16.59099       1712.5676    
        23   0             -1003.2419      3.3339472      2.4533161      5.0952095      2.4533161     -1.4394511e-10  4.9628411e-11  5.2098469e-11  8.2954949      12.44323       16.59099       1712.5676    
        24   0             -1003.2419      3.3339472      2.4533161      5.0952095      2.4533161      4.1468449e-11  1.0013968e-10 -6.2941e-11     8.2954949      12.44323       16.59099       1712.5676    
        25   0             -1003.2419      3.3339472      2.4533161      5.0952095      2.4533161     -5.0258098e-11  1.0791015e-10  3.2246174e-12  8.2954949      12.44323       16.59099       1712.5676    
        26   0             -1003.2419      3.3339472      2.4533161      5.0952095      2.4533161     -9.1246167e-11  1.0715712e-10  1.4055794e-11  8.2954949      12.44323       16.59099       1712.5676    
        27   0             -1003.2419      3.3339472      2.4533161      5.0952095      2.4533161     -5.998254e-12   8.4345578e-11  1.6875486e-11  8.2954949      12.44323       16.59099       1712.5676    
        28   0             -1003.2419      3.3339472      2.4533161      5.0952095      2.4533161      2.3369821e-11  7.6016834e-11 -4.1872264e-12  8.2954949      12.44323       16.59099       1712.5676    
        29   0             -1003.2419      3.3339472      2.4533161      5.0952095      2.4533161      1.9812415e-11  5.4536074e-11  3.4551972e-13  8.2954949      12.44323       16.59099       1712.5676    
        30   0             -1003.2419      3.3339472      2.4533161      5.0952095      2.4533161     -1.5229333e-11  3.1464867e-11 -9.736126e-12   8.2954949      12.44323       16.59099       1712.5676    
        31   0             -1003.2419      3.3339472      2.4533161      5.0952095      2.4533161     -1.1814743e-11  7.8808229e-12 -8.853107e-13   8.2954949      12.44323       16.59099       1712.5676    
        32   0             -1003.2419      3.3339472      2.4533161      5.0952095      2.4533161     -1.3190966e-11 -6.4786337e-12  1.3319642e-11  8.2954949      12.44323       16.59099       1712.5676    
        33   0             -1003.2419      3.3339472      2.4533161      5.0952095      2.4533161     -1.1425246e-11 -4.5960648e-12 -8.3883862e-13  8.2954949      12.44323       16.59099       1712.5676    
        34   0             -1003.2419      3.3339472      2.4533161      5.0952095      2.4533161     -3.8560204e-12 -3.1938755e-12 -1.0177292e-11  8.2954949      12.44323       16.59099       1712.5676    
        35   0             -1003.2419      3.3339472      2.4533161      5.0952095      2.4533161     -2.1149688e-11 -4.0702438e-12 -1.1739248e-11  8.2954949      12.44323       16.59099       1712.5676    
        36   0             -1003.2419      3.3339472      2.4533161      5.0952095      2.4533161      1.2658653e-11 -2.3499653e-12 -1.2316158e-11  8.2954949      12.44323       16.59099       1712.5676    
        37   0             -1003.2419      3.3339472      2.4533161      5.0952095      2.4533161      5.5048911e-12  2.3467195e-11 -9.1460115e-12  8.2954949      12.44323       16.59099       1712.5676    
        38   0             -1003.2419      3.3339472      2.4533161      5.0952095      2.4533161      2.2590827e-12 -3.167909e-12  -1.6021936e-12  8.2954949      12.44323       16.59099       1712.5676    
        39   0             -1003.2419      3.3339472      2.4533161      5.0952095      2.4533161      1.3022183e-11 -6.6279409e-12  2.7438314e-12  8.2954949      12.44323       16.59099       1712.5676    
        40   0             -1003.2419      3.3339472      2.4533161      5.0952095      2.4533161      5.4529582e-12  1.4151725e-12 -3.0258449e-12  8.2954949      12.44323       16.59099       1712.5676    
        41   0             -1003.2419      3.3339472      2.4533161      5.0952095      2.4533161     -3.7391713e-12 -1.2028966e-11  4.8569825e-12  8.2954949      12.44323       16.59099       1712.5676    
        42   0             -1003.2419      3.3339472      2.4533161      5.0952095      2.4533161      3.5054731e-13 -1.1899134e-11  5.177997e-12   8.2954949      12.44323       16.59099       1712.5676    
        43   0             -1003.2419      3.3339472      2.4533161      5.0952095      2.4533161     -3.609339e-12   8.9000068e-12  1.9050696e-11  8.2954949      12.44323       16.59099       1712.5676    
        44   0             -1003.2419      3.3339472      2.4533161      5.0952095      2.4533161      3.9598863e-12  1.6203076e-11  8.3078918e-12  8.2954949      12.44323       16.59099       1712.5676    
        45   0             -1003.2419      3.3339472      2.4533161      5.0952095      2.4533161      4.7258971e-12  5.4983995e-12 -1.126351e-11   8.2954949      12.44323       16.59099       1712.5676    
        46   0             -1003.2419      3.3339472      2.4533161      5.0952095      2.4533161     -1.3113066e-11  3.1614174e-12 -1.6605656e-11  8.2954949      12.44323       16.59099       1712.5676    
        47   0             -1003.2419      3.3339472      2.4533161      5.0952095      2.4533161     -1.2957267e-11  3.3301995e-12  6.3068717e-12  8.2954949      12.44323       16.59099       1712.5676    
        48   0             -1003.2419      3.3339472      2.4533161      5.0952095      2.4533161      1.4281557e-12  9.2635373e-12 -1.2609167e-12  8.2954949      12.44323       16.59099       1712.5676    
Loop time of 0.133371 on 4 procs for 47 steps with 192 atoms

61.5% CPU use with 4 MPI tasks x 1 OpenMP threads

Minimization stats:
  Stopping criterion = force tolerance
  Energy initial, next-to-last, final = 
     -1003.24194868201  -1003.24194874612  -1003.24194874612
  Force two-norm initial, final = 0.0011385688 7.2947725e-11
  Force max component initial, final = 0.00015067018 1.2011263e-11
  Final line search alpha, max atom move = 1 1.2011263e-11
  Iterations, force evaluations = 47 94

MPI task timing breakdown:
Section |  min time  |  avg time  |  max time  |%varavg| %total
---------------------------------------------------------------
Pair    | 0.11574    | 0.12433    | 0.12848    |   1.4 | 93.22
Neigh   | 0          | 0          | 0          |   0.0 |  0.00
Comm    | 0.003606   | 0.007714   | 0.016259   |   5.7 |  5.78
Output  | 0.000592   | 0.00064075 | 0.000751   |   0.0 |  0.48
Modify  | 0          | 0          | 0          |   0.0 |  0.00
Other   |            | 0.0006883  |            |       |  0.52

Nlocal:             48 ave          54 max          39 min
Histogram: 1 0 0 0 0 0 1 0 1 1
Nghost:            600 ave         609 max         594 min
Histogram: 1 0 1 0 1 0 0 0 0 1
Neighs:           2208 ave        2453 max        1740 min
Histogram: 1 0 0 0 0 0 0 1 0 2
FullNghs:         4416 ave        4968 max        3588 min
Histogram: 1 0 0 0 0 0 1 0 1 1

Total # of neighbors = 17664
Ave neighs/atom = 92
Neighbor list builds = 0
Dangerous builds = 0

# Obtain new stress tensor

variable tmp equal pxx
variable pxx1 equal ${tmp}
variable pxx1 equal 2.45331605141636
variable tmp equal pyy
variable pyy1 equal ${tmp}
variable pyy1 equal 5.0952094961729
variable tmp equal pzz
variable pzz1 equal ${tmp}
variable pzz1 equal 2.45331605156167
variable tmp equal pxy
variable pxy1 equal ${tmp}
variable pxy1 equal 1.42815571703943e-12
variable tmp equal pxz
variable pxz1 equal ${tmp}
variable pxz1 equal 9.26353731006942e-12
variable tmp equal pyz
variable pyz1 equal ${tmp}
variable pyz1 equal -1.26091674428128e-12

# Compute elastic constant from pressure tensor

variable C1neg equal ${d1}
variable C1neg equal 245.331605116464
variable C2neg equal ${d2}
variable C2neg equal 509.520949591091
variable C3neg equal ${d3}
variable C3neg equal 245.331605132952
variable C4neg equal ${d4}
variable C4neg equal -3.73746611341373e-10
variable C5neg equal ${d5}
variable C5neg equal 1.1389539717385e-09
variable C6neg equal ${d6}
variable C6neg equal -8.06257869363327e-10

# Reset box and simulation parameters

clear
  using 1 OpenMP thread(s) per MPI task
Loaded 1 plugins from C:\Program Files\LAMMPS 64-bit 23Jun2022\plugins
Loaded 0 plugins from C:\Program Files\LAMMPS 64-bit 23Jun2022-MPI\plugins
Loaded 1 plugins from C:\Program Files\LAMMPS 64-bit 22Dec2022-MSMPI\plugins
Loaded 1 plugins from C:\Program Files\LAMMPS 64-bit 28Mar2023-MPI\plugins
box tilt large

The 'box' command has been removed and will be ignored

read_restart restart.equil
Reading restart file ...
  restart file = 22 Dec 2022, LAMMPS = 22 Dec 2022
  restoring atom style atomic from restart
  triclinic box = (0.0001262746 0.0001262746 0.0001262746) to (8.2956212 12.443369 16.591116) with tilt (0 0 0)
  1 by 2 by 2 MPI processor grid
  pair style meam stores no restart info
  192 atoms
  read_restart CPU = 0.000 seconds
include potential.mod
# NOTE: This script can be modified for different pair styles
# See in.elastic for more info.

# Choose potential
#-----------------------
#pair_style	sw
#pair_coeff * * Si.sw Si
#-----------------------
#pair_style morse	2.83994742	# D0[eV] a[1/A] r0[A] rc[A], 1NN for BCC
#pair_coeff 1 1	2.1173	1.0202	2.4595	2.6497	#	Fe-Fe
#-----------------------
#pair_style smatb # R0(A)   p       q     A(eV)   xi(eV)  Rcs(A)   Rc(A), 4NN: Rcs=4NN, Rc=(4NN+5NN)/2
#pair_coeff 1 1	2.4802	7.0149	2.3779	0.3144	3.0551	4.033	4.176	#	Co	Co
#-----------------------
#pair_style eam/alloy
#pair_coeff * * AlCrFeCoNi_Zhou04.eam.alloy Fe
#-----------------------
pair_style meam
#pair_coeff * * ./../../library.meam Fe Cr Ni N ./../../FeCrNiN.meam Fe Ni
pair_coeff * * ./../../library.meam Fe Cr Ni N ./../../FeCrNiN.meam Cr N
#pair_coeff * * ./../../library.meam Fe Cr Ni N ./../../FeCrNiN.meam Ni N
#-----------------------

# Setup neighbor style
neighbor 1.0 nsq
neigh_modify once no every 1 delay 0 check yes

# Setup minimization style
min_style	     cg
min_modify	     dmax ${dmax} line quadratic
min_modify	     dmax 0.01 line quadratic

# Setup output
thermo		1
thermo_style custom step temp pe press pxx pyy pzz pxy pxz pyz lx ly lz vol
thermo_modify norm no

# Positive deformation

variable delta equal ${up}*${len0}
variable delta equal 1e-06*${len0}
variable delta equal 1e-06*12.4432423523709
variable deltaxy equal ${up}*xy
variable deltaxy equal 1e-06*xy
variable deltaxz equal ${up}*xz
variable deltaxz equal 1e-06*xz
variable deltayz equal ${up}*yz
variable deltayz equal 1e-06*yz
if "${dir} == 1" then    "change_box all x delta 0 ${delta} xy delta ${deltaxy} xz delta ${deltaxz} remap units box"
if "${dir} == 2" then    "change_box all y delta 0 ${delta} yz delta ${deltayz} remap units box"
change_box all y delta 0 ${delta} yz delta ${deltayz} remap units box
change_box all y delta 0 1.24432423523709e-05 yz delta ${deltayz} remap units box
change_box all y delta 0 1.24432423523709e-05 yz delta 0 remap units box
Changing box ...
  triclinic box = (0.0001262746 0.0001262746 0.0001262746) to (8.2956212 12.443381 16.591116) with tilt (0 0 0)
  triclinic box = (0.0001262746 0.0001262746 0.0001262746) to (8.2956212 12.443381 16.591116) with tilt (0 0 0)
if "${dir} == 3" then    "change_box all z delta 0 ${delta} remap units box"
if "${dir} == 4" then    "change_box all yz delta ${delta} remap units box"
if "${dir} == 5" then    "change_box all xz delta ${delta} remap units box"
if "${dir} == 6" then    "change_box all xy delta ${delta} remap units box"

# Relax atoms positions

minimize ${etol} ${ftol} ${maxiter} ${maxeval}
minimize 0 ${ftol} ${maxiter} ${maxeval}
minimize 0 1e-10 ${maxiter} ${maxeval}
minimize 0 1e-10 100 ${maxeval}
minimize 0 1e-10 100 1000
Neighbor list info ...
  update: every = 1 steps, delay = 0 steps, check = yes
  max neighbors/atom: 2000, page size: 100000
  master list distance cutoff = 6
  ghost atom cutoff = 6
  2 neighbor lists, perpetual/occasional/extra = 2 0 0
  (1) pair meam, perpetual
      attributes: full, newton on
      pair build: full/nsq
      stencil: none
      bin: none
  (2) pair meam, perpetual, half/full from (1)
      attributes: half, newton on
      pair build: halffull/newton
      stencil: none
      bin: none
Per MPI rank memory allocation (min/avg/max) = 9.866 | 9.879 | 9.888 Mbytes
   Step          Temp          PotEng         Press           Pxx            Pyy            Pzz            Pxy            Pxz            Pyz             Lx             Ly             Lz           Volume    
         1   0             -1003.2419     -3.3335792     -2.4529502     -5.0948311     -2.4529562      1.6390717e-05 -4.3954431e-05  2.3262193e-05  8.2954949      12.443255      16.59099       1712.571     
         2   0             -1003.2419     -3.3338454     -2.4532386     -5.0950624     -2.4532352      3.0158809e-06 -1.0982306e-05 -3.6206197e-06  8.2954949      12.443255      16.59099       1712.571     
         3   0             -1003.2419     -3.3339031     -2.4532968     -5.0951206     -2.4532918     -1.8941316e-06 -3.7763941e-06 -1.0026462e-06  8.2954949      12.443255      16.59099       1712.571     
         4   0             -1003.2419     -3.3339109     -2.4532988     -5.095134      -2.4532998      1.6652275e-07  1.234099e-06   1.6942578e-06  8.2954949      12.443255      16.59099       1712.571     
         5   0             -1003.2419     -3.3339141     -2.4533029     -5.0951365     -2.4533027     -1.113548e-06   1.4781456e-06  3.7781968e-07  8.2954949      12.443255      16.59099       1712.571     
         6   0             -1003.2419     -3.3339146     -2.4533032     -5.0951372     -2.4533033     -6.5138922e-08  2.7252441e-07 -9.561056e-08   8.2954949      12.443255      16.59099       1712.571     
         7   0             -1003.2419     -3.3339145     -2.4533031     -5.0951371     -2.4533032     -3.2337172e-08 -1.5772762e-07 -1.4229314e-08  8.2954949      12.443255      16.59099       1712.571     
         8   0             -1003.2419     -3.3339142     -2.4533028     -5.095137      -2.4533029     -4.0982106e-08 -1.2508807e-07 -6.5288052e-08  8.2954949      12.443255      16.59099       1712.571     
         9   0             -1003.2419     -3.3339142     -2.4533028     -5.0951369     -2.4533028      4.3763044e-08  4.581863e-08  -7.1585918e-08  8.2954949      12.443255      16.59099       1712.571     
        10   0             -1003.2419     -3.3339142     -2.4533028     -5.0951369     -2.4533028      3.5197762e-08  4.4574248e-08 -3.0986148e-08  8.2954949      12.443255      16.59099       1712.571     
        11   0             -1003.2419     -3.3339142     -2.4533028     -5.0951369     -2.4533028     -4.0524746e-09  1.4716064e-08 -1.938758e-08   8.2954949      12.443255      16.59099       1712.571     
        12   0             -1003.2419     -3.3339141     -2.4533028     -5.0951369     -2.4533028     -1.018917e-08   1.1462926e-08 -9.3127007e-09  8.2954949      12.443255      16.59099       1712.571     
        13   0             -1003.2419     -3.3339141     -2.4533028     -5.0951369     -2.4533028     -1.1377704e-09  1.207178e-08   1.0966937e-10  8.2954949      12.443255      16.59099       1712.571     
        14   0             -1003.2419     -3.3339141     -2.4533027     -5.0951369     -2.4533028      6.9077027e-09  9.5897478e-09 -1.2943638e-09  8.2954949      12.443255      16.59099       1712.571     
        15   0             -1003.2419     -3.3339141     -2.4533027     -5.0951369     -2.4533028     -5.7085866e-10  1.1683004e-09  2.474895e-10   8.2954949      12.443255      16.59099       1712.571     
        16   0             -1003.2419     -3.3339141     -2.4533027     -5.0951369     -2.4533027     -2.0466599e-09  2.7330302e-10  7.4779601e-10  8.2954949      12.443255      16.59099       1712.571     
        17   0             -1003.2419     -3.3339141     -2.4533027     -5.0951369     -2.4533027     -1.4487832e-09  1.5739218e-09 -2.4467427e-10  8.2954949      12.443255      16.59099       1712.571     
        18   0             -1003.2419     -3.3339141     -2.4533027     -5.0951369     -2.4533027     -2.5358802e-10  1.7634767e-09 -1.0153892e-09  8.2954949      12.443255      16.59099       1712.571     
        19   0             -1003.2419     -3.3339141     -2.4533027     -5.0951369     -2.4533027     -4.947511e-10   4.436427e-10  -5.0527975e-10  8.2954949      12.443255      16.59099       1712.571     
        20   0             -1003.2419     -3.3339141     -2.4533027     -5.0951369     -2.4533027     -6.8403329e-10 -5.8493895e-10 -1.1640148e-10  8.2954949      12.443255      16.59099       1712.571     
        21   0             -1003.2419     -3.3339141     -2.4533027     -5.0951369     -2.4533027     -2.521339e-11   1.1260336e-10 -1.0346653e-10  8.2954949      12.443255      16.59099       1712.571     
        22   0             -1003.2419     -3.3339141     -2.4533027     -5.0951369     -2.4533027      5.7126114e-13  2.1875407e-10 -4.8187128e-11  8.2954949      12.443255      16.59099       1712.571     
        23   0             -1003.2419     -3.3339141     -2.4533027     -5.0951369     -2.4533027     -1.3729742e-10  4.0604982e-11  4.1189625e-11  8.2954949      12.443255      16.59099       1712.571     
        24   0             -1003.2419     -3.3339141     -2.4533027     -5.0951369     -2.4533027      3.2471003e-11  9.1207035e-11 -4.0603912e-11  8.2954949      12.443255      16.59099       1712.571     
        25   0             -1003.2419     -3.3339141     -2.4533027     -5.0951369     -2.4533027     -6.2864692e-11  1.1363553e-10  2.1317177e-12  8.2954949      12.443255      16.59099       1712.571     
        26   0             -1003.2419     -3.3339141     -2.4533027     -5.0951369     -2.4533027     -8.3352194e-11  1.0645581e-10  2.1858139e-11  8.2954949      12.443255      16.59099       1712.571     
        27   0             -1003.2419     -3.3339141     -2.4533027     -5.0951369     -2.4533027     -2.9471882e-12  6.9434195e-11  1.3310685e-11  8.2954949      12.443255      16.59099       1712.571     
        28   0             -1003.2419     -3.3339141     -2.4533027     -5.0951369     -2.4533027      3.1393397e-11  7.952864e-11  -2.1730201e-11  8.2954949      12.443255      16.59099       1712.571     
        29   0             -1003.2419     -3.3339141     -2.4533027     -5.0951369     -2.4533027      2.3538556e-11  7.018073e-11  -7.2983212e-12  8.2954949      12.443255      16.59099       1712.571     
        30   0             -1003.2419     -3.3339141     -2.4533027     -5.0951369     -2.4533027     -2.553797e-11   3.0257366e-11  3.5931521e-12  8.2954949      12.443255      16.59099       1712.571     
        31   0             -1003.2419     -3.3339141     -2.4533027     -5.0951369     -2.4533027     -5.5957626e-12  1.1301882e-11  4.9756763e-12  8.2954949      12.443255      16.59099       1712.571     
        32   0             -1003.2419     -3.3339141     -2.4533027     -5.0951369     -2.4533027      1.9604644e-12  2.0136955e-11  8.9483788e-12  8.2954949      12.443255      16.59099       1712.571     
        33   0             -1003.2419     -3.3339141     -2.4533027     -5.0951369     -2.4533027     -6.9070666e-12  1.0698163e-11  5.741707e-12   8.2954949      12.443255      16.59099       1712.571     
        34   0             -1003.2419     -3.3339141     -2.4533027     -5.0951369     -2.4533027      1.4800857e-12  8.4910179e-12 -8.5891123e-12  8.2954949      12.443255      16.59099       1712.571     
        35   0             -1003.2419     -3.3339141     -2.4533027     -5.0951369     -2.4533027      1.8864601e-11  4.4662235e-12  1.069441e-12   8.2954949      12.443255      16.59099       1712.571     
        36   0             -1003.2419     -3.3339141     -2.4533027     -5.0951369     -2.4533027      4.2584922e-12 -3.1354447e-12 -1.8707328e-11  8.2954949      12.443255      16.59099       1712.571     
        37   0             -1003.2419     -3.3339141     -2.4533027     -5.0951369     -2.4533027      3.9728616e-12 -1.2476863e-11 -1.0537901e-11  8.2954949      12.443255      16.59099       1712.571     
        38   0             -1003.2419     -3.3339141     -2.4533027     -5.0951369     -2.4533027      3.5444157e-12 -9.653015e-12  -1.1707749e-11  8.2954949      12.443255      16.59099       1712.571     
        39   0             -1003.2419     -3.3339141     -2.4533027     -5.0951369     -2.4533027      1.2983208e-14 -3.5314325e-12 -5.1782374e-12  8.2954949      12.443255      16.59099       1712.571     
        40   0             -1003.2419     -3.3339141     -2.4533027     -5.0951369     -2.4533027      2.0123972e-12  2.4538263e-12  1.269123e-11   8.2954949      12.443255      16.59099       1712.571     
        41   0             -1003.2419     -3.3339141     -2.4533027     -5.0951369     -2.4533027     -2.8303393e-12 -1.8591954e-11  1.3339296e-11  8.2954949      12.443255      16.59099       1712.571     
        42   0             -1003.2419     -3.3339141     -2.4533027     -5.0951369     -2.4533027      1.8059642e-11  3.031579e-12  -3.7039575e-12  8.2954949      12.443255      16.59099       1712.571     
        43   0             -1003.2419     -3.3339141     -2.4533027     -5.0951369     -2.4533027      5.5568129e-12  1.0542365e-11 -7.3001911e-12  8.2954949      12.443255      16.59099       1712.571     
        44   0             -1003.2419     -3.3339141     -2.4533027     -5.0951369     -2.4533027     -7.8937904e-12 -7.0498818e-12 -5.0794465e-12  8.2954949      12.443255      16.59099       1712.571     
        45   0             -1003.2419     -3.3339141     -2.4533027     -5.0951369     -2.4533027     -3.9468952e-12  5.6996282e-12  5.509391e-12   8.2954949      12.443255      16.59099       1712.571     
        46   0             -1003.2419     -3.3339141     -2.4533027     -5.0951369     -2.4533027     -5.9463092e-12  8.3806607e-12 -1.4825714e-11  8.2954949      12.443255      16.59099       1712.571     
[...]
        12   0             -1003.2419     -7.0447144e-07  3.434084e-08  -7.6357961e-07 -1.3841755e-06 -0.26669008     1.1445235e-08 -9.3038916e-09  8.2954949      12.443242      16.59099       1712.5693    
        13   0             -1003.2419     -6.9196536e-07  4.2456658e-08 -7.5063246e-07 -1.3677203e-06 -0.26669007     1.2088235e-08  9.9876098e-11  8.2954949      12.443242      16.59099       1712.5693    
        14   0             -1003.2419     -6.8402222e-07  4.7138569e-08 -7.410025e-07  -1.3582027e-06 -0.26669006     9.5813833e-09 -1.2940653e-09  8.2954949      12.443242      16.59099       1712.5693    
        15   0             -1003.2419     -6.8055629e-07  4.9290499e-08 -7.3757327e-07 -1.3533861e-06 -0.26669007     1.1412186e-09  2.6639396e-10  8.2954949      12.443242      16.59099       1712.5693    
        16   0             -1003.2419     -6.7891208e-07  5.0616982e-08 -7.3613672e-07 -1.3512165e-06 -0.26669007     1.4804118e-10  8.399325e-10   8.2954949      12.443242      16.59099       1712.5693    
        17   0             -1003.2419     -6.7747099e-07  5.2133299e-08 -7.3548013e-07 -1.3490661e-06 -0.26669007     1.2365284e-09 -1.8243828e-10  8.2954949      12.443242      16.59099       1712.5693    
        18   0             -1003.2419     -6.7623359e-07  5.2953189e-08 -7.344951e-07  -1.3471589e-06 -0.26669007     1.7559611e-09 -1.0024066e-09  8.2954949      12.443242      16.59099       1712.5693    
        19   0             -1003.2419     -6.7547246e-07  5.3406115e-08 -7.3361036e-07 -1.3462131e-06 -0.26669007     4.3591813e-10 -5.0093074e-10  8.2954949      12.443242      16.59099       1712.5693    
        20   0             -1003.2419     -6.7429684e-07  5.4592671e-08 -7.3263479e-07 -1.3448484e-06 -0.26669007    -5.927879e-10  -9.8958478e-11  8.2954949      12.443242      16.59099       1712.5693    
        21   0             -1003.2419     -6.735023e-07   5.5256808e-08 -7.3199118e-07 -1.3437725e-06 -0.26669007     1.0117175e-10 -1.0912459e-10  8.2954949      12.443242      16.59099       1712.5693    
        22   0             -1003.2419     -6.7308365e-07  5.5871622e-08 -7.3166595e-07 -1.3434566e-06 -0.26669007     2.2132497e-10 -5.2112154e-11  8.2954949      12.443242      16.59099       1712.5693    
        23   0             -1003.2419     -6.7282121e-07  5.6159032e-08 -7.3154528e-07 -1.3430774e-06 -0.26669007     4.5934635e-11  6.1967431e-12  8.2954949      12.443242      16.59099       1712.5693    
        24   0             -1003.2419     -6.7266199e-07  5.6379221e-08 -7.3143832e-07 -1.3429269e-06 -0.26669007     8.5501001e-11 -6.9332536e-11  8.2954949      12.443242      16.59099       1712.5693    
        25   0             -1003.2419     -6.725925e-07   5.6426727e-08 -7.3135037e-07 -1.3428538e-06 -0.26669007     1.2595023e-10 -1.2907758e-11  8.2954949      12.443242      16.59099       1712.5693    
        26   0             -1003.2419     -6.7248724e-07  5.6453933e-08 -7.3129818e-07 -1.3426175e-06 -0.26669007     1.1440814e-10  7.023673e-12   8.2954949      12.443242      16.59099       1712.5693    
        27   0             -1003.2419     -6.7252644e-07  5.6420306e-08 -7.3135414e-07 -1.3426455e-06 -0.26669007     8.9519307e-11  2.4249982e-11  8.2954949      12.443242      16.59099       1712.5693    
        28   0             -1003.2419     -6.7256559e-07  5.6375482e-08 -7.313745e-07  -1.3426978e-06 -0.26669007     6.4688898e-11 -2.0361175e-11  8.2954949      12.443242      16.59099       1712.5693    
        29   0             -1003.2419     -6.7252989e-07  5.6445747e-08 -7.3132413e-07 -1.3427113e-06 -0.26669007     5.3003999e-11 -7.5653847e-12  8.2954949      12.443242      16.59099       1712.5693    
        30   0             -1003.2419     -6.7241693e-07  5.6519271e-08 -7.3126173e-07 -1.3425083e-06 -0.26669007     4.4233833e-11  9.972471e-13   8.2954949      12.443242      16.59099       1712.5693    
        31   0             -1003.2419     -6.72526e-07    5.6404889e-08 -7.3135582e-07 -1.3426271e-06 -0.26669007     9.3219525e-12  1.3831668e-11  8.2954949      12.443242      16.59099       1712.5693    
        32   0             -1003.2419     -6.7245838e-07  5.6506385e-08 -7.3131274e-07 -1.3425688e-06 -0.26669007     1.2827422e-11 -4.9796853e-12  8.2954949      12.443242      16.59099       1712.5693    
        33   0             -1003.2419     -6.725435e-07   5.6371028e-08 -7.3134243e-07 -1.3426591e-06 -0.26669007    -9.1531707e-12  1.3585886e-11  8.2954949      12.443242      16.59099       1712.5693    
        34   0             -1003.2419     -6.7256496e-07  5.6392548e-08 -7.3138771e-07 -1.3426997e-06 -0.26669007    -7.9457311e-12  1.0660352e-11  8.2954949      12.443242      16.59099       1712.5693    
        35   0             -1003.2419     -6.7258257e-07  5.639617e-08  -7.3137347e-07 -1.3427704e-06 -0.26669007     9.497226e-12  -3.0296971e-12  8.2954949      12.443242      16.59099       1712.5693    
        36   0             -1003.2419     -6.7247627e-07  5.6402058e-08 -7.3125673e-07 -1.3425741e-06 -0.26669007     3.8949662e-13  1.223174e-11   8.2954949      12.443242      16.59099       1712.5693    
        37   0             -1003.2419     -6.7256747e-07  5.6391944e-08 -7.3140151e-07 -1.3426928e-06 -0.26669007    -7.1342798e-12  1.2321233e-11  8.2954949      12.443242      16.59099       1712.5693    
        38   0             -1003.2419     -6.7235748e-07  5.6577533e-08 -7.3118314e-07 -1.3424668e-06 -0.26669007     1.7981761e-12 -4.7714981e-13  8.2954949      12.443242      16.59099       1712.5693    
        39   0             -1003.2419     -6.7246641e-07  5.6476887e-08 -7.3128841e-07 -1.3425877e-06 -0.26669007     4.8037917e-13  1.5581498e-11  8.2954949      12.443242      16.59099       1712.5693    
        40   0             -1003.2419     -6.7249381e-07  5.6462255e-08 -7.3132301e-07 -1.3426207e-06 -0.26669007     1.06008e-11   -5.4329149e-12  8.2954949      12.443242      16.59099       1712.5693    
        41   0             -1003.2419     -6.7244931e-07  5.6481782e-08 -7.3127707e-07 -1.3425527e-06 -0.26669007    -1.3632382e-12  1.7932012e-11  8.2954949      12.443242      16.59099       1712.5693    
        42   0             -1003.2419     -6.7254171e-07  5.6429804e-08 -7.3135845e-07 -1.3426965e-06 -0.26669007    -1.0049013e-11  3.8931676e-12  8.2954949      12.443242      16.59099       1712.5693    
        43   0             -1003.2419     -6.7249774e-07  5.6461924e-08 -7.3133679e-07 -1.3426184e-06 -0.26669007     3.9274243e-12 -7.6731126e-12  8.2954949      12.443242      16.59099       1712.5693    
        44   0             -1003.2419     -6.7246995e-07  5.6420787e-08 -7.3124451e-07 -1.3425861e-06 -0.26669007     9.9061975e-12  8.1130531e-12  8.2954949      12.443242      16.59099       1712.5693    
        45   0             -1003.2419     -6.7248893e-07  5.6459301e-08 -7.3127842e-07 -1.3426477e-06 -0.26669007    -4.4402615e-12  1.5388251e-12  8.2954949      12.443242      16.59099       1712.5693    
        46   0             -1003.2419     -6.7251485e-07  5.6364245e-08 -7.3128309e-07 -1.3426257e-06 -0.26669007     1.9364474e-11  9.2726547e-12  8.2954949      12.443242      16.59099       1712.5693    
        47   0             -1003.2419     -6.7258895e-07  5.630989e-08  -7.3139648e-07 -1.3426803e-06 -0.26669007    -6.8032077e-12 -2.9744183e-11  8.2954949      12.443242      16.59099       1712.5693    
        48   0             -1003.2419     -6.7248582e-07  5.6402292e-08 -7.312908e-07  -1.3425689e-06 -0.26669007    -6.4007279e-12  1.2612485e-12  8.2954949      12.443242      16.59099       1712.5693    
Loop time of 0.127386 on 4 procs for 47 steps with 192 atoms

67.5% CPU use with 4 MPI tasks x 1 OpenMP threads

Minimization stats:
  Stopping criterion = force tolerance
  Energy initial, next-to-last, final = 
     -1003.24194868459   -1003.2419487487   -1003.2419487487
  Force two-norm initial, final = 0.0011385631 7.8443987e-11
  Force max component initial, final = 0.00015066892 1.0952642e-11
  Final line search alpha, max atom move = 1 1.0952642e-11
  Iterations, force evaluations = 47 94

MPI task timing breakdown:
Section |  min time  |  avg time  |  max time  |%varavg| %total
---------------------------------------------------------------
Pair    | 0.11262    | 0.11952    | 0.12369    |   1.2 | 93.82
Neigh   | 0          | 0          | 0          |   0.0 |  0.00
Comm    | 0.002492   | 0.0066155  | 0.013451   |   5.2 |  5.19
Output  | 0.000589   | 0.00062125 | 0.000669   |   0.0 |  0.49
Modify  | 0          | 0          | 0          |   0.0 |  0.00
Other   |            | 0.0006315  |            |       |  0.50

Nlocal:             48 ave          54 max          39 min
Histogram: 1 0 0 0 0 0 1 0 1 1
Nghost:            600 ave         609 max         594 min
Histogram: 1 0 1 0 1 0 0 0 0 1
Neighs:           2208 ave        2453 max        1740 min
Histogram: 1 0 0 0 0 0 0 1 0 2
FullNghs:         4416 ave        4968 max        3588 min
Histogram: 1 0 0 0 0 0 1 0 1 1

Total # of neighbors = 17664
Ave neighs/atom = 92
Neighbor list builds = 0
Dangerous builds = 0

# Obtain new stress tensor

variable tmp equal pe
variable e1 equal ${tmp}
variable e1 equal -1003.2419487487
variable tmp equal press
variable p1 equal ${tmp}
variable p1 equal -6.72485818537999e-07
variable tmp equal pxx
variable pxx1 equal ${tmp}
variable pxx1 equal 5.64022920791968e-08
variable tmp equal pyy
variable pyy1 equal ${tmp}
variable pyy1 equal -7.31290801688956e-07
variable tmp equal pzz
variable pzz1 equal ${tmp}
variable pzz1 equal -1.34256894600424e-06
variable tmp equal pxy
variable pxy1 equal ${tmp}
variable pxy1 equal -0.266690066819083
variable tmp equal pxz
variable pxz1 equal ${tmp}
variable pxz1 equal -6.40072785836066e-12
variable tmp equal pyz
variable pyz1 equal ${tmp}
variable pyz1 equal 1.26124850329523e-12

# Compute elastic constant from pressure tensor

variable C1pos equal ${d1}
variable C1pos equal -5.61505669025602e-06
variable C2pos equal ${d2}
variable C2pos equal 7.31552786855836e-05
variable C3pos equal ${d3}
variable C3pos equal 0.000134280109897551
variable C4pos equal ${d4}
variable C4pos equal 1.21530086583722e-10
variable C5pos equal ${d5}
variable C5pos equal 4.27472545104513e-10
variable C6pos equal ${d6}
variable C6pos equal 26.6690066828574

# Combine positive and negative

variable C1${dir} equal 0.5*(${C1neg}+${C1pos})
variable C16 equal 0.5*(${C1neg}+${C1pos})
variable C16 equal 0.5*(5.61744300624053e-06+${C1pos})
variable C16 equal 0.5*(5.61744300624053e-06+-5.61505669025602e-06)
variable C2${dir} equal 0.5*(${C2neg}+${C2pos})
variable C26 equal 0.5*(${C2neg}+${C2pos})
variable C26 equal 0.5*(-7.31590568028387e-05+${C2pos})
variable C26 equal 0.5*(-7.31590568028387e-05+7.31552786855836e-05)
variable C3${dir} equal 0.5*(${C3neg}+${C3pos})
variable C36 equal 0.5*(${C3neg}+${C3pos})
variable C36 equal 0.5*(-0.000134282828908568+${C3pos})
variable C36 equal 0.5*(-0.000134282828908568+0.000134280109897551)
variable C4${dir} equal 0.5*(${C4neg}+${C4pos})
variable C46 equal 0.5*(${C4neg}+${C4pos})
variable C46 equal 0.5*(-9.63131874470115e-10+${C4pos})
variable C46 equal 0.5*(-9.63131874470115e-10+1.21530086583722e-10)
variable C5${dir} equal 0.5*(${C5neg}+${C5pos})
variable C56 equal 0.5*(${C5neg}+${C5pos})
variable C56 equal 0.5*(-1.29507627560137e-10+${C5pos})
variable C56 equal 0.5*(-1.29507627560137e-10+4.27472545104513e-10)
variable C6${dir} equal 0.5*(${C6neg}+${C6pos})
variable C66 equal 0.5*(${C6neg}+${C6pos})
variable C66 equal 0.5*(26.6690066813552+${C6pos})
variable C66 equal 0.5*(26.6690066813552+26.6690066828574)

# Delete dir to make sure it is not reused

variable dir delete

# Output final values

variable C11all equal ${C11}
variable C11all equal 509.517318264463
variable C22all equal ${C22}
variable C22all equal 509.517318339551
variable C33all equal ${C33}
variable C33all equal 509.517318265311

variable C12all equal 0.5*(${C12}+${C21})
variable C12all equal 0.5*(245.33093958281+${C21})
variable C12all equal 0.5*(245.33093958281+245.330939556807)
variable C13all equal 0.5*(${C13}+${C31})
variable C13all equal 0.5*(245.330939551176+${C31})
variable C13all equal 0.5*(245.330939551176+245.330939551429)
variable C23all equal 0.5*(${C23}+${C32})
variable C23all equal 0.5*(245.330939548497+${C32})
variable C23all equal 0.5*(245.330939548497+245.330939589266)

variable C44all equal ${C44}
variable C44all equal 26.6690066835317
variable C55all equal ${C55}
variable C55all equal 26.6690066818544
variable C66all equal ${C66}
variable C66all equal 26.6690066821063

variable C14all equal 0.5*(${C14}+${C41})
variable C14all equal 0.5*(-6.51660310400383e-09+${C41})
variable C14all equal 0.5*(-6.51660310400383e-09+-3.23723171029492e-10)
variable C15all equal 0.5*(${C15}+${C51})
variable C15all equal 0.5*(-3.98227840234506e-09+${C51})
variable C15all equal 0.5*(-3.98227840234506e-09+-5.58603108698006e-10)
variable C16all equal 0.5*(${C16}+${C61})
variable C16all equal 0.5*(1.1931579922552e-09+${C61})
variable C16all equal 0.5*(1.1931579922552e-09+-5.27118671327511e-10)

variable C24all equal 0.5*(${C24}+${C42})
variable C24all equal 0.5*(-5.74945704458014e-09+${C42})
variable C24all equal 0.5*(-5.74945704458014e-09+-4.6096305987648e-10)
variable C25all equal 0.5*(${C25}+${C52})
variable C25all equal 0.5*(-9.11746680988556e-10+${C52})
variable C25all equal 0.5*(-9.11746680988556e-10+6.95251705372237e-10)
variable C26all equal 0.5*(${C26}+${C62})
variable C26all equal 0.5*(-1.88905862754876e-09+${C62})
variable C26all equal 0.5*(-1.88905862754876e-09+1.42815428888517e-10)

variable C34all equal 0.5*(${C34}+${C43})
variable C34all equal 0.5*(-3.62621357169934e-09+${C43})
variable C34all equal 0.5*(-3.62621357169934e-09+-6.97818666616034e-10)
variable C35all equal 0.5*(${C35}+${C53})
variable C35all equal 0.5*(-5.90395737219652e-09+${C53})
variable C35all equal 0.5*(-5.90395737219652e-09+-8.82864993720365e-11)
variable C36all equal 0.5*(${C36}+${C63})
variable C36all equal 0.5*(-1.35950550850825e-09+${C63})
variable C36all equal 0.5*(-1.35950550850825e-09+1.4800866527885e-10)

variable C45all equal 0.5*(${C45}+${C54})
variable C45all equal 0.5*(-1.33165230429575e-10+${C54})
variable C45all equal 0.5*(-1.33165230429575e-10+-5.84244936361501e-12)
variable C46all equal 0.5*(${C46}+${C64})
variable C46all equal 0.5*(-4.20800893943197e-10+${C64})
variable C46all equal 0.5*(-4.20800893943197e-10+-9.67249950198525e-11)
variable C56all equal 0.5*(${C56}+${C65})
variable C56all equal 0.5*(1.48982458772188e-10+${C65})
variable C56all equal 0.5*(1.48982458772188e-10+2.24609719978984e-10)

# Average moduli for cubic crystals

variable C11cubic equal (${C11all}+${C22all}+${C33all})/3.0
variable C11cubic equal (509.517318264463+${C22all}+${C33all})/3.0
variable C11cubic equal (509.517318264463+509.517318339551+${C33all})/3.0
variable C11cubic equal (509.517318264463+509.517318339551+509.517318265311)/3.0
variable C12cubic equal (${C12all}+${C13all}+${C23all})/3.0
variable C12cubic equal (245.330939569808+${C13all}+${C23all})/3.0
variable C12cubic equal (245.330939569808+245.330939551302+${C23all})/3.0
variable C12cubic equal (245.330939569808+245.330939551302+245.330939568881)/3.0
variable C44cubic equal (${C44all}+${C55all}+${C66all})/3.0
variable C44cubic equal (26.6690066835317+${C55all}+${C66all})/3.0
variable C44cubic equal (26.6690066835317+26.6690066818544+${C66all})/3.0
variable C44cubic equal (26.6690066835317+26.6690066818544+26.6690066821063)/3.0

variable bulkmodulus equal (${C11cubic}+2*${C12cubic})/3.0
variable bulkmodulus equal (509.517318289775+2*${C12cubic})/3.0
variable bulkmodulus equal (509.517318289775+2*245.33093956333)/3.0
variable shearmodulus1 equal ${C44cubic}
variable shearmodulus1 equal 26.6690066824975
variable shearmodulus2 equal (${C11cubic}-${C12cubic})/2.0
variable shearmodulus2 equal (509.517318289775-${C12cubic})/2.0
variable shearmodulus2 equal (509.517318289775-245.33093956333)/2.0
variable poissonratio equal 1.0/(1.0+${C11cubic}/${C12cubic})
variable poissonratio equal 1.0/(1.0+509.517318289775/${C12cubic})
variable poissonratio equal 1.0/(1.0+509.517318289775/245.33093956333)

# For Stillinger-Weber silicon, the analytical results
# are known to be (E. R. Cowley, 1988):
#               C11 = 151.4 GPa
#               C12 = 76.4 GPa
#               C44 = 56.4 GPa

print "========================================="
=========================================
print "Components of the Elastic Constant Tensor"
Components of the Elastic Constant Tensor
print "========================================="
=========================================

print "Elastic Constant C11all = ${C11all} ${cunits}"
Elastic Constant C11all = 509.517318264463 GPa
print "Elastic Constant C22all = ${C22all} ${cunits}"
Elastic Constant C22all = 509.517318339551 GPa
print "Elastic Constant C33all = ${C33all} ${cunits}"
Elastic Constant C33all = 509.517318265311 GPa

print "Elastic Constant C12all = ${C12all} ${cunits}"
Elastic Constant C12all = 245.330939569808 GPa
print "Elastic Constant C13all = ${C13all} ${cunits}"
Elastic Constant C13all = 245.330939551302 GPa
print "Elastic Constant C23all = ${C23all} ${cunits}"
Elastic Constant C23all = 245.330939568881 GPa

print "Elastic Constant C44all = ${C44all} ${cunits}"
Elastic Constant C44all = 26.6690066835317 GPa
print "Elastic Constant C55all = ${C55all} ${cunits}"
Elastic Constant C55all = 26.6690066818544 GPa
print "Elastic Constant C66all = ${C66all} ${cunits}"
Elastic Constant C66all = 26.6690066821063 GPa

print "Elastic Constant C14all = ${C14all} ${cunits}"
Elastic Constant C14all = -3.42016313751666e-09 GPa
print "Elastic Constant C15all = ${C15all} ${cunits}"
Elastic Constant C15all = -2.27044075552153e-09 GPa
print "Elastic Constant C16all = ${C16all} ${cunits}"
Elastic Constant C16all = 3.33019660463844e-10 GPa

print "Elastic Constant C24all = ${C24all} ${cunits}"
Elastic Constant C24all = -3.10521005222831e-09 GPa
print "Elastic Constant C25all = ${C25all} ${cunits}"
Elastic Constant C25all = -1.0824748780816e-10 GPa
print "Elastic Constant C26all = ${C26all} ${cunits}"
Elastic Constant C26all = -8.73121599330121e-10 GPa

print "Elastic Constant C34all = ${C34all} ${cunits}"
Elastic Constant C34all = -2.16201611915769e-09 GPa
print "Elastic Constant C35all = ${C35all} ${cunits}"
Elastic Constant C35all = -2.99612193578428e-09 GPa
print "Elastic Constant C36all = ${C36all} ${cunits}"
Elastic Constant C36all = -6.057484216147e-10 GPa

print "Elastic Constant C45all = ${C45all} ${cunits}"
Elastic Constant C45all = -6.9503839896595e-11 GPa
print "Elastic Constant C46all = ${C46all} ${cunits}"
Elastic Constant C46all = -2.58762944481525e-10 GPa
print "Elastic Constant C56all = ${C56all} ${cunits}"
Elastic Constant C56all = 1.86796089375586e-10 GPa

print "========================================="
=========================================
print "Average properties for a cubic crystal"
Average properties for a cubic crystal
print "========================================="
=========================================

print "Bulk Modulus = ${bulkmodulus} ${cunits}"
Bulk Modulus = 333.393065805478 GPa
print "Shear Modulus 1 = ${shearmodulus1} ${cunits}"
Shear Modulus 1 = 26.6690066824975 GPa
print "Shear Modulus 2 = ${shearmodulus2} ${cunits}"
Shear Modulus 2 = 132.093189363223 GPa
print "Poisson Ratio = ${poissonratio}"
Poisson Ratio = 0.32500696267232
Total wall time: 0:00:01
