# VESTA

4 atoms
4 atom types

0.0 3.6457000 xlo xhi
0.0 3.6457000 ylo yhi
0.0 3.6457000 zlo zhi

Atoms

1 1     0.000000000         1.822849989         1.822849989
2 2     0.000000000         0.000000000         0.000000000
3 3     1.822849989         0.000000000         1.822849989
4 4     1.822849989         1.822849989         0.000000000
