 # File generated with Atomsk by inukai on 2024-10-18 10:43:46
  
       14400  atoms
           3  atom types
 
      0.000000000000      60.443136000000  xlo xhi
      0.000000000000      69.759310709558  ylo yhi
      0.000000000000      48.391908000000  zlo zhi
    -22.666174045166       0.000000000000       0.000000000000  xy xz yz
 
Masses
 
            1   26.98153860             # Al
            2   58.69340000             # Ni
            3   58.93319500             # Co
 
Atoms # atomic
 
         1    1        3.777692546206      11.558617842847       0.780714717082
         2    1        0.000003959026       6.470862034867       1.551908326265
         3    1        0.000004026259       8.870094008101       0.086032747106
         4    1        3.777692302571       2.864375430493       0.107922020158
         5    1        1.425215208708       2.180106351743       2.088159222108
         6    1        6.130158024996       2.180094725192       2.088159222108
         7    1        3.777700033873       9.141806523314       2.173579005046
         8    1        1.416870515859      10.659524966767       2.201448711395
         9    1       -1.416854807662      10.659478460560       2.201448711395
        10    1        5.151356947308       0.606789737655       0.054622366155
        11    1        2.404023753611       0.606778111104       0.054622366155
        12    1        1.371840201538       4.307451411487       0.074035586581
        13    1       -1.371839960126       4.307451411487       0.074035586581
        14    1        5.125290984364       5.583349204364       2.176409931664
        15    1        2.430105106251       5.583337577813       2.176409931664
        16    1        2.352416837797       7.359956076412       0.086403751734
        17    1       -2.352420203003       7.359967702964       0.086403751734
        18    2       -2.292751426736       9.784696704262       0.092513230119
        19    2       -1.484328303585       8.244748293797       2.165098323169
        20    2        2.292740642031       9.784661824606       0.092513230119
        21    2        1.484321210271       8.244748293797       2.165098323169
        22    2       -0.000003712637       2.321671246277       0.080794323065
        23    2       -0.000003662798       4.100208125920       2.160630136997
        24    3        3.777688592126       5.264246864075       0.084593087843
        25    3        3.777696033275       1.187442986898       2.068310474510
        26    1       11.333084546206      11.558617842847       0.780714717082
        27    1        7.555395959026       6.470862034867       1.551908326265
        28    1        7.555396026259       8.870094008101       0.086032747106
        29    1       11.333084302571       2.864375430493       0.107922020158
        30    1        8.980607208708       2.180106351743       2.088159222108
        31    1       13.685550024996       2.180094725192       2.088159222108
        32    1       11.333092033873       9.141806523314       2.173579005046
        33    1        8.972262515859      10.659524966767       2.201448711395
        34    1        6.138537192338      10.659478460560       2.201448711395
        35    1       12.706748947308       0.606789737655       0.054622366155
        36    1        9.959415753611       0.606778111104       0.054622366155
        37    1        8.927232201538       4.307451411487       0.074035586581
        38    1        6.183552039874       4.307451411487       0.074035586581
        39    1       12.680682984364       5.583349204364       2.176409931664
        40    1        9.985497106251       5.583337577813       2.176409931664
        41    1        9.907808837797       7.359956076412       0.086403751734
        42    1        5.202971796997       7.359967702964       0.086403751734
        43    2        5.262640573264       9.784696704262       0.092513230119
        44    2        6.071063696415       8.244748293797       2.165098323169
        45    2        9.848132642031       9.784661824606       0.092513230119
        46    2        9.039713210271       8.244748293797       2.165098323169
        47    2        7.555388287363       2.321671246277       0.080794323065
        48    2        7.555388337202       4.100208125920       2.160630136997
        49    3       11.333080592126       5.264246864075       0.084593087843
        50    3       11.333088033275       1.187442986898       2.068310474510
        51    1       18.888476546206      11.558617842847       0.780714717082
        52    1       15.110787959026       6.470862034867       1.551908326265
        53    1       15.110788026259       8.870094008101       0.086032747106
        54    1       18.888476302571       2.864375430493       0.107922020158
        55    1       16.535999208708       2.180106351743       2.088159222108
        56    1       21.240942024996       2.180094725192       2.088159222108
        57    1       18.888484033873       9.141806523314       2.173579005046
        58    1       16.527654515859      10.659524966767       2.201448711395
        59    1       13.693929192338      10.659478460560       2.201448711395
        60    1       20.262140947308       0.606789737655       0.054622366155
        61    1       17.514807753611       0.606778111104       0.054622366155
        62    1       16.482624201538       4.307451411487       0.074035586581
        63    1       13.738944039874       4.307451411487       0.074035586581
        64    1       20.236074984364       5.583349204364       2.176409931664
        65    1       17.540889106251       5.583337577813       2.176409931664
        66    1       17.463200837797       7.359956076412       0.086403751734
        67    1       12.758363796997       7.359967702964       0.086403751734
        68    2       12.818032573264       9.784696704262       0.092513230119
        69    2       13.626455696415       8.244748293797       2.165098323169
        70    2       17.403524642031       9.784661824606       0.092513230119
        71    2       16.595105210271       8.244748293797       2.165098323169
        72    2       15.110780287363       2.321671246277       0.080794323065
        73    2       15.110780337202       4.100208125920       2.160630136997
        74    3       18.888472592126       5.264246864075       0.084593087843
        75    3       18.888480033275       1.187442986898       2.068310474510
        76    1       26.443868546206      11.558617842847       0.780714717082
        77    1       22.666179959026       6.470862034867       1.551908326265
        78    1       22.666180026259       8.870094008101       0.086032747106
        79    1       26.443868302571       2.864375430493       0.107922020158
        80    1       24.091391208708       2.180106351743       2.088159222108
        81    1       28.796334024996       2.180094725192       2.088159222108
        82    1       26.443876033873       9.141806523314       2.173579005046
        83    1       24.083046515859      10.659524966767       2.201448711395
        84    1       21.249321192338      10.659478460560       2.201448711395
        85    1       27.817532947308       0.606789737655       0.054622366155
        86    1       25.070199753611       0.606778111104       0.054622366155
        87    1       24.038016201538       4.307451411487       0.074035586581
        88    1       21.294336039874       4.307451411487       0.074035586581
        89    1       27.791466984364       5.583349204364       2.176409931664
        90    1       25.096281106251       5.583337577813       2.176409931664
        91    1       25.018592837797       7.359956076412       0.086403751734
        92    1       20.313755796997       7.359967702964       0.086403751734
        93    2       20.373424573264       9.784696704262       0.092513230119
        94    2       21.181847696415       8.244748293797       2.165098323169
        95    2       24.958916642031       9.784661824606       0.092513230119
        96    2       24.150497210271       8.244748293797       2.165098323169
        97    2       22.666172287363       2.321671246277       0.080794323065
        98    2       22.666172337202       4.100208125920       2.160630136997
        99    3       26.443864592126       5.264246864075       0.084593087843
       100    3       26.443872033275       1.187442986898       2.068310474510
       101    1       33.999260546206      11.558617842847       0.780714717082
       102    1       30.221571959026       6.470862034867       1.551908326265
       103    1       30.221572026259       8.870094008101       0.086032747106
       104    1       33.999260302571       2.864375430493       0.107922020158
       105    1       31.646783208708       2.180106351743       2.088159222108
       106    1       36.351726024996       2.180094725192       2.088159222108
       107    1       33.999268033873       9.141806523314       2.173579005046
       108    1       31.638438515859      10.659524966767       2.201448711395
       109    1       28.804713192338      10.659478460560       2.201448711395
       110    1       35.372924947308       0.606789737655       0.054622366155
       111    1       32.625591753611       0.606778111104       0.054622366155
       112    1       31.593408201538       4.307451411487       0.074035586581
       113    1       28.849728039874       4.307451411487       0.074035586581
       114    1       35.346858984364       5.583349204364       2.176409931664
       115    1       32.651673106251       5.583337577813       2.176409931664
       116    1       32.573984837797       7.359956076412       0.086403751734
       117    1       27.869147796997       7.359967702964       0.086403751734
       118    2       27.928816573264       9.784696704262       0.092513230119
       119    2       28.737239696415       8.244748293797       2.165098323169
       120    2       32.514308642031       9.784661824606       0.092513230119
       121    2       31.705889210271       8.244748293797       2.165098323169
       122    2       30.221564287363       2.321671246277       0.080794323065
       123    2       30.221564337202       4.100208125920       2.160630136997
       124    3       33.999256592126       5.264246864075       0.084593087843
       125    3       33.999264033275       1.187442986898       2.068310474510
       126    1       41.554652546206      11.558617842847       0.780714717082
       127    1       37.776963959026       6.470862034867       1.551908326265
       128    1       37.776964026259       8.870094008101       0.086032747106
       129    1       41.554652302571       2.864375430493       0.107922020158
       130    1       39.202175208708       2.180106351743       2.088159222108
       131    1       43.907118024996       2.180094725192       2.088159222108
       132    1       41.554660033873       9.141806523314       2.173579005046
       133    1       39.193830515859      10.659524966767       2.201448711395
       134    1       36.360105192338      10.659478460560       2.201448711395
       135    1       42.928316947308       0.606789737655       0.054622366155
       136    1       40.180983753611       0.606778111104       0.054622366155
       137    1       39.148800201538       4.307451411487       0.074035586581
       138    1       36.405120039874       4.307451411487       0.074035586581
       139    1       42.902250984364       5.583349204364       2.176409931664
       140    1       40.207065106251       5.583337577813       2.176409931664
       141    1       40.129376837797       7.359956076412       0.086403751734
       142    1       35.424539796997       7.359967702964       0.086403751734
       143    2       35.484208573264       9.784696704262       0.092513230119
       144    2       36.292631696415       8.244748293797       2.165098323169
       145    2       40.069700642031       9.784661824606       0.092513230119
       146    2       39.261281210271       8.244748293797       2.165098323169
       147    2       37.776956287363       2.321671246277       0.080794323065
       148    2       37.776956337202       4.100208125920       2.160630136997
       149    3       41.554648592126       5.264246864075       0.084593087843
       150    3       41.554656033275       1.187442986898       2.068310474510
       151    1       49.110044546206      11.558617842847       0.780714717082
       152    1       45.332355959026       6.470862034867       1.551908326265
       153    1       45.332356026259       8.870094008101       0.086032747106
       154    1       49.110044302571       2.864375430493       0.107922020158
       155    1       46.757567208708       2.180106351743       2.088159222108
       156    1       51.462510024996       2.180094725192       2.088159222108
       157    1       49.110052033873       9.141806523314       2.173579005046
       158    1       46.749222515859      10.659524966767       2.201448711395
       159    1       43.915497192338      10.659478460560       2.201448711395
       160    1       50.483708947308       0.606789737655       0.054622366155
       161    1       47.736375753611       0.606778111104       0.054622366155
       162    1       46.704192201538       4.307451411487       0.074035586581
       163    1       43.960512039874       4.307451411487       0.074035586581
       164    1       50.457642984364       5.583349204364       2.176409931664
       165    1       47.762457106251       5.583337577813       2.176409931664
       166    1       47.684768837797       7.359956076412       0.086403751734
       167    1       42.979931796997       7.359967702964       0.086403751734
       168    2       43.039600573264       9.784696704262       0.092513230119
       169    2       43.848023696415       8.244748293797       2.165098323169
       170    2       47.625092642031       9.784661824606       0.092513230119
       171    2       46.816673210271       8.244748293797       2.165098323169
       172    2       45.332348287363       2.321671246277       0.080794323065
       173    2       45.332348337202       4.100208125920       2.160630136997
       174    3       49.110040592126       5.264246864075       0.084593087843
       175    3       49.110048033275       1.187442986898       2.068310474510
       176    1       56.665436546206      11.558617842847       0.780714717082
       177    1       52.887747959026       6.470862034867       1.551908326265
       178    1       52.887748026259       8.870094008101       0.086032747106
       179    1       56.665436302571       2.864375430493       0.107922020158
       180    1       54.312959208708       2.180106351743       2.088159222108
       181    1       59.017902024996       2.180094725192       2.088159222108
       182    1       56.665444033873       9.141806523314       2.173579005046
       183    1       54.304614515859      10.659524966767       2.201448711395
       184    1       51.470889192338      10.659478460560       2.201448711395
       185    1       58.039100947308       0.606789737655       0.054622366155
       186    1       55.291767753611       0.606778111104       0.054622366155
       187    1       54.259584201538       4.307451411487       0.074035586581
       188    1       51.515904039874       4.307451411487       0.074035586581
       189    1       58.013034984364       5.583349204364       2.176409931664
       190    1       55.317849106251       5.583337577813       2.176409931664
       191    1       55.240160837797       7.359956076412       0.086403751734
       192    1       50.535323796997       7.359967702964       0.086403751734
       193    2       50.594992573264       9.784696704262       0.092513230119
       194    2       51.403415696415       8.244748293797       2.165098323169
       195    2       55.180484642031       9.784661824606       0.092513230119
       196    2       54.372065210271       8.244748293797       2.165098323169
       197    2       52.887740287363       2.321671246277       0.080794323065
       198    2       52.887740337202       4.100208125920       2.160630136997
       199    3       56.665432592126       5.264246864075       0.084593087843
       200    3       56.665440033275       1.187442986898       2.068310474510
       201    1       -0.000003127988      23.185169627773       0.780714717082
       202    1       -3.777691715168      18.097413819793       1.551908326265
       203    1       -3.777691647936      20.496645793027       0.086032747106
       204    1       -0.000003371623      14.490927215420       0.107922020158
       205    1       -2.352480465486      13.806658136670       2.088159222108
       206    1        2.352462350801      13.806646510118       2.088159222108
       207    1        0.000004359678      20.768358308241       2.173579005046
       208    1       -2.360825158335      22.286076751693       2.201448711395
       209    1       -5.194550481857      22.286030245486       2.201448711395
       210    1        1.373661273113      12.233341522582       0.054622366155
       211    1       -1.373671920583      12.233329896030       0.054622366155
       212    1       -2.405855472657      15.934003196413       0.074035586581
       213    1       -5.149535634321      15.934003196413       0.074035586581
       214    1        1.347595310169      17.209900989291       2.176409931664
       215    1       -1.347590567943      17.209889362739       2.176409931664
       216    1       -1.425278836398      18.986507861338       0.086403751734
       217    1       -6.130115877197      18.986519487890       0.086403751734
       218    2       -6.070447100930      21.411248489188       0.092513230119
       219    2       -5.262023977780      19.871300078723       2.165098323169
       220    2       -1.484955032163      21.411213609533       0.092513230119
       221    2       -2.293374463924      19.871300078723       2.165098323169
       222    2       -3.777699386831      13.948223031203       0.080794323065
       223    2       -3.777699336992      15.726759910847       2.160630136997
       224    3       -0.000007082069      16.890798649002       0.084593087843
       225    3        0.000000359081      12.813994771824       2.068310474510
       226    1        7.555388872012      23.185169627773       0.780714717082
       227    1        3.777700284832      18.097413819793       1.551908326265
       228    1        3.777700352064      20.496645793027       0.086032747106
       229    1        7.555388628377      14.490927215420       0.107922020158
       230    1        5.202911534514      13.806658136670       2.088159222108
       231    1        9.907854350801      13.806646510118       2.088159222108
       232    1        7.555396359678      20.768358308241       2.173579005046
       233    1        5.194566841665      22.286076751693       2.201448711395
       234    1        2.360841518143      22.286030245486       2.201448711395
       235    1        8.929053273113      12.233341522582       0.054622366155
       236    1        6.181720079417      12.233329896030       0.054622366155
       237    1        5.149536527343      15.934003196413       0.074035586581
       238    1        2.405856365679      15.934003196413       0.074035586581
       239    1        8.902987310169      17.209900989291       2.176409931664
       240    1        6.207801432057      17.209889362739       2.176409931664
       241    1        6.130113163602      18.986507861338       0.086403751734
       242    1        1.425276122803      18.986519487890       0.086403751734
       243    2        1.484944899070      21.411248489188       0.092513230119
       244    2        2.293368022220      19.871300078723       2.165098323169
       245    2        6.070436967837      21.411213609533       0.092513230119
       246    2        5.262017536076      19.871300078723       2.165098323169
       247    2        3.777692613169      13.948223031203       0.080794323065
       248    2        3.777692663008      15.726759910847       2.160630136997
       249    3        7.555384917931      16.890798649002       0.084593087843
       250    3        7.555392359081      12.813994771824       2.068310474510
       251    1       15.110780872012      23.185169627773       0.780714717082
       252    1       11.333092284832      18.097413819793       1.551908326265
       253    1       11.333092352064      20.496645793027       0.086032747106
       254    1       15.110780628377      14.490927215420       0.107922020158
       255    1       12.758303534514      13.806658136670       2.088159222108
       256    1       17.463246350801      13.806646510118       2.088159222108
       257    1       15.110788359678      20.768358308241       2.173579005046
       258    1       12.749958841665      22.286076751693       2.201448711395
       259    1        9.916233518143      22.286030245486       2.201448711395
       260    1       16.484445273113      12.233341522582       0.054622366155
       261    1       13.737112079417      12.233329896030       0.054622366155
       262    1       12.704928527343      15.934003196413       0.074035586581
       263    1        9.961248365679      15.934003196413       0.074035586581
       264    1       16.458379310169      17.209900989291       2.176409931664
       265    1       13.763193432057      17.209889362739       2.176409931664
       266    1       13.685505163602      18.986507861338       0.086403751734
       267    1        8.980668122803      18.986519487890       0.086403751734
       268    2        9.040336899070      21.411248489188       0.092513230119
       269    2        9.848760022220      19.871300078723       2.165098323169
       270    2       13.625828967837      21.411213609533       0.092513230119
       271    2       12.817409536076      19.871300078723       2.165098323169
       272    2       11.333084613169      13.948223031203       0.080794323065
       273    2       11.333084663008      15.726759910847       2.160630136997
       274    3       15.110776917931      16.890798649002       0.084593087843
       275    3       15.110784359081      12.813994771824       2.068310474510
       276    1       22.666172872012      23.185169627773       0.780714717082
       277    1       18.888484284832      18.097413819793       1.551908326265
       278    1       18.888484352064      20.496645793027       0.086032747106
       279    1       22.666172628377      14.490927215420       0.107922020158
       280    1       20.313695534514      13.806658136670       2.088159222108
       281    1       25.018638350801      13.806646510118       2.088159222108
       282    1       22.666180359678      20.768358308241       2.173579005046
       283    1       20.305350841665      22.286076751693       2.201448711395
       284    1       17.471625518143      22.286030245486       2.201448711395
       285    1       24.039837273113      12.233341522582       0.054622366155
       286    1       21.292504079417      12.233329896030       0.054622366155
       287    1       20.260320527343      15.934003196413       0.074035586581
       288    1       17.516640365679      15.934003196413       0.074035586581
       289    1       24.013771310169      17.209900989291       2.176409931664
       290    1       21.318585432057      17.209889362739       2.176409931664
       291    1       21.240897163602      18.986507861338       0.086403751734
       292    1       16.536060122803      18.986519487890       0.086403751734
       293    2       16.595728899070      21.411248489188       0.092513230119
       294    2       17.404152022220      19.871300078723       2.165098323169
       295    2       21.181220967837      21.411213609533       0.092513230119
       296    2       20.372801536076      19.871300078723       2.165098323169
       297    2       18.888476613169      13.948223031203       0.080794323065
       298    2       18.888476663008      15.726759910847       2.160630136997
       299    3       22.666168917931      16.890798649002       0.084593087843
       300    3       22.666176359081      12.813994771824       2.068310474510
       301    1       30.221564872012      23.185169627773       0.780714717082
       302    1       26.443876284832      18.097413819793       1.551908326265
       303    1       26.443876352064      20.496645793027       0.086032747106
       304    1       30.221564628377      14.490927215420       0.107922020158
       305    1       27.869087534514      13.806658136670       2.088159222108
       306    1       32.574030350801      13.806646510118       2.088159222108
       307    1       30.221572359678      20.768358308241       2.173579005046
       308    1       27.860742841665      22.286076751693       2.201448711395
       309    1       25.027017518143      22.286030245486       2.201448711395
       310    1       31.595229273113      12.233341522582       0.054622366155
       311    1       28.847896079417      12.233329896030       0.054622366155
       312    1       27.815712527343      15.934003196413       0.074035586581
       313    1       25.072032365679      15.934003196413       0.074035586581
       314    1       31.569163310169      17.209900989291       2.176409931664
       315    1       28.873977432057      17.209889362739       2.176409931664
       316    1       28.796289163602      18.986507861338       0.086403751734
       317    1       24.091452122803      18.986519487890       0.086403751734
       318    2       24.151120899070      21.411248489188       0.092513230119
       319    2       24.959544022220      19.871300078723       2.165098323169
       320    2       28.736612967837      21.411213609533       0.092513230119
       321    2       27.928193536076      19.871300078723       2.165098323169
       322    2       26.443868613169      13.948223031203       0.080794323065
       323    2       26.443868663008      15.726759910847       2.160630136997
       324    3       30.221560917931      16.890798649002       0.084593087843
       325    3       30.221568359081      12.813994771824       2.068310474510
       326    1       37.776956872012      23.185169627773       0.780714717082
       327    1       33.999268284832      18.097413819793       1.551908326265
       328    1       33.999268352064      20.496645793027       0.086032747106
       329    1       37.776956628377      14.490927215420       0.107922020158
       330    1       35.424479534514      13.806658136670       2.088159222108
       331    1       40.129422350801      13.806646510118       2.088159222108
       332    1       37.776964359678      20.768358308241       2.173579005046
       333    1       35.416134841665      22.286076751693       2.201448711395
       334    1       32.582409518143      22.286030245486       2.201448711395
       335    1       39.150621273113      12.233341522582       0.054622366155
       336    1       36.403288079417      12.233329896030       0.054622366155
       337    1       35.371104527343      15.934003196413       0.074035586581
       338    1       32.627424365679      15.934003196413       0.074035586581
       339    1       39.124555310169      17.209900989291       2.176409931664
       340    1       36.429369432057      17.209889362739       2.176409931664
       341    1       36.351681163602      18.986507861338       0.086403751734
       342    1       31.646844122803      18.986519487890       0.086403751734
       343    2       31.706512899070      21.411248489188       0.092513230119
       344    2       32.514936022220      19.871300078723       2.165098323169
       345    2       36.292004967837      21.411213609533       0.092513230119
       346    2       35.483585536076      19.871300078723       2.165098323169
       347    2       33.999260613169      13.948223031203       0.080794323065
       348    2       33.999260663008      15.726759910847       2.160630136997
       349    3       37.776952917931      16.890798649002       0.084593087843
       350    3       37.776960359081      12.813994771824       2.068310474510
       351    1       45.332348872012      23.185169627773       0.780714717082
       352    1       41.554660284832      18.097413819793       1.551908326265
       353    1       41.554660352064      20.496645793027       0.086032747106
       354    1       45.332348628377      14.490927215420       0.107922020158
       355    1       42.979871534514      13.806658136670       2.088159222108
       356    1       47.684814350801      13.806646510118       2.088159222108
       357    1       45.332356359678      20.768358308241       2.173579005046
       358    1       42.971526841665      22.286076751693       2.201448711395
       359    1       40.137801518143      22.286030245486       2.201448711395
       360    1       46.706013273113      12.233341522582       0.054622366155
       361    1       43.958680079417      12.233329896030       0.054622366155
       362    1       42.926496527343      15.934003196413       0.074035586581
       363    1       40.182816365679      15.934003196413       0.074035586581
       364    1       46.679947310169      17.209900989291       2.176409931664
       365    1       43.984761432057      17.209889362739       2.176409931664
       366    1       43.907073163602      18.986507861338       0.086403751734
       367    1       39.202236122803      18.986519487890       0.086403751734
       368    2       39.261904899070      21.411248489188       0.092513230119