 # LAMMPS data file written by OVITO Basic 3.8.4
  
        1356  atoms
           2  atom types
 
      0.000000000000      99.506652830000  xlo xhi
      0.000000000000      50.038948060000  ylo yhi
      0.000000000000      25.000000000000  zlo zhi
 
Masses
 
            1   12.01100000             # C
            2   10.81000000             # B
 
Atoms # charge
 
         1    1   0.000000        0.000000000000       3.706588541323       0.000000000000
         2    1   0.000000        1.604999522287       0.926647260428       0.000000000000
         3    1   0.000000        0.000000000000       1.853294520856       0.000000000000
         4    1   0.000000        1.604999522287       4.633235801751       0.000000000000
         5    1   0.000000        3.210000039641       3.706588541323       0.000000000000
         6    1   0.000000        4.815000556995       0.926647260428       0.000000000000
         7    1   0.000000        3.210000039641       1.853294520856       0.000000000000
         8    1   0.000000        4.815000556995       4.633235801751       0.000000000000
         9    1   0.000000        6.420000079282       3.706588541323       0.000000000000
        10    1   0.000000        8.025000596636       0.926647260428       0.000000000000
        11    1   0.000000        6.420000079282       1.853294520856       0.000000000000
        12    1   0.000000        8.025000596636       4.633235801751       0.000000000000
        13    1   0.000000        9.630000118923       3.706588541323       0.000000000000
        14    1   0.000000       11.234999641210       0.926647260428       0.000000000000
        15    1   0.000000        9.630000118923       1.853294520856       0.000000000000
        16    1   0.000000       11.234999641210       4.633235801751       0.000000000000
        17    1   0.000000       12.840001153630       3.706588541323       0.000000000000
        18    1   0.000000       14.444999680851       0.926647260428       0.000000000000
        19    1   0.000000       12.840001153630       1.853294520856       0.000000000000
        20    1   0.000000       14.444999680851       4.633235801751       0.000000000000
        21    1   0.000000       16.049999203138       3.706588541323       0.000000000000
        22    1   0.000000       17.655000715558       0.926647260428       0.000000000000
        23    1   0.000000       16.049999203138       1.853294520856       0.000000000000
        24    1   0.000000       17.655000715558       4.633235801751       0.000000000000
        25    1   0.000000       19.260001232912       3.706588541323       0.000000000000
        26    1   0.000000       20.865000755199       0.926647260428       0.000000000000
        27    1   0.000000       19.260001232912       1.853294520856       0.000000000000
        28    1   0.000000       20.865000755199       4.633235801751       0.000000000000
        29    1   0.000000       22.469999282420       3.706588541323       0.000000000000
        30    1   0.000000       24.075000794840       0.926647260428       0.000000000000
        31    1   0.000000       22.469999282420       1.853294520856       0.000000000000
        32    1   0.000000       24.075000794840       4.633235801751       0.000000000000
        33    1   0.000000       25.680002307260       3.706588541323       0.000000000000
        34    1   0.000000       27.285000834481       0.926647260428       0.000000000000
        35    1   0.000000       25.680002307260       1.853294520856       0.000000000000
        36    1   0.000000       27.285000834481       4.633235801751       0.000000000000
        37    1   0.000000       28.889999361702       3.706588541323       0.000000000000
        38    1   0.000000       30.495000874122       0.926647260428       0.000000000000
        39    1   0.000000       28.889999361702       1.853294520856       0.000000000000
        40    1   0.000000       30.495000874122       4.633235801751       0.000000000000
        41    1   0.000000       32.099999401342       3.706588541323       0.000000000000
        42    1   0.000000       33.705002903896       0.926647260428       0.000000000000
        43    1   0.000000       32.099999401342       1.853294520856       0.000000000000
        44    1   0.000000       33.705002903896       4.633235801751       0.000000000000
        45    1   0.000000       35.310001431116       3.706588541323       0.000000000000
        46    1   0.000000       36.915002943537       0.926647260428       0.000000000000
        47    1   0.000000       35.310001431116       1.853294520856       0.000000000000
        48    1   0.000000       36.915002943537       4.633235801751       0.000000000000
        49    1   0.000000       38.520001470757       3.706588541323       0.000000000000
        50    1   0.000000       40.124999997978       0.926647260428       0.000000000000
        51    1   0.000000       38.520001470757       1.853294520856       0.000000000000
        52    1   0.000000       40.124999997978       4.633235801751       0.000000000000
        53    1   0.000000       41.730001510398       3.706588541323       0.000000000000
        54    1   0.000000       43.335000037619       0.926647260428       0.000000000000
        55    1   0.000000       41.730001510398       1.853294520856       0.000000000000
        56    1   0.000000       43.335000037619       4.633235801751       0.000000000000
        57    1   0.000000       44.939998564839       3.706588541323       0.000000000000
        58    1   0.000000       46.545003062459       0.926647260428       0.000000000000
        59    1   0.000000       44.939998564839       1.853294520856       0.000000000000
        60    1   0.000000       46.545003062459       4.633235801751       0.000000000000
        61    1   0.000000        0.000000000000       9.266471603502       0.000000000000
        62    1   0.000000        1.604999522287       6.486530322607       0.000000000000
        63    1   0.000000        0.000000000000       7.413177583035       0.000000000000
        64    1   0.000000        1.604999522287      10.193118863930       0.000000000000
        65    1   0.000000        3.210000039641       9.266471603502       0.000000000000
        66    1   0.000000        4.815000556995       6.486530322607       0.000000000000
        67    1   0.000000        3.210000039641       7.413177583035       0.000000000000
        68    1   0.000000        4.815000556995      10.193118863930       0.000000000000
        69    1   0.000000        6.420000079282       9.266471603502       0.000000000000
        70    1   0.000000        8.025000596636       6.486530322607       0.000000000000
        71    1   0.000000        6.420000079282       7.413177583035       0.000000000000
        72    1   0.000000        8.025000596636      10.193118863930       0.000000000000
        73    1   0.000000        9.630000118923       9.266471603502       0.000000000000
        74    1   0.000000       11.234999641210       6.486530322607       0.000000000000
        75    1   0.000000        9.630000118923       7.413177583035       0.000000000000
        76    1   0.000000       11.234999641210      10.193118863930       0.000000000000
        77    1   0.000000       12.840001153630       9.266471603502       0.000000000000
        78    1   0.000000       14.444999680851       6.486530322607       0.000000000000
        79    1   0.000000       12.840001153630       7.413177583035       0.000000000000
        80    1   0.000000       14.444999680851      10.193118863930       0.000000000000
        81    1   0.000000       16.049999203138       9.266471603502       0.000000000000
        82    1   0.000000       17.655000715558       6.486530322607       0.000000000000
        83    1   0.000000       16.049999203138       7.413177583035       0.000000000000
        84    1   0.000000       17.655000715558      10.193118863930       0.000000000000
        85    1   0.000000       19.260001232912       9.266471603502       0.000000000000
        86    1   0.000000       20.865000755199       6.486530322607       0.000000000000
        87    1   0.000000       19.260001232912       7.413177583035       0.000000000000
        88    1   0.000000       20.865000755199      10.193118863930       0.000000000000
        89    1   0.000000       22.469999282420       9.266471603502       0.000000000000
        90    1   0.000000       24.075000794840       6.486530322607       0.000000000000
        91    1   0.000000       22.469999282420       7.413177583035       0.000000000000
        92    1   0.000000       24.075000794840      10.193118863930       0.000000000000
        93    1   0.000000       25.680002307260       9.266471603502       0.000000000000
        94    1   0.000000       27.285000834481       6.486530322607       0.000000000000
        95    1   0.000000       25.680002307260       7.413177583035       0.000000000000
        96    1   0.000000       27.285000834481      10.193118863930       0.000000000000
        97    1   0.000000       28.889999361702       9.266471603502       0.000000000000
        98    1   0.000000       30.495000874122       6.486530322607       0.000000000000
        99    1   0.000000       28.889999361702       7.413177583035       0.000000000000
       100    1   0.000000       30.495000874122      10.193118863930       0.000000000000
       101    1   0.000000       32.099999401342       9.266471603502       0.000000000000
       102    1   0.000000       33.705002903896       6.486530322607       0.000000000000
       103    1   0.000000       32.099999401342       7.413177583035       0.000000000000
       104    1   0.000000       33.705002903896      10.193118863930       0.000000000000
       105    1   0.000000       35.310001431116       9.266471603502       0.000000000000
       106    1   0.000000       36.915002943537       6.486530322607       0.000000000000
       107    1   0.000000       35.310001431116       7.413177583035       0.000000000000
       108    1   0.000000       36.915002943537      10.193118863930       0.000000000000
       109    1   0.000000       38.520001470757       9.266471603502       0.000000000000
       110    1   0.000000       40.124999997978       6.486530322607       0.000000000000
       111    1   0.000000       38.520001470757       7.413177583035       0.000000000000
       112    1   0.000000       40.124999997978      10.193118863930       0.000000000000
       113    1   0.000000       41.730001510398       9.266471603502       0.000000000000
       114    1   0.000000       43.335000037619       6.486530322607       0.000000000000
       115    1   0.000000       41.730001510398       7.413177583035       0.000000000000
       116    1   0.000000       43.335000037619      10.193118863930       0.000000000000
       117    1   0.000000       44.939998564839       9.266471603502       0.000000000000
       118    1   0.000000       46.545003062459       6.486530322607       0.000000000000
       119    1   0.000000       44.939998564839       7.413177583035       0.000000000000
       120    1   0.000000       46.545003062459      10.193118863930       0.000000000000
       121    1   0.000000        0.000000000000      14.826355166070       0.000000000000
       122    1   0.000000        1.604999522287      12.046413885175       0.000000000000
       123    1   0.000000        0.000000000000      12.973060144825       0.000000000000
       124    1   0.000000        1.604999522287      15.753001926109       0.000000000000
       125    1   0.000000        3.210000039641      14.826355166070       0.000000000000
       126    1   0.000000        4.815000556995      12.046413885175       0.000000000000
       127    1   0.000000        3.210000039641      12.973060144825       0.000000000000
       128    1   0.000000        4.815000556995      15.753001926109       0.000000000000
       129    1   0.000000        6.420000079282      14.826355166070       0.000000000000
       130    1   0.000000        8.025000596636      12.046413885175       0.000000000000
       131    1   0.000000        6.420000079282      12.973060144825       0.000000000000
       132    1   0.000000        8.025000596636      15.753001926109       0.000000000000
       133    1   0.000000        9.630000118923      14.826355166070       0.000000000000
       134    1   0.000000       11.234999641210      12.046413885175       0.000000000000
       135    1   0.000000        9.630000118923      12.973060144825       0.000000000000
       136    1   0.000000       11.234999641210      15.753001926109       0.000000000000
       137    1   0.000000       12.840001153630      14.826355166070       0.000000000000
       138    1   0.000000       14.444999680851      12.046413885175       0.000000000000
       139    1   0.000000       12.840001153630      12.973060144825       0.000000000000
       140    1   0.000000       14.444999680851      15.753001926109       0.000000000000
       141    1   0.000000       16.049999203138      14.826355166070       0.000000000000
       142    1   0.000000       17.655000715558      12.046413885175       0.000000000000
       143    1   0.000000       16.049999203138      12.973060144825       0.000000000000
       144    1   0.000000       17.655000715558      15.753001926109       0.000000000000
       145    1   0.000000       19.260001232912      14.826355166070       0.000000000000
       146    1   0.000000       20.865000755199      12.046413885175       0.000000000000
       147    1   0.000000       19.260001232912      12.973060144825       0.000000000000
       148    1   0.000000       20.865000755199      15.753001926109       0.000000000000
       149    1   0.000000       22.469999282420      14.826355166070       0.000000000000
       150    1   0.000000       24.075000794840      12.046413885175       0.000000000000
       151    1   0.000000       22.469999282420      12.973060144825       0.000000000000
       152    1   0.000000       24.075000794840      15.753001926109       0.000000000000
       153    1   0.000000       25.680002307260      14.826355166070       0.000000000000
       154    1   0.000000       27.285000834481      12.046413885175       0.000000000000
       155    1   0.000000       25.680002307260      12.973060144825       0.000000000000
       156    1   0.000000       27.285000834481      15.753001926109       0.000000000000
       157    1   0.000000       28.889999361702      14.826355166070       0.000000000000
       158    1   0.000000       30.495000874122      12.046413885175       0.000000000000
       159    1   0.000000       28.889999361702      12.973060144825       0.000000000000
       160    1   0.000000       30.495000874122      15.753001926109       0.000000000000
       161    1   0.000000       32.099999401342      14.826355166070       0.000000000000
       162    1   0.000000       33.705002903896      12.046413885175       0.000000000000
       163    1   0.000000       32.099999401342      12.973060144825       0.000000000000
       164    1   0.000000       33.705002903896      15.753001926109       0.000000000000
       165    1   0.000000       35.310001431116      14.826355166070       0.000000000000
       166    1   0.000000       36.915002943537      12.046413885175       0.000000000000
       167    1   0.000000       35.310001431116      12.973060144825       0.000000000000
       168    1   0.000000       36.915002943537      15.753001926109       0.000000000000
       169    1   0.000000       38.520001470757      14.826355166070       0.000000000000
       170    1   0.000000       40.124999997978      12.046413885175       0.000000000000
       171    1   0.000000       38.520001470757      12.973060144825       0.000000000000
       172    1   0.000000       40.124999997978      15.753001926109       0.000000000000
       173    1   0.000000       41.730001510398      14.826355166070       0.000000000000
       174    1   0.000000       43.335000037619      12.046413885175       0.000000000000
       175    1   0.000000       41.730001510398      12.973060144825       0.000000000000
       176    1   0.000000       43.335000037619      15.753001926109       0.000000000000
       177    1   0.000000       44.939998564839      14.826355166070       0.000000000000
       178    1   0.000000       46.545003062459      12.046413885175       0.000000000000
       179    1   0.000000       44.939998564839      12.973060144825       0.000000000000
       180    1   0.000000       46.545003062459      15.753001926109       0.000000000000
       181    1   0.000000        0.000000000000      20.386237727860       0.000000000000
       182    1   0.000000        1.604999522287      17.606296446965       0.000000000000
       183    1   0.000000        0.000000000000      18.532943207004       0.000000000000
       184    1   0.000000        1.604999522287      21.312885989067       0.000000000000
       185    1   0.000000        3.210000039641      20.386237727860       0.000000000000
       186    1   0.000000        4.815000556995      17.606296446965       0.000000000000
       187    1   0.000000        3.210000039641      18.532943207004       0.000000000000
       188    1   0.000000        4.815000556995      21.312885989067       0.000000000000
       189    1   0.000000        6.420000079282      20.386237727860       0.000000000000
       190    1   0.000000        8.025000596636      17.606296446965       0.000000000000
       191    1   0.000000        6.420000079282      18.532943207004       0.000000000000
       192    1   0.000000        8.025000596636      21.312885989067       0.000000000000
       193    1   0.000000        9.630000118923      20.386237727860       0.000000000000
       194    1   0.000000       11.234999641210      17.606296446965       0.000000000000
       195    1   0.000000        9.630000118923      18.532943207004       0.000000000000
       196    1   0.000000       11.234999641210      21.312885989067       0.000000000000
       197    1   0.000000       12.840001153630      20.386237727860       0.000000000000
       198    1   0.000000       14.444999680851      17.606296446965       0.000000000000
       199    1   0.000000       12.840001153630      18.532943207004       0.000000000000
       200    1   0.000000       14.444999680851      21.312885989067       0.000000000000
       201    1   0.000000       16.049999203138      20.386237727860       0.000000000000
       202    1   0.000000       17.655000715558      17.606296446965       0.000000000000
       203    1   0.000000       16.049999203138      18.532943207004       0.000000000000
       204    1   0.000000       17.655000715558      21.312885989067       0.000000000000
       205    1   0.000000       19.260001232912      20.386237727860       0.000000000000
       206    1   0.000000       20.865000755199      17.606296446965       0.000000000000
       207    1   0.000000       19.260001232912      18.532943207004       0.000000000000
       208    1   0.000000       20.865000755199      21.312885989067       0.000000000000
       209    1   0.000000       22.469999282420      20.386237727860       0.000000000000
       210    1   0.000000       24.075000794840      17.606296446965       0.000000000000
       211    1   0.000000       22.469999282420      18.532943207004       0.000000000000
       212    1   0.000000       24.075000794840      21.312885989067       0.000000000000
       213    1   0.000000       25.680002307260      20.386237727860       0.000000000000
       214    1   0.000000       27.285000834481      17.606296446965       0.000000000000
       215    1   0.000000       25.680002307260      18.532943207004       0.000000000000
       216    1   0.000000       27.285000834481      21.312885989067       0.000000000000
       217    1   0.000000       28.889999361702      20.386237727860       0.000000000000
       218    1   0.000000       30.495000874122      17.606296446965       0.000000000000
       219    1   0.000000       28.889999361702      18.532943207004       0.000000000000
       220    1   0.000000       30.495000874122      21.312885989067       0.000000000000
       221    1   0.000000       32.099999401342      20.386237727860       0.000000000000
       222    1   0.000000       33.705002903896      17.606296446965       0.000000000000
       223    1   0.000000       32.099999401342      18.532943207004       0.000000000000
       224    1   0.000000       33.705002903896      21.312885989067       0.000000000000
       225    1   0.000000       35.310001431116      20.386237727860       0.000000000000
       226    1   0.000000       36.915002943537      17.606296446965       0.000000000000
       227    1   0.000000       35.310001431116      18.532943207004       0.000000000000
       228    1   0.000000       36.915002943537      21.312885989067       0.000000000000
       229    1   0.000000       38.520001470757      20.386237727860       0.000000000000
       230    1   0.000000       40.124999997978      17.606296446965       0.000000000000
       231    1   0.000000       38.520001470757      18.532943207004       0.000000000000
       232    1   0.000000       40.124999997978      21.312885989067       0.000000000000
       233    1   0.000000       41.730001510398      20.386237727860       0.000000000000
       234    1   0.000000       43.335000037619      17.606296446965       0.000000000000
       235    1   0.000000       41.730001510398      18.532943207004       0.000000000000
       236    1   0.000000       43.335000037619      21.312885989067       0.000000000000
       237    1   0.000000       44.939998564839      20.386237727860       0.000000000000
       238    1   0.000000       46.545003062459      17.606296446965       0.000000000000
       239    1   0.000000       44.939998564839      18.532943207004       0.000000000000
       240    1   0.000000       46.545003062459      21.312885989067       0.000000000000
       241    1   0.000000        0.000000000000      25.946120790039       0.000000000000
       242    1   0.000000        1.604999522287      23.166179509144       0.000000000000
       243    1   0.000000        0.000000000000      24.092827269961       0.000000000000
       244    1   0.000000        1.604999522287      26.872767049688       0.000000000000
       245    1   0.000000        3.210000039641      25.946120790039       0.000000000000
       246    1   0.000000        4.815000556995      23.166179509144       0.000000000000
       247    1   0.000000        3.210000039641      24.092827269961       0.000000000000
       248    1   0.000000        4.815000556995      26.872767049688       0.000000000000
       249    1   0.000000        6.420000079282      25.946120790039       0.000000000000
       250    1   0.000000        8.025000596636      23.166179509144       0.000000000000
       251    1   0.000000        6.420000079282      24.092827269961       0.000000000000
       252    1   0.000000        8.025000596636      26.872767049688       0.000000000000
       253    1   0.000000        9.630000118923      25.946120790039       0.000000000000
       254    1   0.000000       11.234999641210      23.166179509144       0.000000000000
       255    1   0.000000        9.630000118923      24.092827269961       0.000000000000
       256    1   0.000000       11.234999641210      26.872767049688       0.000000000000
       257    1   0.000000       12.840001153630      25.946120790039       0.000000000000
       258    1   0.000000       14.444999680851      23.166179509144       0.000000000000
       259    1   0.000000       12.840001153630      24.092827269961       0.000000000000
       260    1   0.000000       14.444999680851      26.872767049688       0.000000000000
       261    1   0.000000       16.049999203138      25.946120790039       0.000000000000
       262    1   0.000000       17.655000715558      23.166179509144       0.000000000000
       263    1   0.000000       16.049999203138      24.092827269961       0.000000000000
       264    1   0.000000       17.655000715558      26.872767049688       0.000000000000
       265    1   0.000000       19.260001232912      25.946120790039       0.000000000000
       266    1   0.000000       20.865000755199      23.166179509144       0.000000000000
       267    1   0.000000       19.260001232912      24.092827269961       0.000000000000
       268    1   0.000000       20.865000755199      26.872767049688       0.000000000000
       269    1   0.000000       22.469999282420      25.946120790039       0.000000000000
       270    1   0.000000       24.075000794840      23.166179509144       0.000000000000
       271    1   0.000000       22.469999282420      24.092827269961       0.000000000000
       272    1   0.000000       24.075000794840      26.872767049688       0.000000000000
       273    1   0.000000       25.680002307260      25.946120790039       0.000000000000
       274    1   0.000000       27.285000834481      23.166179509144       0.000000000000
       275    1   0.000000       25.680002307260      24.092827269961       0.000000000000
       276    1   0.000000       27.285000834481      26.872767049688       0.000000000000
       277    1   0.000000       28.889999361702      25.946120790039       0.000000000000
       278    1   0.000000       30.495000874122      23.166179509144       0.000000000000
       279    1   0.000000       28.889999361702      24.092827269961       0.000000000000
       280    1   0.000000       30.495000874122      26.872767049688       0.000000000000
       281    1   0.000000       32.099999401342      25.946120790039       0.000000000000
       282    1   0.000000       33.705002903896      23.166179509144       0.000000000000
       283    1   0.000000       32.099999401342      24.092827269961       0.000000000000
       284    1   0.000000       33.705002903896      26.872767049688       0.000000000000
       285    1   0.000000       35.310001431116      25.946120790039       0.000000000000
       286    1   0.000000       36.915002943537      23.166179509144       0.000000000000
       287    1   0.000000       35.310001431116      24.092827269961       0.000000000000
       288    1   0.000000       36.915002943537      26.872767049688       0.000000000000
       289    1   0.000000       38.520001470757      25.946120790039       0.000000000000
       290    1   0.000000       40.124999997978      23.166179509144       0.000000000000
       291    1   0.000000       38.520001470757      24.092827269961       0.000000000000
       292    1   0.000000       40.124999997978      26.872767049688       0.000000000000
       293    1   0.000000       41.730001510398      25.946120790039       0.000000000000
       294    1   0.000000       43.335000037619      23.166179509144       0.000000000000
       295    1   0.000000       41.730001510398      24.092827269961       0.000000000000
       296    1   0.000000       43.335000037619      26.872767049688       0.000000000000
       297    1   0.000000       44.939998564839      25.946120790039       0.000000000000
       298    1   0.000000       46.545003062459      23.166179509144       0.000000000000
       299    1   0.000000       44.939998564839      24.092827269961       0.000000000000
       300    1   0.000000       46.545003062459      26.872767049688       0.000000000000
       301    1   0.000000        0.000000000000      31.506003351828       0.000000000000
       302    1   0.000000        1.604999522287      28.726063572102       0.000000000000
       303    1   0.000000        0.000000000000      29.652710332140       0.000000000000
       304    1   0.000000        1.604999522287      32.432653114204       0.000000000000
       305    1   0.000000        3.210000039641      31.506003351828       0.000000000000
       306    1   0.000000        4.815000556995      28.726063572102       0.000000000000
       307    1   0.000000        3.210000039641      29.652710332140       0.000000000000
       308    1   0.000000        4.815000556995      32.432653114204       0.000000000000
       309    1   0.000000        6.420000079282      31.506003351828       0.000000000000
       310    1   0.000000        8.025000596636      28.726063572102       0.000000000000
       311    1   0.000000        6.420000079282      29.652710332140       0.000000000000
       312    1   0.000000        8.025000596636      32.432653114204       0.000000000000
       313    1   0.000000        9.630000118923      31.506003351828       0.000000000000
       314    1   0.000000       11.234999641210      28.726063572102       0.000000000000
       315    1   0.000000        9.630000118923      29.652710332140       0.000000000000
       316    1   0.000000       11.234999641210      32.432653114204       0.000000000000
       317    1   0.000000       12.840001153630      31.506003351828       0.000000000000
       318    1   0.000000       14.444999680851      28.726063572102       0.000000000000
       319    1   0.000000       12.840001153630      29.652710332140       0.000000000000
       320    1   0.000000       14.444999680851      32.432653114204       0.000000000000
       321    1   0.000000       16.049999203138      31.506003351828       0.000000000000
       322    1   0.000000       17.655000715558      28.726063572102       0.000000000000
       323    1   0.000000       16.049999203138      29.652710332140       0.000000000000
       324    1   0.000000       17.655000715558      32.432653114204       0.000000000000
       325    1   0.000000       19.260001232912      31.506003351828       0.000000000000