# LAMMPS data file

5 atoms
3 atom types

0.0 3.9100000858 xlo xhi
0.0 3.9100000858 ylo yhi
0.0 3.9100000858 zlo zhi

Masses

1 6.941    # Li
2 15.9994  # O
3 35.453   # Cl

Atoms  # full

1 1 1 0.0 1.955000043 0.0 0.0
2 1 1 0.0 0.0 1.955000043 0.0
3 1 1 0.0 0.0 0.0 1.955000043
4 1 3 0.0 1.955000043 1.955000043 1.955000043
5 1 2 0.0 0.0 0.0 0.0
