ITEM: TIMESTEP
0
ITEM: NUMBER OF ATOMS
10800
ITEM: BOX BOUNDS xy xz yz pp pp pp
-6.6445437701023025e-01 2.1656845437701239e+02 0.0000000000000000e+00
-5.8435811700901397e-02 2.1648835811700451e+01 0.0000000000000000e+00
-1.9061702000646719e-01 2.5950617020006881e+01 0.0000000000000000e+00
ITEM: ATOMS id type x y z c_peratom fx fy fz 
6 1 0.319799 0.823714 2.1917 -7.79911 0.200855 0.511828 -0.641361 
2166 1 0.0411153 0.759757 7.46181 -8.02514 1.05635 0.297498 -0.560948 
4326 1 0.441487 0.991096 12.5351 -8.01684 -0.368949 -0.966171 0.933653 
366 1 0.212056 4.55089 2.13324 -8.49521 -0.832051 -1.46732 0.457298 
2526 1 0.482356 4.23777 7.31797 -7.78404 -0.705606 0.401146 -0.240871 
4686 1 0.0803715 4.51445 12.6096 -7.76254 -0.586341 -0.20383 -0.111303 
726 1 0.270282 7.94427 2.22478 -7.62287 -0.0958983 -0.12592 -0.933558 
2886 1 0.278352 8.03542 7.40999 -8.15758 -0.35569 0.729992 -1.01738 
1443 1 2.20073 17.2648 0.0920333 -7.95245 -1.76039 -0.587151 -0.182383 
1086 1 0.306671 11.6396 2.29147 -7.60636 -0.0631321 0.75928 -0.815303 
3246 1 0.253694 11.545 7.41919 -7.96429 -0.0910512 0.649192 -0.345719 
5772 1 3.75582 15.3857 12.6002 -8.25239 -0.245521 -0.270059 0.051455 
1446 1 0.390527 15.3375 2.11375 -7.9395 -0.274933 -0.0137383 -0.528764 
3606 1 0.0860487 15.2479 7.37689 -8.52312 0.813808 -0.494475 0.0359451 
1809 1 5.82785 20.8521 0.125618 -7.47404 -0.738456 -0.66225 -0.14743 
1806 1 0.22865 18.9573 2.24203 -7.83484 -0.732255 -1.15073 -0.495229 
3966 1 0.25142 18.996 7.35109 -8.02721 0.0728617 -1.88505 0.469729 
6126 1 0.0955755 18.9384 12.5548 -7.54713 0.949493 0.628425 -1.03594 
12 1 3.8494 0.886591 2.14083 -8.14395 -0.49096 -0.631039 0.0226306 
2172 1 4.16433 0.799862 7.41765 -7.88588 -1.00437 -0.469512 0.262656 
4332 1 3.83806 0.940464 12.7418 -8.4652 0.814981 -0.0870144 0.114799 
372 1 4.1195 4.44017 2.05673 -7.64308 -0.370266 -1.59237 -0.0468094 
2532 1 3.90135 4.30168 7.425 -8.16204 -0.305279 0.392333 -1.24305 
4692 1 4.06397 4.39649 12.5807 -7.98253 -0.326126 2.06182 0.544376 
732 1 3.76672 8.02758 2.16034 -7.59404 1.77073 0.432675 -0.675613 
2892 1 3.83029 7.92093 7.24251 -7.42765 -0.501935 0.152449 0.205194 
5430 1 14.9011 11.5574 12.6513 -7.66622 -0.382259 0.694663 0.342381 
1092 1 3.72072 11.6158 2.10124 -7.60639 -0.0599116 -0.606881 0.620175 
3252 1 3.87498 11.6634 7.34988 -7.91691 -0.293671 0.36966 -0.15313 
5412 1 3.98174 11.5874 12.539 -7.71019 0.396108 1.73958 0.768781 
1452 1 3.8816 15.3338 2.29214 -7.486 0.570794 1.19273 -1.60583 
3612 1 3.903 15.2857 7.36886 -8.40513 -0.986404 0.121231 0.321072 
6132 1 3.90558 19.0504 12.6522 -8.41658 -0.114065 -0.611408 0.280981 
1812 1 4.00508 19.0765 2.27793 -8.26712 0.165549 -0.294796 -0.28582 
3972 1 3.72131 18.8288 7.5763 -7.78087 0.00680453 1.94429 -1.90234 
4350 1 14.8798 0.93388 12.6507 -7.57374 -0.25911 0.402737 0.0443391 
18 1 7.68302 0.92704 2.08039 -7.48927 0.269754 -0.861033 1.21941 
2178 1 7.34871 0.899401 7.46784 -7.89977 2.05746 -2.27929 -0.330945 
4338 1 7.50267 0.978812 12.57 -7.85584 0.793949 -0.871438 1.00378 
378 1 7.62665 4.45126 2.13374 -7.83555 -0.457417 -0.487849 0.686182 
2538 1 7.47082 4.36357 7.28508 -7.47434 -0.35022 1.57994 1.27443 
4698 1 7.54593 4.57448 12.5817 -7.66683 -1.06341 -0.389597 -0.482479 
738 1 7.42737 8.03781 2.27039 -7.85883 -0.292712 -0.261881 -0.492179 
2898 1 7.41771 8.02165 7.43691 -8.01609 -0.131971 0.340931 0.237765 
5058 1 7.69827 8.10361 12.505 -7.56529 -0.46033 1.18049 1.11947 
1098 1 7.68161 11.8107 2.19665 -7.13138 -1.36718 -1.39457 0.101355 
3258 1 7.35616 11.5946 7.37391 -8.042 -0.430339 1.30027 -0.146107 
729 1 5.50241 10.0245 0.129185 -7.22521 1.93395 -0.296818 -0.0359785 
1458 1 7.49947 15.1481 2.1791 -7.61171 -0.886609 0.137441 -0.537053 
3618 1 7.41674 15.4295 7.35491 -8.3283 -0.0336691 -0.579522 0.635453 
5778 1 7.61971 15.3505 12.6233 -8.40525 -0.623767 -0.243896 0.346972 
1818 1 7.54461 18.8549 2.25308 -8.38642 1.15459 0.566229 1.06282 
3978 1 7.50777 18.8329 7.21977 -7.43953 0.444528 0.169033 2.89977 
5766 1 0.527042 15.1416 12.6777 -7.82486 -0.857685 1.22555 -1.7311 
24 1 11.1932 0.863577 2.22245 -8.32088 0.882271 -0.84032 0.700492 
2184 1 11.2536 0.71215 7.54572 -7.91661 -1.52248 0.947282 -0.984179 
4344 1 10.8594 0.751322 12.6545 -8.29183 0.333676 0.404066 0.614487 
384 1 11.1936 4.4412 2.28463 -8.02893 -0.304527 -0.358772 -0.524193 
2544 1 11.0905 4.48304 7.34067 -7.76658 -0.248019 -0.0566182 1.2205 
4704 1 11.259 4.36318 12.6382 -7.85602 -0.867061 1.32938 -0.392215 
744 1 11.2258 8.1852 2.23195 -7.61081 -0.699073 -0.845635 0.509428 
2904 1 10.9478 8.0384 7.44047 -8.04532 -0.301985 -0.470834 -0.449099 
1449 1 5.62075 17.0473 0.0779068 -7.71754 0.203031 -0.217998 -0.168195 
1104 1 10.99 11.5189 2.20317 -7.29429 0.513723 0.777125 -1.30546 
3264 1 11.0383 11.6397 7.41844 -8.3392 0.246393 0.142486 -1.22167 
5424 1 11.4311 11.6409 12.4142 -7.24893 -0.647457 0.545362 0.101064 
1464 1 11.1125 15.249 2.18638 -7.73756 1.52414 -0.259774 -1.00864 
3624 1 11.067 15.2582 7.31931 -7.8191 -0.0252831 -1.44511 1.08819 
5784 1 11.0876 15.4217 12.6472 -7.72347 1.3445 -0.829569 0.356879 
1824 1 11.016 18.8413 2.18184 -7.52593 -1.10603 0.192148 -1.17191 
3984 1 11.2453 18.9456 7.32703 -7.92489 -0.646537 1.0072 0.844874 
5052 1 3.70738 8.11828 12.5437 -8.07878 0.606446 -0.440822 0.112084 
30 1 14.7229 0.800063 2.13099 -7.80852 0.0610906 -0.291996 0.333259 
2190 1 14.6735 0.90187 7.42076 -7.62753 0.79732 0.131142 0.174902 
723 1 1.88944 9.98869 0.0528847 -7.44087 -0.315857 -1.18772 0.721979 
390 1 14.727 4.55879 2.13978 -8.19881 0.421819 0.263694 0.74086 
2550 1 14.6027 4.36336 7.45361 -8.10284 0.911886 0.0632502 0.0335616 
4710 1 14.6802 4.36814 12.6832 -8.30002 -0.107861 0.20693 -0.0461344 
750 1 14.5988 8.11623 2.31138 -7.92347 1.26953 -1.11171 -0.9282 
2910 1 14.7856 7.96363 7.43454 -7.25621 -0.715963 0.838408 0.216548 
5070 1 14.7468 7.96169 12.7861 -7.78555 -0.197244 -0.474121 -1.7315 
1110 1 14.91 11.7526 2.27344 -7.92485 -0.584117 -0.891258 -1.42483 
3270 1 14.5991 11.5481 7.49227 -8.24298 0.149096 1.24347 -0.892696 
1089 1 5.6615 13.3767 0.0853753 -8.00987 -0.818012 1.02979 -1.56208 
1470 1 14.6832 15.1177 2.28267 -8.14368 -0.557633 0.545963 0.0592045 
3630 1 14.6198 15.2766 7.35398 -7.49184 -0.155981 0.825737 1.51318 
5790 1 14.4847 15.3378 12.6661 -7.79414 0.632645 0.766776 -0.0798529 
1830 1 14.9446 18.9027 2.28589 -7.65821 -1.28729 0.388298 -0.493252 
3990 1 14.6991 18.8169 7.46033 -7.72899 -0.0802335 0.00553777 -0.68144 
6150 1 14.6692 19.0629 12.6911 -8.0322 -0.284793 -1.89766 -0.0193598 
5 1 0.554514 0.829812 4.80907 -8.10014 -0.468364 0.958804 0.734122 
2165 1 0.101077 0.811097 10.0356 -7.88375 1.33302 -0.818209 -0.25266 
365 1 0.060923 4.58904 4.75777 -8.20506 2.37911 -0.365929 -0.0544223 
2525 1 0.325616 4.37833 9.99457 -7.90142 -0.771228 0.577801 0.0582473 
725 1 0.299194 8.2012 4.69562 -7.98112 0.194003 -0.378825 2.06226 
2885 1 0.156878 7.89019 10.013 -7.75811 -0.705485 0.284728 -0.376954 
1085 1 0.10974 11.5689 4.79213 -8.17197 1.07998 -0.196207 1.44902 
3245 1 0.329916 11.6725 10.0162 -7.55086 -1.19973 0.0677471 0.0615979 
1445 1 0.17786 15.3508 4.7282 -7.99085 1.37257 0.243607 0.0656054 
3605 1 0.142844 15.3136 9.95194 -8.01075 1.15074 0.28125 0.288684 
1805 1 0.0619502 18.9195 4.7728 -7.79696 0.115145 -1.31561 0.457331 
3965 1 0.254741 18.8878 9.91194 -7.96056 -0.162545 0.116376 0.428373 
11 1 3.94522 0.536074 4.80194 -7.93184 -1.40169 2.24196 -0.575932 
2171 1 3.88848 0.766758 10.0797 -8.01381 -0.430711 0.845526 0.188675 
371 1 3.85649 4.54259 4.66682 -7.94133 1.19893 0.111004 0.589544 
2531 1 3.82088 4.30535 9.93955 -8.08209 0.673635 0.591247 0.81142 
731 1 3.88147 8.13845 4.67488 -7.17135 -0.824129 -0.0321872 -0.325901 
2891 1 3.87828 8.1237 9.85439 -7.65291 -0.454818 -0.686065 0.480624 
1091 1 3.87321 11.7942 4.74306 -8.1346 0.490681 -0.214626 0.303854 
3251 1 3.82134 11.6097 10.0451 -8.08115 0.512136 0.69475 -1.04161 
1451 1 3.71167 15.1385 4.7296 -7.4495 0.530489 0.187266 1.35498 
3611 1 3.71005 15.1999 10.0108 -8.35428 1.1619 0.291586 -0.480403 
1811 1 3.93891 18.8087 4.90438 -7.9154 0.0807349 1.0918 -0.316619 
3971 1 3.85594 18.9296 9.96772 -7.47635 -0.314226 0.100322 1.89724 
17 1 7.53347 0.849048 4.79917 -8.32613 -0.833539 0.505504 0.354882 
2177 1 7.45196 0.724694 10.06 -7.89351 1.39692 0.399903 -0.460086 
377 1 7.42552 4.55156 4.73971 -7.1651 -0.26339 -0.89482 -0.767428 
2537 1 7.57691 4.16987 9.97353 -8.03779 -1.52205 2.10397 -0.497771 
737 1 7.558 8.10578 4.89388 -8.00361 0.420044 0.251956 -0.241378 
2897 1 7.24179 7.96041 10.0188 -7.49015 0.799879 -0.269348 -1.01032 
1097 1 7.48933 11.7094 4.77433 -8.28481 -0.982149 -0.0571302 1.12923 
3257 1 7.47052 11.6817 10.0258 -8.361 0.608639 -0.075649 -0.0248208 
1457 1 7.36323 15.3466 4.72624 -7.77037 1.55183 -0.209433 0.547063 
3617 1 7.36063 15.3246 9.97165 -8.15175 -1.02946 0.0720435 0.129061 
1817 1 7.59954 18.8438 4.89722 -7.66867 -0.475477 -0.120485 -3.15667 
3977 1 7.49731 18.9295 9.83562 -8.18325 -0.931989 -0.399427 0.977397 
23 1 11.0774 0.717959 4.86783 -8.44167 -0.178589 0.88135 0.0680137 
2183 1 10.9996 0.844186 10.0887 -7.75957 -0.651455 -0.113413 -0.0968813 
383 1 11.1804 4.27608 4.85337 -7.68031 -0.667485 1.56298 -0.806082 
2543 1 11.0796 4.60694 9.95232 -8.42208 0.869816 -0.131056 0.872853 
743 1 11.1689 8.05689 4.76686 -8.37961 -0.968953 -0.752437 1.25627 
2903 1 11.0674 7.99789 10.0775 -7.85077 1.07174 -0.297765 -1.02803 
1103 1 11.0971 11.8195 4.71589 -7.61672 0.315772 0.415053 1.30358 
3263 1 10.9121 11.5368 9.85972 -7.97647 0.144012 -0.340137 1.30016 
1463 1 11.253 15.2769 4.74761 -7.53912 0.263743 -0.844467 0.194506 
3623 1 11.0855 15.2392 10.0446 -7.6361 -0.343168 0.421983 -0.568043 
1823 1 11.0514 19.1104 4.68601 -7.68471 -0.679895 -0.390793 1.13966 
3983 1 11.2013 18.9931 10.1172 -8.24032 -0.584798 -0.412788 -0.817682 
29 1 14.6418 0.706888 4.75905 -7.78576 0.840508 0.180813 -0.0332441 
2189 1 14.6074 1.02573 10.1379 -7.92362 1.79426 -0.547388 -1.22613 
389 1 14.7613 4.44448 4.82065 -8.02575 0.052536 -0.392452 -0.192269 
2549 1 14.5782 4.34154 10.0434 -8.1621 0.82653 0.830849 0.202446 
749 1 14.7346 8.16754 4.93466 -7.81745 -0.704242 0.211856 -1.0867 
2909 1 14.7624 8.13727 10.0277 -8.28391 0.516481 -0.847303 0.908672 
1109 1 14.7652 11.7121 4.80417 -8.04247 1.05614 -1.71318 0.953692 
3269 1 14.6983 11.6367 10.0054 -7.58272 -0.869314 -0.0356282 0.356298 
1469 1 14.6705 15.346 4.89981 -7.54286 -1.04765 -0.0485447 -1.9839 
3629 1 14.7102 15.3333 10.0995 -7.5996 -0.775653 -0.793983 -0.917626 
1829 1 14.7271 18.759 4.84737 -8.07054 0.473868 0.0877106 0.292964 
3989 1 14.5626 18.8783 10.0713 -7.63217 -0.0956297 0.901003 0.380717 
2 2 0.262618 2.68288 1.21345 -28.6226 -0.264893 -0.718152 -0.502514 
2162 2 0.309287 2.46933 6.37656 -28.7325 -0.0781139 0.582376 0.18721 
4322 2 0.272694 2.64696 11.6069 -29.2855 -0.836547 1.70451 -0.62128 
362 2 0.138737 6.21657 1.08672 -29.008 0.768642 1.34863 -0.273508 
2522 2 0.173638 6.19548 6.3799 -28.9073 1.3782 -0.411208 0.544539 
4682 2 0.137574 6.27798 11.5555 -29.5263 0.59699 0.017807 0.0723952 
722 2 0.166131 9.74542 1.14581 -29.7694 0.402268 0.811332 1.098 
2882 2 0.31873 9.90285 6.32138 -28.8896 -0.846358 -1.4493 0.285598 
5042 2 0.167793 10.0079 11.6275 -29.3965 0.795336 -1.61051 -0.608505 
1082 2 0.302315 13.4 1.15296 -29.1877 0.170042 0.131063 0.65751 
3242 2 0.334037 13.3235 6.36644 -28.7041 -0.634896 0.788209 0.54996 
5402 2 0.234395 13.4354 11.608 -29.28 -0.564154 0.754481 -0.856394 
1442 2 0.328095 17.1409 1.07375 -29.0022 -0.217076 0.26672 0.414466 
3602 2 0.150832 16.9375 6.31937 -28.6548 0.695694 1.85195 -0.468525 
5762 2 0.253714 17.076 11.4961 -29.3001 -0.750669 0.0838833 0.938359 
1802 2 0.182186 20.7388 1.20866 -29.2541 0.95889 -0.51403 0.57945 
3962 2 0.337693 20.6773 6.37998 -29.2704 -0.87924 0.604676 -0.832341 
6122 2 0.191459 20.8159 11.6003 -29.1897 0.00512963 -0.785845 0.171174 
8 2 3.79899 2.59139 0.955248 -28.8754 2.18597 0.900677 1.4924 
2168 2 3.85285 2.4412 6.51129 -28.4051 0.586298 1.27448 -0.75324 
4328 2 3.86343 2.67923 11.6463 -28.9447 -0.49962 -0.246175 -0.460571 
368 2 3.77067 6.16462 1.09608 -29.7205 -0.0433598 1.09588 0.218209 
2528 2 3.86596 6.03596 6.20111 -29.1867 0.162272 1.69799 1.80523 
4688 2 3.77612 6.19733 11.448 -28.8042 0.149066 0.829174 1.37045 
728 2 3.84557 9.86891 1.12965 -29.9136 -1.66605 -0.504562 -0.819533 
2888 2 3.77896 9.78726 6.27741 -29.3148 1.31692 -0.469058 1.62723 
5048 2 3.85469 9.92171 11.5111 -29.6249 -0.235023 -1.30356 -0.391 
1088 2 3.79648 13.4625 1.16191 -29.8048 -0.0634907 -0.20238 -0.632742 
3248 2 3.90274 13.5134 6.32675 -28.9845 -1.0097 -0.353226 -0.644398 
5408 2 3.79956 13.457 11.5498 -29.0779 -0.630883 0.142471 0.722352 
1448 2 3.91012 17.166 1.1578 -29.2705 0.250375 -0.0622345 0.31152 
3608 2 3.80674 17.1881 6.41731 -29.3876 0.41656 -0.882618 -1.03968 
5768 2 3.82882 17.0657 11.4541 -28.4826 -0.442133 1.27152 0.799565 
1808 2 3.87098 20.7561 1.10798 -29.0673 1.03111 0.0951832 -0.240149 
3968 2 3.93219 20.6585 6.32561 -29.2807 0.252128 0.0903767 0.653892 
6128 2 3.84923 20.7877 11.6601 -28.8643 0.659032 0.259655 -0.582646 
14 2 7.47286 2.7402 1.10209 -29.7653 -0.00255218 -1.5234 -0.0797077 
2174 2 7.3909 2.60324 6.4984 -29.4133 0.743864 0.625905 -1.35071 
4334 2 7.50644 2.72663 11.5853 -29.4828 0.0303194 -0.0175245 0.278876 
374 2 7.4201 6.25746 1.1326 -29.3758 -0.637973 0.364325 0.501568 
2534 2 7.53193 6.24298 6.38553 -29.719 -0.946966 -0.686869 -0.843334 
4694 2 7.42256 6.34397 11.577 -29.3233 0.0529415 0.18422 0.584112 
734 2 7.36089 9.77319 1.13357 -29.5905 0.00108776 1.71359 0.604995 
2894 2 7.46862 9.83503 6.41279 -29.0121 -0.13543 -0.296651 -0.889551 
5054 2 7.46353 9.93408 11.5481 -29.2835 -0.646165 -0.266781 0.590247 
1094 2 7.43963 13.3893 1.04467 -29.5027 0.00863206 0.276406 1.34059 
3254 2 7.47403 13.576 6.39689 -28.7855 0.190516 -0.60333 0.0951452 
5414 2 7.3433 13.5761 11.621 -28.8636 1.27464 -0.523528 -0.63272 
1454 2 7.58017 17.0312 1.13363 -29.3697 -0.968161 -0.482992 0.139797 
3614 2 7.45309 17.0818 6.27602 -29.2761 -0.443482 0.739539 -0.679134 
5774 2 7.37395 17.0327 11.5959 -28.5155 0.498348 1.10781 -0.578716 
1814 2 7.55075 20.6525 1.37676 -29.086 -0.81056 1.47859 -2.07702 
3974 2 7.42213 20.721 6.40702 -29.2344 -0.221589 -0.270959 0.00850967 
6134 2 7.49821 20.7084 11.6423 -29.2971 -1.07219 0.545928 0.596813 
20 2 11.097 2.52204 1.19937 -29.0582 -0.0295086 1.87457 0.188234 
2180 2 11.0995 2.53567 6.38821 -29.4302 0.135097 0.930104 0.142237 
4340 2 11.0727 2.55222 11.6874 -28.8984 0.118649 0.677563 0.209172 
380 2 11.1185 6.28017 1.29391 -29.3785 -0.737202 0.493911 -0.496104 
2540 2 11.1002 6.20592 6.32269 -28.8443 -0.295648 0.187982 0.86644 
4700 2 10.9952 6.20831 11.5108 -29.0161 0.660681 0.503962 1.40021 
740 2 10.9549 9.83513 1.13217 -29.6867 0.605206 0.407468 -0.139159 
2900 2 11.1387 9.79085 6.40624 -28.7965 -0.522931 0.30155 -0.151826 
5060 2 11.0286 9.80861 11.5626 -29.6415 0.805073 0.634596 0.590115 
1100 2 10.9414 13.3951 1.15365 -29.5547 0.550849 -0.467048 0.261386 
3260 2 11.1748 13.4199 6.35567 -28.9685 -0.364101 0.601386 -0.596744 
5420 2 11.1416 13.5913 11.7107 -29.4972 -1.31117 -0.501159 0.0145023 
1460 2 11.1115 17.0251 1.18417 -29.468 0.849346 0.515275 -0.14413 
3620 2 11.0566 17.1044 6.48686 -29.5487 0.675056 -0.277786 -0.55751 
5780 2 11.0177 17.2768 11.7452 -29.1484 0.138058 -1.17847 -1.05909 
1820 2 11.1065 20.719 1.31774 -29.0748 -0.414148 -0.92373 -1.10229 
3980 2 11.0534 20.7831 6.32528 -29.3379 0.837264 -1.03489 0.825304 
6140 2 11.0845 20.7607 11.6054 -28.9196 0.0655634 0.0528245 -0.236845 
26 2 14.7045 2.78328 1.22873 -28.9885 -0.685603 -1.35607 0.202662 
2186 2 14.6304 2.57146 6.38754 -29.1984 0.403799 0.213028 -0.541401 
4346 2 14.5777 2.63852 11.5711 -29.1512 0.872001 0.128003 0.539223 
386 2 14.6624 6.29544 1.17925 -28.9155 0.115939 1.32263 0.00970146 
2546 2 14.7247 6.14028 6.48811 -29.4143 0.294054 1.30824 -0.653935 
4706 2 14.7353 6.27329 11.6591 -28.4879 -1.32619 -0.552072 1.05752 
746 2 14.6246 9.8758 1.0252 -29.167 -0.117237 -0.111225 1.20703 
2906 2 14.7303 9.99605 6.33169 -28.8329 -0.526524 -2.49113 0.522622 
5066 2 14.7644 9.76875 11.596 -29.7732 -0.082923 0.903445 0.450378 
1106 2 14.6657 13.4875 1.1042 -29.0779 0.296734 -1.09912 0.182473 
3266 2 14.6942 13.5254 6.4406 -29.3018 0.802796 -0.429116 -0.472066 
5426 2 14.6636 13.4557 11.5992 -29.5072 0.0611249 -0.255745 0.506543 
1466 2 14.7789 17.1379 1.25738 -29.5111 -0.750291 -0.425749 -0.0604286 
3626 2 14.692 17.0412 6.21195 -29.6262 -0.353736 -0.201387 1.90128 
5786 2 14.5552 17.117 11.5866 -29.2523 1.76677 0.236196 -0.212736 
1826 2 14.6935 20.7219 1.07641 -28.9106 0.267282 -0.811359 1.02377 
3986 2 14.7435 20.6514 6.48067 -29.7284 -0.428437 0.830491 0.348486 
6146 2 14.587 20.8391 11.6467 -29.4724 1.76296 -0.19888 0.104837 
1 2 2.18685 0.981099 3.55085 -28.77 -0.129045 -2.32068 1.43888 
2161 2 2.04792 0.73988 9.20049 -28.7195 -0.41306 0.831531 -0.539723 
361 2 2.1014 4.4545 3.81523 -28.475 -1.0789 0.479796 -0.806826 
2521 2 2.05468 4.34381 8.96967 -29.3961 -0.120015 0.0433456 -0.783219 
721 2 2.07706 7.91445 3.7478 -29.7361 0.277561 1.17157 -1.65992 
2881 2 1.95681 8.05364 8.99951 -29.6985 0.62004 -0.392412 -0.0552279 
1081 2 2.01689 11.6502 3.72222 -29.6322 0.0317985 -0.0712149 -0.918435 
3241 2 2.16802 11.6388 8.95558 -29.2788 -1.57654 0.0378467 0.133983 
1441 2 2.02088 15.327 3.6652 -29.4624 0.303216 -0.0395448 -0.0465622 
3601 2 2.04712 15.3302 8.90491 -28.4231 -1.08087 -1.09098 0.297591 
1801 2 2.08411 18.9364 3.85064 -29.4442 -0.794097 0.595682 -0.288926 
3961 2 1.9756 18.9494 8.9462 -29.2893 1.16953 -0.291557 -0.350503 
7 2 5.79085 0.860785 3.7644 -28.9378 -1.18933 -0.369179 0.0285509 
2167 2 5.68763 0.864965 9.10727 -29.512 -0.102532 -0.895853 -0.609881 
367 2 5.66705 4.36006 3.69008 -29.557 0.810162 0.395561 0.147236 
2527 2 5.73639 4.47937 8.98043 -28.852 -0.241532 -0.90094 0.269101 
727 2 5.6993 8.1312 3.78577 -29.6345 0.165893 -1.39083 0.134476 
2887 2 5.6202 8.01566 8.79227 -29.5544 -0.834146 1.02023 0.704213 
1087 2 5.62511 11.6963 3.92132 -28.5586 0.775044 0.0944679 -1.96708 
3247 2 5.66007 11.6714 8.89462 -29.1568 -0.267786 -0.333637 0.678819 
1447 2 5.66747 15.1916 3.69301 -29.6773 -1.0732 1.02748 -0.249666 
3607 2 5.53033 15.3875 8.85074 -28.6781 0.760174 -0.593859 0.523294 
1807 2 5.64664 18.9256 3.66835 -29.0182 0.756754 -0.270905 1.32772 
3967 2 5.59854 18.9567 8.9404 -29.2159 0.14827 0.0987767 0.192934 
13 2 9.27535 0.815868 3.85871 -28.8847 0.366879 0.788482 -0.382961 
2173 2 9.21792 0.789642 9.02622 -28.8136 0.374139 0.620892 0.475482 
373 2 9.42463 4.47697 3.70981 -29.4964 -1.74071 -0.369335 1.01186 
2533 2 9.43342 4.3946 8.99521 -29.0869 -2.02618 -0.160739 -1.20363 
733 2 9.31853 8.07109 3.82656 -28.9429 -0.483189 0.171313 -0.88178 
2893 2 9.18638 8.0032 9.04663 -29.2794 0.116894 -0.0292999 -0.453719 
1093 2 9.24565 11.6831 3.81401 -30.0317 1.01264 -0.180933 -1.45001 
3253 2 9.2269 11.5814 8.9108 -28.5187 -0.751875 1.35953 -0.27509 
1453 2 9.31607 15.3373 3.94848 -29.5854 0.293598 -1.80081 -2.0452 
3613 2 9.18064 15.2867 9.02345 -29.2815 0.699686 0.0494779 0.136936 
1813 2 9.32696 18.8169 3.72234 -28.854 0.123492 -0.102272 0.402094 
3973 2 9.27094 18.9598 9.03043 -28.5918 1.1629 -1.45478 -0.21865 
19 2 12.8357 0.731463 3.72966 -29.0782 1.09875 1.00707 0.627592 
2179 2 12.8089 0.955607 9.09741 -29.7022 0.511235 -1.15929 -1.20127 
379 2 12.9195 4.44917 3.8623 -29.291 0.59841 -0.558774 -0.719428 
2539 2 12.9364 4.50304 8.97387 -28.7888 -0.957012 -0.885808 -0.419876 
739 2 12.9181 8.15525 3.74548 -29.3508 0.65031 0.0468023 -0.0935691 
2899 2 12.9425 8.01107 9.07003 -29.0221 -0.286886 0.675847 -0.105358 
1099 2 12.9972 11.6852 3.76118 -29.3407 -1.08092 -0.639882 0.0152612 
3259 2 12.7952 11.5873 8.98177 -29.1543 0.904162 0.103898 0.837895 
1459 2 12.9029 15.1 3.65621 -29.0501 0.392922 1.68686 0.622509 
3619 2 12.72 15.2243 9.04979 -29.2809 2.19245 1.22202 -0.582704 
1819 2 12.9924 18.9211 3.95837 -29.336 -1.54063 -0.797242 -0.754627 
3979 2 12.9638 18.9184 8.88375 -29.5472 -0.786934 -0.214978 0.0539132 
25 2 16.4686 0.79202 3.78344 -28.6858 -0.533755 -0.252321 0.8568 
2185 2 16.4379 0.756058 9.03529 -29.2711 0.0528045 0.57251 0.0423028 
385 2 16.6523 4.44936 3.77227 -28.8475 -1.46412 0.693807 0.0955426 
2545 2 16.4757 4.48537 9.20993 -28.634 0.388706 -1.13926 -1.59908 
745 2 16.5291 8.08706 3.91088 -29.1132 0.239186 -0.86531 -0.336919 
2905 2 16.5613 8.09088 8.9274 -29.0344 -0.104265 -1.11258 0.216403 
1105 2 16.5529 11.5973 3.69985 -29.4055 0.095728 0.728261 -0.0902369 
3265 2 16.4576 11.6509 8.97579 -29.3333 0.308039 0.343424 1.13365 
1465 2 16.6244 15.1914 3.81861 -29.4531 -1.10454 -0.848668 -0.277988 
3625 2 16.4322 15.2013 8.8909 -29.548 -0.264504 1.996 0.732478 
1825 2 16.5331 18.6629 3.7674 -29.4725 0.00712319 2.04098 -0.165209 
3985 2 16.4222 18.861 8.99521 -29.6783 0.131198 -0.297994 0.324963 
3988 1 16.3669 20.7014 8.11078 -7.5818 0.0998365 -0.346409 -1.2058 
2163 1 2.24731 2.8092 5.26688 -8.43939 -1.28471 -1.2212 0.633812 
4323 1 2.02815 2.59214 10.5194 -7.99013 0.501994 -0.998805 0.333885 
363 1 2.02718 6.13926 0.109425 -7.48057 -0.709273 0.288941 -1.27635 
2523 1 2.13982 6.36371 5.18218 -8.43159 -2.15749 -1.30244 1.37663 
4683 1 2.06832 6.30666 10.5413 -7.83433 -0.0427529 -0.644482 0.134593 
3 1 2.09348 2.5495 0.115174 -8.25927 -1.84194 -0.544692 -0.818864 
2883 1 2.15411 10.0029 5.3082 -8.03838 -1.53692 0.0403216 0.428687 
5043 1 1.98526 9.82825 10.5642 -7.61187 -0.1059 -0.580349 0.110872 
1083 1 1.88258 13.2958 -0.0744288 -7.35567 0.679631 1.70209 1.11643 
3243 1 1.91397 13.3709 5.15558 -8.03845 -0.0216253 0.239105 0.42363 
5403 1 1.97088 13.4282 10.5291 -7.85351 0.767216 0.642196 -0.0766002 
1095 1 9.19727 13.4823 0.0257424 -8.15006 0.653411 0.0647033 -0.445267 
3603 1 2.07155 17.1605 5.31161 -7.94586 -1.4187 -0.409538 -0.496127 
5763 1 2.04366 17.1054 10.3906 -8.38504 -0.118738 -0.186192 1.06929 
1803 1 2.10168 20.7023 0.164406 -8.02353 -0.498683 0.359088 -0.378541 
3963 1 2.10873 20.5222 5.42503 -7.77392 -0.198302 -0.526126 0.143658 
6123 1 2.13452 20.7355 10.5401 -8.19316 -2.06089 -0.085644 1.00386 
9 1 5.70257 2.6298 0.0663912 -7.90222 -1.08133 1.31607 -0.793339 
2169 1 5.59588 2.63685 5.28551 -8.37026 -0.128518 -0.306853 0.528504 
4329 1 5.6411 2.5236 10.7798 -7.9295 0.184103 0.42291 -1.03548 
369 1 5.44982 6.33884 0.0664256 -7.66446 1.25188 -0.612799 0.935224 
2529 1 5.60174 6.36619 5.39929 -7.32405 1.23833 -0.226742 0.405973 
4689 1 5.5698 6.14577 10.6539 -8.18342 0.672648 -1.17949 -0.936882 
1828 1 16.5039 20.7718 2.77746 -7.81757 1.37418 0.602619 -0.0745734 
2889 1 5.58454 9.72104 5.3503 -8.08687 1.60114 2.27128 -0.254569 
5049 1 5.67544 9.85625 10.5007 -7.361 0.180533 0.919755 0.291573 
6144 1 10.9982 19.087 12.7012 -8.05154 1.01353 -0.164028 -0.427966 
3249 1 5.70991 13.5865 5.32393 -8.322 0.0329146 -1.13824 -0.29554 
5409 1 5.57438 13.4601 10.6055 -8.07524 0.470917 0.0929284 -0.816884 
3628 1 16.4945 17.1125 7.90682 -7.72287 0.798034 -0.603494 -0.50669 
3609 1 5.58117 17.0032 5.293 -7.40377 0.207987 0.0482027 0.104203 
5769 1 5.53059 17.0973 10.408 -8.39271 1.13872 -0.418972 1.27095 
381 1 12.8556 6.28799 0.255186 -7.92015 -0.689598 -0.168517 -0.945354 
3969 1 5.72294 20.6691 5.26008 -7.75403 0.937046 -0.84174 -0.663401 
6129 1 5.66953 20.7608 10.5549 -7.89255 -0.14999 -1.1827 0.243721 
15 1 9.32729 2.7579 0.320541 -7.47428 0.171584 0.416704 -0.0953885 
2175 1 9.26917 2.75835 5.55611 -7.47644 -0.353398 -1.42253 -0.825139 
4335 1 9.34654 2.64449 10.6246 -7.75022 0.55839 -0.342175 0.490113 
1468 1 16.4532 16.903 2.68739 -7.74726 0.769685 -0.778405 0.334292 
2535 1 9.26319 6.15854 5.32182 -8.2314 2.03754 1.07335 -0.829788 
4695 1 9.19877 6.34095 10.5077 -8.16832 -0.21931 -1.21967 0.341782 
735 1 9.11206 9.8233 0.121386 -8.03028 0.398815 -0.266061 -0.953903 
2895 1 9.38714 9.96908 5.3286 -7.95816 -0.329244 -0.601462 0.126191 
5055 1 9.20411 9.571 10.5879 -8.20979 -0.257198 1.68591 -0.920166 
6138 1 7.39876 18.8611 12.5769 -7.92181 0.00137201 -0.583073 -0.826936 
3255 1 9.30355 13.6563 5.37633 -8.13963 -0.509514 -0.436775 0.0889474 
5415 1 9.24019 13.6834 10.62 -7.48866 -0.406511 -1.42065 -0.0522235 
1455 1 9.40412 17.0123 0.0758356 -7.98425 -0.720426 0.107997 -0.103956 
3615 1 9.36383 16.9311 5.25342 -8.23619 -0.199937 1.34918 0.627114 
5775 1 9.25528 17.0393 10.5464 -8.18071 -0.12348 1.18115 0.20656 
1815 1 9.17355 20.8185 0.24033 -7.93334 1.1211 -1.02177 0.218054 
3975 1 9.20753 20.8355 5.552 -7.76879 0.0104121 -0.0423248 -0.366912 
6135 1 9.25919 20.641 10.7618 -8.14134 0.0662035 0.0107578 -0.863789 
21 1 12.8925 2.73186 0.139661 -8.22045 -0.471409 -0.711353 -0.133252 
2181 1 12.8792 2.54032 5.24722 -7.72108 0.690638 -0.284674 0.495128 
4341 1 12.7988 2.61313 10.577 -8.12335 -1.3284 0.855451 -0.234826 
1461 1 13.0053 17.0666 0.2058 -7.6352 -1.09877 -0.954655 0.0357982 
2541 1 12.9013 6.17578 5.44561 -8.02702 0.304332 0.232386 -0.540817 
4701 1 12.9774 6.26565 10.6866 -8.27971 -0.28328 0.440384 -0.136479 
741 1 12.8502 9.86461 -0.0731448 -8.04387 0.302669 0.521388 0.539974 
2901 1 12.8509 9.9579 5.30187 -8.28678 0.563978 0.194361 0.261064 
5061 1 12.9223 9.80627 10.6032 -7.79263 -0.631594 0.0976552 -0.863466 
1101 1 12.8213 13.2209 0.168786 -7.64034 -0.155298 0.247604 0.193832 
3261 1 13.0688 13.3926 5.32328 -7.98681 -1.80652 0.365392 0.202418 
5421 1 12.7962 13.3876 10.5951 -8.16745 0.899475 0.259749 -0.103314 
5064 1 11.0444 8.1016 12.6243 -7.87106 -0.0696438 -1.21324 0.872771 
3621 1 12.7708 17.2399 5.46712 -7.53462 0.616907 0.0779182 -1.02896 
5781 1 12.9082 17.0546 10.5964 -7.56713 -2.14766 -0.0268035 0.788844 
1821 1 12.8164 20.6315 0.152639 -8.03014 1.33755 0.657177 0.874265 
3981 1 12.9224 20.6914 5.53423 -7.76396 0.416873 -0.530631 -1.01087 
6141 1 12.8555 21.0053 10.7028 -7.72354 0.259686 -0.925292 -0.395617 
27 1 16.4443 2.78632 0.276127 -8.00311 0.128563 -0.286492 -0.0344639 
2187 1 16.5142 2.54721 5.37694 -8.19506 0.991417 -0.28545 0.356537 
4347 1 16.5231 2.84204 10.6809 -7.94557 0.236127 0.131287 0.0482034 
387 1 16.4757 6.39577 0.111248 -8.2751 -0.192673 -1.12121 0.210326 
2547 1 16.496 6.29036 5.37635 -7.99317 0.627799 0.254419 -0.252974 
4707 1 16.4294 6.16009 10.6984 -8.5793 0.776842 -0.305169 -2.39261 
747 1 16.3672 9.64933 0.128607 -7.5028 0.762824 0.312366 1.20073 
2907 1 16.6469 9.84178 5.47511 -8.11976 -3.12545 0.555466 -2.0873 
5067 1 16.6009 9.92665 10.5708 -7.74272 0.204716 -0.444683 -0.914368 
1107 1 16.6347 13.4661 0.260323 -8.04676 -1.47646 0.0653794 -1.39781 
3267 1 16.5073 13.5626 5.31328 -7.50131 -0.564628 0.0873661 1.16538 
5427 1 16.3891 13.4771 10.5381 -7.73405 1.38953 -0.282127 0.59488 
1467 1 16.4253 16.9347 0.165916 -7.70189 1.50497 -0.524451 -0.576436 
3627 1 16.5203 16.9155 5.2151 -8.28076 2.022 0.728204 0.793557 
5787 1 16.4555 17.2178 10.5416 -7.70581 0.642611 -0.160764 0.64119 
1827 1 16.5413 20.5728 0.113119 -8.00894 -0.45781 0.658472 1.00783 
3987 1 16.4493 20.5488 5.4616 -7.49587 0.150515 0.544949 -0.265103 
6147 1 16.3717 20.6769 10.5386 -7.6722 0.204642 0.661565 0.339638 
4 1 2.08277 2.71351 2.68759 -8.57817 -0.373127 1.30094 -0.578059 
2164 1 2.1067 2.4051 7.95065 -8.20387 0.274157 -0.875459 -0.655735 
364 1 2.19439 6.10835 2.60109 -7.58879 -0.721926 -0.265837 1.25189 
2524 1 1.97266 6.1853 8.00516 -7.61244 0.501681 -0.182561 -1.17991 
724 1 1.99284 9.77871 2.75268 -7.26042 0.301085 0.179968 -0.363552 
2884 1 2.06412 9.85541 7.99052 -7.96387 0.488936 -0.604134 -1.07536 
1084 1 2.12462 13.5661 2.4909 -7.78867 -0.897583 -0.934408 0.878616 
3244 1 2.04805 13.4003 7.81833 -8.48701 0.0351196 1.42862 0.104716 
1444 1 2.18653 17.2505 2.687 -7.99181 -0.517405 -0.364023 0.00113238 
3604 1 1.96793 17.0193 7.82161 -8.09073 -0.76427 -0.29155 0.311981 
1804 1 2.05272 20.7788 2.7698 -7.60302 0.635662 -0.630587 0.0908184 
3964 1 2.13004 20.8423 8.01648 -8.07985 -0.527371 0.145902 -1.06855 
10 1 5.72656 2.49023 2.66125 -7.79749 0.542299 1.45535 0.429352 
2170 1 5.83394 2.64011 8.07104 -7.7504 -1.73393 0.975695 0.557242 
370 1 5.76058 6.18467 2.87126 -7.42662 -0.0128266 1.19625 -1.4934 
2530 1 5.65566 6.20182 7.99002 -7.98313 0.35855 -0.911029 0.0540184 
730 1 5.81193 9.98515 2.72797 -8.23423 -0.902658 -0.286714 0.354327 
2890 1 5.52246 9.87535 7.92999 -7.70306 0.600937 -0.629446 -0.38901 
1090 1 5.47162 13.3878 2.60465 -7.79815 1.29159 -0.200842 1.4343 
3250 1 5.61505 13.4891 7.91459 -8.28445 0.626039 0.340831 0.475628 
1450 1 5.78726 17.147 2.68013 -7.81784 -0.571617 -0.760475 -0.173544 
3610 1 5.52496 17.1845 7.88907 -7.81152 0.94942 -0.255874 -0.286879 
1810 1 5.87608 20.871 2.667 -8.15883 -0.230314 -1.02059 0.821183 
3970 1 5.75942 20.6539 7.7979 -7.89859 -0.367593 -0.958596 1.39915 
16 1 9.4273 2.60372 2.94352 -7.61685 0.195413 0.47325 0.0522408 
2176 1 9.29659 2.58058 8.05916 -7.88434 0.896262 -0.808481 -0.0762045 
376 1 9.35422 6.28905 2.63688 -7.9876 0.951997 0.416251 1.84657 
2536 1 9.15869 6.19623 7.9471 -7.85006 0.407479 0.0704626 0.193753 
736 1 9.24033 9.78859 2.73914 -7.39966 -0.472054 -0.483592 0.213284 
2896 1 9.08429 9.88652 7.86304 -8.1028 1.02205 -1.04106 1.3833 
1096 1 9.40166 13.4586 2.72137 -7.10954 0.427718 1.11132 0.706155 
3256 1 9.07346 13.4747 7.92908 -8.15005 0.511338 -0.145044 0.653684 
1456 1 9.32878 16.9402 2.67866 -7.88837 -0.845693 1.34593 0.0152307 
3616 1 9.45159 17.0929 7.88224 -8.0305 -1.01699 0.810142 1.17451 
1816 1 9.45639 20.7973 2.8938 -8.39734 -1.29509 -1.30442 -0.482514 
3976 1 9.37703 20.6893 8.1173 -8.33358 -0.89305 0.509752 -0.413931 
22 1 13.0714 2.63104 2.70327 -7.69148 -0.518313 0.127473 0.31292 
2182 1 12.8023 2.68961 7.85401 -7.87156 -0.145852 -0.226155 1.07827 
382 1 12.838 6.29704 2.82256 -7.80348 0.404476 -0.577064 0.712318 
2542 1 12.9067 6.29792 8.02621 -8.18091 -0.278929 -0.210759 0.195129 
742 1 12.9967 9.95855 2.66509 -7.68936 0.451098 0.886794 -0.379655 
2902 1 12.8216 9.72988 7.95725 -8.15209 -0.10497 0.426984 -0.247532 
1102 1 12.8654 13.335 2.681 -7.97125 -0.22366 0.549621 -0.157674 