LAMMPS data file via write_data, version 22 Dec 2022, timestep = 20000

13824 atoms
2 atom types

-2.295021495942816 41.49969649594348 xlo xhi
-2.295021495942816 41.49969649594348 ylo yhi
-9.953041751484655 99.15542675517774 zlo zhi

Masses

1 63
2 63

Atoms # atomic

54 1 -0.5990452779028199 -1.8612543869336693 -5.4833170737553845 0 0 0
839 1 -0.1733277265203963 8.42169585229419 -6.252137816994718 0 0 0
1445 1 41.477986960054736 6.295668314162318 -5.391707250241036 0 0 0
12288 1 33.62748103411468 10.668565677084338 -5.980594227304826 0 0 1
12128 1 31.204324178453273 12.51172387445911 -5.945869489568378 0 0 1
13031 1 35.51710056767416 12.423274203285414 -6.187324424700806 0 0 1
12400 1 2.472266482555451 20.869651772914292 -6.3865738828398 0 0 1
800 1 2.718252836837496 18.755934855985537 -5.254736046176459 0 0 0
12618 1 18.178506844565604 20.066177240792566 -5.418803431191673 0 0 1
13033 1 35.09555639258916 19.70948109346831 -5.742859274738082 0 0 1
1293 1 39.376132058817745 20.272611980418453 -6.068977132163491 0 0 0
1539 1 -1.919034253931199 21.491981577841816 -5.8472302624392665 0 0 0
786 1 4.761299179537322 23.21853506393606 -5.999386378617592 0 0 0
1552 1 2.4925114515516693 24.523845285003723 -5.581385768047995 0 0 0
13289 1 6.91572440146683 24.67904954996918 -5.512005012499772 0 0 1
12404 1 40.82649008456228 23.914413556452498 -5.974737013388383 -1 0 1
1584 1 6.4809515362067955 27.332157625081347 -6.006033870566447 0 0 0
919 1 10.038856234415443 26.705476298363013 -5.847586973552003 0 0 0
1953 1 16.397500890116607 25.498024346760285 -5.431307685463381 0 0 0
2213 1 35.98521472534382 29.337188413016204 -5.5640887302695 0 0 0
13107 1 1.2494839935350477 33.35932397768883 -5.255494698823678 0 0 1
1622 1 4.26241656763437 33.95338833583459 -5.431213075884445 0 0 0
13435 1 9.14740442191076 35.13257681276748 -5.392743183676421 0 0 1
2068 1 21.604881791570254 36.75229857068619 -5.870087653585564 0 0 0
13680 1 25.590262420223286 36.118876719121985 -5.693265786587344 0 0 1
2238 1 -1.597334619880204 39.53139927115362 -5.27653491129074 1 0 0
1727 1 9.751312294307352 37.68412573019221 -5.706850729918143 0 0 0
13434 1 12.186047002155254 38.39234524251651 -5.935349118191954 0 0 1
162 1 10.360864486118016 40.625401514395065 -5.754105666760602 0 -1 0
261 1 19.72413614690837 38.51952342454439 -6.173097489114197 0 -1 0
11972 1 21.634972231023305 40.43371570169195 -6.188229168938333 0 -1 1
1816 1 23.38054812419498 38.51470404345763 -5.825915947348611 0 0 0
12239 1 -2.008053910369741 0.021572053984290296 -4.090699118434483 1 0 1
11618 1 -0.80256249772728 -2.006631930767379 -3.138806664001905 0 0 1
1561 1 0.09690767430574754 0.194952227307299 -2.757175436096148 0 1 0
11724 1 0.4482745046510108 0.7618201335128378 -5.066616423079038 0 0 1
37 1 1.15966197884313 41.4220055791056 -1.5139654365796247 0 -1 0
12279 1 -2.2870823318965985 1.0504109845644898 -1.8599047247276488 1 0 1
1594 1 1.6466440838069092 -1.3593635721998756 -3.894630415193988 0 1 0
11715 1 4.1533432279071505 -1.1187081483327785 -3.486986275717073 0 0 1
11621 1 2.842393090349856 1.083865124019154 -4.180657034037076 0 0 1
22 1 2.412198738426671 -0.12932752788382373 -1.9196842928454458 0 0 0
257 1 3.787559260273299 -2.1036175377250665 -1.0885654916301952 0 0 0
43 1 4.69121912217022 0.926676606926331 -2.366665808355089 0 0 0
11737 1 8.201092938230694 1.1960730376251831 -5.345995005470085 0 0 1
1758 1 8.549196417479852 -1.523437634383702 -5.185317546051878 0 1 0
297 1 6.111791793740416 41.378074280422354 -4.99737341867008 0 -1 0
176 1 6.424718286514295 -0.13728796999235016 -4.028733288201066 0 0 0
175 1 8.808323060980818 -0.05082190105976503 -3.2646108234103206 0 0 0
45 1 6.064908219750627 -1.2937324666915422 -1.8483590635272424 0 0 0
140 1 6.996546214112556 1.168766880090017 -1.9244344280167063 0 0 0
361 1 7.8615896197606325 41.290828894267165 -3.015580633136925 0 -1 0
265 1 10.831270318136678 0.2763743860974861 -5.1116129658473906 0 0 0
13428 1 12.640370792212188 -1.9574733322342532 -5.2991266132281565 0 1 1
11751 1 12.471289475400475 -0.5436202939450101 -3.2150713737517496 0 0 1
273 1 10.55687118741135 -1.9476762406447348 -3.666982486803377 0 0 0
305 1 10.636606793738073 -0.4484408045789883 -1.502095746494783 0 0 0
205 1 12.190644900759187 41.35746306212168 -1.7984215437375113 0 -1 0
299 1 12.597291941195438 1.1913236304681916 -1.1966866120931705 0 0 0
271 1 14.248356228853766 -2.2811011618211134 -3.2671359320685154 0 0 0
13432 1 14.366373865824027 -0.190490706155499 -5.027602249847263 0 1 1
1819 1 16.05413219685985 41.42180465748845 -4.875525621190647 0 0 0
411 1 16.124793738707893 -0.5370550512737986 -3.046621599354726 0 0 0
183 1 14.227326191208338 -0.5782087244709655 -1.373654440147936 0 0 0
329 1 14.3152933091466 1.2383272099306808 -2.9324112570192193 0 0 0
268 1 18.041822048949182 -0.832230559653889 -4.835830408420653 0 0 0
393 1 20.602501658033606 -0.5533114802279138 -3.9032985319562243 0 0 0
12137 1 18.93492611677026 1.3887056923376258 -4.246718440698736 0 0 1
398 1 18.521687600015543 -0.40685656853058383 -2.159126748606125 0 0 0
294 1 20.59299315393732 1.1870502106749727 -2.167687085679085 0 0 0
388 1 20.03711331873855 41.42779801772019 -1.8634823681794952 0 -1 0
609 1 24.787213204208747 0.40116775376956326 -5.184635084164074 0 0 0
12011 1 22.561726577142373 -1.1102562863582706 -5.410125912426672 0 0 1
357 1 23.978817110032498 -1.1720417665884095 -3.3260575066419165 0 0 0
387 1 22.683691353797002 0.9014630158080199 -3.5645122436740806 0 0 0
13686 1 22.103543799322043 -0.8503630606527424 -1.8182746471974074 0 1 1
452 1 24.105205622787803 0.6805306615988012 -1.671485804237296 0 0 0
13664 1 26.346263650534876 -1.5671913506988155 -4.8277826551306315 0 1 1
13658 1 28.821513588270445 0.17146146900673465 -4.724088322301561 0 1 1
525 1 26.241099101104744 0.14742193430808914 -3.0537827246848943 0 0 0
515 1 27.963632647173412 -1.901253237662559 -2.9358160397799393 0 0 0
554 1 28.330440692999577 1.664009732624939 -2.7981485284044503 0 0 0
552 1 25.566764594256465 -1.5774783620745878 -1.3522307584722153 0 0 0
545 1 30.74369430793423 1.6953710671698947 -4.401045085501678 0 0 0
565 1 32.0503985083016 -0.3190502178339356 -3.835273757056779 0 0 0
13691 1 29.74779130537728 -0.3483951793661344 -2.5406365952560064 0 1 1
2038 1 32.17047891076061 -1.7986414532831616 -1.8734224549600729 0 1 0
626 1 31.814912351709534 0.52139103857037 -1.308854242812881 0 0 0
519 1 29.98867712612302 -2.000673894632551 -4.437433017448558 0 0 0
2070 1 32.87181867892133 1.4738620457537595 -5.582028911736698 0 1 0
560 1 36.30405059757972 -0.8298134889343951 -3.4022195341007597 0 0 0
550 1 34.064440570831124 -0.14744372872038403 -2.312426169561644 0 0 0
653 1 37.17309142788626 0.7273690462273357 -5.044720039361522 0 0 0
698 1 37.061604468813854 1.3116047139585754 -2.6363567928076277 0 0 0
2080 1 34.31207611931521 41.28718243177117 -3.0808259605862416 0 0 0
520 1 34.224844722308674 -0.7054715748978697 -4.933715963865012 0 0 0
12283 1 38.346856397141636 -1.6479381425962056 -4.4549654300235915 0 0 1
12129 1 39.26642482743874 0.45760550842120784 -3.5559066328281412 0 0 1
1593 1 40.76063328740908 -2.1285214272779216 -4.902645829432181 -1 1 0
77 1 40.43042197274798 -1.5141890193724932 -2.481992476780394 -1 0 0
673 1 38.24720584818694 -0.7456027347848162 -1.7298605573652281 0 0 0
688 1 39.123928212439864 1.6508247517411108 -1.4598404822738331 0 0 0
12483 1 1.4669616831887469 5.540208551835386 -5.968279776208892 0 0 1
685 1 1.3126727814454724 3.049119151324841 -4.614716967947171 1 0 0
12275 1 -0.9976013305704643 4.215784939048372 -5.229991332950287 1 0 1
139 1 -0.8301175015924551 2.4387323476795952 -3.31958421712796 0 0 0
1411 1 -1.8038509648433383 5.226447444301132 -2.953840987508194 1 0 0
170 1 0.44194144912762257 4.497796026613317 -2.887029053925173 0 0 0
679 1 -1.325181033081427 3.2091617512862554 -1.2370646706218267 1 0 0
2203 1 1.8141996325217127 2.2427131105334572 -2.1198764159233043 1 1 0
6 1 3.556798505657798 3.9227749292686322 -5.686548860008017 0 0 0
124 1 5.551554242251414 4.9702462198923945 -4.369635530491718 0 0 0
300 1 3.7943849364363986 3.1924084116139593 -3.283094480951857 0 0 0
136 1 2.8924286601662423 5.3550325098825455 -3.7671981043007534 0 0 0
152 1 4.46971884675083 5.195140817350673 -1.8182636545541353 0 0 0
678 1 2.383456507172607 4.593590069505974 -1.258227450640101 1 0 0
130 1 5.5930635080192115 2.1473160477728985 -4.73998996667858 0 0 0
11629 1 7.815302113486366 3.93669744080253 -5.414992287538304 0 0 1
11852 1 8.64042238121549 2.64830089427023 -3.3065714094096474 0 0 1
134 1 8.055582623144128 5.008350544144819 -3.146333226052403 0 0 0
11758 1 6.0974717276551385 3.3100970498533053 -2.4598622718183254 0 0 1
260 1 8.568568519678962 3.775188277706075 -1.0083970674188816 0 0 0
39 1 10.879303082187583 1.669130096130941 -2.887844803232266 0 0 0
159 1 9.741507524498207 5.467306376879005 -5.178123913881319 0 0 0
144 1 10.297631304112862 2.750370456730133 -5.283467311225795 0 0 0
332 1 12.39835720431515 4.609111443787913 -4.608453337343086 0 0 0
11886 1 12.764256392995543 1.702059557170719 -4.73174510229827 0 0 1
150 1 10.494080800820868 4.123761825725617 -3.0309734434747595 0 0 0
198 1 12.776944163969581 3.2897661171179573 -2.4222866817675337 0 0 0
11880 1 16.312178533626124 1.478820680207102 -5.009519482353413 0 0 1
11842 1 14.544936923267326 3.354491959341974 -4.393951901744434 0 0 1
422 1 16.896277930261384 3.5518398795059225 -3.84996217812044 0 0 0
264 1 16.917326328101563 1.6468367140079887 -2.433491781259449 0 0 0
11775 1 14.971010243928507 4.107208849144738 -2.034383779052945 0 0 1
11887 1 14.779498890485833 5.7229884545280605 -3.94654713211437 0 0 1
262 1 19.142915130383187 3.7312582918097235 -5.102667092921888 0 0 0
456 1 21.2426887021209 2.815905731971191 -3.9497604636179595 0 0 0
11857 1 21.213988902768985 5.25653092883914 -4.971915420448132 0 0 1
12024 1 21.212928788372224 4.896690862365663 -2.3501140171592017 0 0 1
433 1 19.139891676938998 3.356759379775238 -2.549127807779496 0 0 0
516 1 23.261044760376617 4.282278606140844 -3.5480281885978444 0 0 0
667 1 23.237254071960226 2.6362741108427663 -5.648307336288566 0 0 0
1926 1 24.776534375719983 2.288047398045328 -3.3439682208974393 0 1 0
430 1 22.710366438935107 2.6358472776003437 -1.8848214452743726 0 0 0
420 1 24.84292202985421 4.2584225729574126 -1.699498997313583 0 0 0
618 1 25.459089364471442 4.249553908467694 -5.140174946269861 0 0 0
11981 1 26.833326292148467 1.745637209887632 -5.093458152228973 0 0 1
12005 1 27.97472477314593 5.521527040822576 -4.964757755222035 0 0 1
692 1 29.45233830094179 4.854767923294933 -2.7933045787018447 0 0 0
12136 1 26.94922949460936 3.676681395711178 -3.0206501957730376 0 0 1
12108 1 28.810743944819816 3.280268601619354 -4.650085992892718 0 0 1
590 1 26.397985738062932 2.0550154517222277 -1.3305680053404014 0 0 0
573 1 28.361554251043007 3.4504242928972593 -0.8758999821127222 0 0 0
680 1 31.682475796728998 4.32793087720373 -3.8743178208760876 0 0 0
642 1 32.98501701864957 2.041857215287455 -3.026523345267477 0 0 0
577 1 30.613561336009145 2.5968917365281348 -2.117114638039503 0 0 0
2109 1 31.381173253949246 4.721039960247432 -1.2675410415425823 0 1 0
13025 1 36.51952220742449 3.896114574651043 -5.5390239545782 0 0 1
1413 1 33.975597971431625 3.740083708405825 -4.8999678020344835 0 0 0
589 1 35.08156121779169 1.5987037705048515 -4.159853522650196 0 0 0
57 1 35.84507626203698 3.7024720810387883 -3.232539307338363 -1 0 0
598 1 33.56788976014498 4.577552584708491 -2.453333406351894 0 0 0
12141 1 34.9211070138569 1.9863515348051743 -1.6122513873087296 0 0 1
31 1 38.30535640403092 2.9239292676150814 -4.047733247003451 -1 0 0
25 1 40.70418331759842 2.464354164624969 -5.036877031479067 -1 0 0
49 1 39.56296833159358 5.011290573447959 -4.475294220720277 -1 0 0
542 1 40.438785177255824 3.370226154135281 -2.7315197645218454 0 0 0
727 1 37.92174906180574 3.9863932651498066 -1.6500950270332932 0 0 0
59 1 -0.14767268364804886 6.543908703732789 -4.3616330300238175 0 0 0
11762 1 -0.33766054593484207 9.011212067672389 -3.70050164467063 0 0 1
50 1 1.4039516894860689 6.845706948107187 -2.557081932133751 0 0 0
92 1 -1.061350900991294 7.4481587975989445 -1.9132189639674664 0 0 0
11616 1 2.068555822192966 7.74819859633735 -4.840175753978979 0 0 1
156 1 4.752908817283052 7.241691952417391 -4.530173112991024 0 0 0
909 1 1.9706923907782201 9.114462822376316 -2.8368076914793283 0 0 0
276 1 5.483891084930403 9.115508176309039 -2.524729831754139 0 0 0
21 1 3.74349461153827 7.380082748551279 -2.347120874438734 0 0 0
216 1 6.159166496747465 6.68340444143916 -2.5445484690990128 0 0 0
154 1 7.47635504046095 6.742530250765842 -4.73468765033492 0 0 0
1064 1 7.973779969166918 8.581554984552012 -2.822876142651249 0 0 0
803 1 8.447876980530294 6.515136388059769 -1.321033141215155 0 0 0
203 1 9.658982011831004 8.523720908494964 -4.630511596543573 0 0 0
298 1 10.322588193080232 6.750177486084686 -3.1028156511364147 0 0 0
11851 1 12.831369706357771 7.278509201641494 -4.559592297092137 0 0 1
11838 1 11.755570664008905 8.865740940435401 -3.1608121077752482 0 0 1
190 1 12.700503832157144 6.011570769982212 -2.419599293264125 0 0 0
281 1 17.185622542965163 5.777401406214814 -4.836609581029002 0 0 0
346 1 13.55829128219859 8.70048072265188 -1.5688605787915293 0 0 0
1067 1 15.273708593042425 8.148422548943367 -3.4731368570651577 0 0 0
157 1 16.98404038223823 5.5038272881073915 -2.2831523962297116 0 0 0
12642 1 17.23012900714 7.87297128650385 -1.4542078063635273 0 0 1
80 1 14.91083553488134 6.587589754518026 -1.4115771271535351 0 0 0
11885 1 19.27563199974807 5.8596190744911745 -3.4462224177546625 0 0 1
12021 1 17.632576884767573 8.051810282673971 -3.9040644246869975 0 0 1
389 1 19.540918990885793 7.997572569804085 -2.2109130981581906 0 0 0
469 1 21.47194329950791 7.218887488216051 -3.4822366947071606 0 0 0
13398 1 23.822514325071605 6.35500615573336 -4.6764072432588835 0 1 1
12028 1 24.579835136997524 9.00651526708291 -2.6984188845934263 0 0 1
521 1 23.529608523411106 6.317654108722426 -2.1193548948612113 0 0 0
432 1 21.56578127373801 9.558886844318387 -2.559796448493281 0 0 0
278 1 22.96895697846717 8.881983752156929 -4.487897243045709 0 0 0
310 1 25.679121512087683 8.342039008635481 -4.8051489205751245 0 0 0
524 1 25.88173410691809 6.133209350974806 -3.469725944561259 0 0 0
571 1 28.17185933555821 8.417083125280612 -5.2621864555232545 0 0 0
12154 1 28.124480702419948 7.034640466194135 -3.066810377611654 0 0 1
426 1 26.95487979413431 5.509507540881341 -1.283464799909261 0 0 0
445 1 26.3572481412849 8.060586088242106 -1.3845787387465087 0 0 0
532 1 27.494056559803276 9.439555036862933 -3.0346641480086305 0 0 0
1283 1 29.870238917583723 8.96105761980997 -3.46410762465477 0 0 0
530 1 32.03103043288283 8.619515668991957 -5.086468967733096 0 0 0
555 1 32.830924716731445 6.836281966177156 -3.7231067562875975 0 0 0
12160 1 31.987520588745152 9.068388182589768 -2.5754583614891224 0 0 1
11965 1 30.272503051549347 6.569509526053432 -4.433214167996633 0 0 1
534 1 30.722789946083285 6.835257135771537 -2.1988466388540377 0 0 0
576 1 32.93898269139582 6.735521346545452 -1.1571749803936253 0 0 0
12144 1 34.40395168559894 8.51710714695386 -4.931094532056325 0 0 1
12386 1 36.392754458010785 8.125079444022015 -3.5836109376526633 -1 0 1
12879 1 35.249011298079694 6.13769878099416 -4.767569356752888 0 0 1
1295 1 35.272689849845676 6.341678652112636 -2.2601317753837273 0 0 0
566 1 34.28487494334105 8.645137989921313 -2.4449533384315805 0 0 0
657 1 36.19966270104908 8.591098114345458 -1.0017186102793207 0 0 0
646 1 41.15936009780263 8.898164802180192 -5.178624080130624 0 0 0
11640 1 37.50130923386938 5.825681411041947 -3.306342683089997 -1 0 1
11635 1 38.64176170120636 7.612194974184373 -4.796314848661826 -1 0 1
665 1 40.70432006031561 7.155972518933018 -3.2879974992313823 0 0 0
697 1 39.57281712767637 5.700100090337281 -1.621392910522676 0 0 0
557 1 38.434198415316146 7.84617456205774 -2.1745024425800574 0 0 0
833 1 41.280071498137744 9.47405212870771 -2.331537990311152 -1 0 0
663 1 -1.1699252617562121 10.88845663065488 -5.149824359111503 1 0 0
11641 1 -1.9347500502291854 13.402283872867686 -5.591496372355075 0 0 1
777 1 0.3658399948619606 12.6302221642874 -4.292859558162875 0 0 0
1410 1 -0.9706570804869938 11.258003821353192 -2.810904256868885 1 0 0
94 1 1.354736969101852 11.573374175863158 -2.0837427171093044 0 0 0
11644 1 1.4315793283361975 10.305204739624507 -5.0310138441861465 0 0 1
837 1 -0.000258562089523906 9.39218983110789 -1.0167979947768355 0 0 0
908 1 4.6997894586185724 13.290085385535823 -5.538816398693712 0 0 0
11738 1 3.757682766119154 9.669869319617645 -4.461739260781291 0 0 1
12251 1 2.8974649977762734 12.064813433514576 -4.063361333308545 1 0 1
806 1 5.566688031121197 11.344510744942964 -3.611878955867919 0 0 0
11605 1 3.6543105454505085 10.67373867226912 -2.123172738403306 0 0 1
61 1 5.271185364561112 11.882641753129866 -0.8197342354895216 0 0 0
179 1 6.254470609147338 9.210384189295498 -4.754695838406363 0 0 0
11771 1 7.187287459441986 12.726133496545884 -5.11057977520187 0 0 1
943 1 8.24362792296845 10.659949273106909 -4.101891482542445 0 0 0
770 1 6.958429924813164 13.159083469708662 -2.4398996735408147 0 0 0
1097 1 9.242050075493271 12.898408303210308 -3.494706278757695 0 0 0
186 1 7.24578356011089 10.628429224757939 -1.76660494222609 0 0 0
1156 1 10.721335204777354 10.777219225843208 -4.555178696707023 0 0 0
1090 1 10.999893783785618 12.860389151818524 -1.629273881712166 0 0 0
222 1 9.716719797095504 10.374192710098988 -2.06386322224291 0 0 0
1060 1 12.272860134857577 10.817224632737279 -1.9807300847988625 0 0 0
11996 1 12.572643026567567 12.339447451964965 -3.860309458344161 0 0 1
11902 1 13.911470844130722 10.10841607923302 -3.8496169612824644 0 0 1
317 1 16.260658528664113 10.253210648401817 -4.24984110076889 0 0 0
1059 1 14.999026280136004 12.635001166647557 -4.248509490432284 0 0 0
446 1 17.079991257376538 12.20885604117922 -2.4095106728424085 0 0 0
470 1 15.686496874673598 9.884993539904672 -1.8695423958699866 0 0 0
1063 1 14.646913330726917 12.01412338694374 -1.9159866552337341 0 0 0
12020 1 19.69788273949587 9.297618765618466 -4.473219858102525 0 0 1
319 1 18.138476750389188 10.046136206378408 -2.398170845630556 0 0 0
11903 1 18.45572505220429 11.559013712882782 -4.528618768150779 0 0 1
12026 1 20.066942315060952 11.451084365372104 -2.5704634900296215 0 0 1
11895 1 21.549836142592326 11.146522451035153 -4.535521140761578 0 0 1
1157 1 24.728551558380957 10.96399999079601 -5.027871871767813 0 0 0
1192 1 25.064923750987383 13.49100938473613 -2.9595940303148254 0 0 0
286 1 23.305405870163693 11.378150861490294 -2.9774419436499917 0 0 0
1292 1 23.682610431133906 13.073948856830897 -1.0836170436011088 0 0 0
12710 1 25.759913892762125 11.028893733651397 -2.827872353033543 0 0 1
1191 1 27.461298453897612 10.996246778822504 -4.976345032380923 0 0 0
1215 1 27.524318823875834 12.834562007561473 -3.1001530024049 0 0 0
564 1 26.200718072499157 13.483232828945651 -5.28589635584107 0 0 0
12784 1 29.598889156827365 11.209884087874926 -3.410355613474654 0 0 1
12898 1 29.02896166683213 13.063632993883546 -5.002938898463691 0 0 1
1189 1 29.93446182735673 10.249320228062297 -5.733617786878362 0 0 0
1317 1 29.27224467137784 12.659834592217111 -1.4836945215144262 0 0 0
666 1 31.933077190910463 10.892960906638436 -4.188204818614799 0 0 0
1456 1 31.269762216787097 13.070330362852697 -3.30368436467353 0 0 0
1281 1 30.283423670675983 10.377702509726252 -1.3102777370039984 0 0 0
668 1 32.49436966438469 11.338436003184926 -1.8535751972381558 0 0 0
12121 1 33.409217973362246 13.014861164092759 -4.724960721960813 0 0 1
1420 1 34.43056060950771 10.755825777336364 -3.577242030896125 0 0 0
58 1 36.579360525216615 10.17577113807199 -4.862982575182525 -1 0 0
1443 1 35.99399964590707 12.65233566736998 -3.849920512270515 0 0 0
1314 1 36.892100949432574 10.553206388218364 -2.5632730085061226 0 0 0
1463 1 34.053484299297494 13.043852449287062 -2.297178726690378 0 0 0
1432 1 36.4410162250886 12.86249589154337 -1.342611523414277 0 0 0
637 1 34.73928184757936 10.94048593576625 -1.0801783979185675 0 0 0
12389 1 38.34334933588538 11.971801367854294 -4.860397561224677 -1 0 1
693 1 39.14183418250532 9.739989142986076 -3.715416445035064 0 0 0
865 1 40.68434342737494 11.87779062523382 -3.949040257993243 -1 0 0
11642 1 38.636214573867036 12.290327557922389 -2.462917535042209 -1 0 1
730 1 39.08495187225154 9.975743524193257 -1.2516749287578541 0 0 0
804 1 40.82184256803477 11.835409879927441 -1.4902974848553772 -1 0 0
182 1 0.07520762858742458 13.6709957593679 -1.940423757677637 0 0 0
772 1 0.2388199397096069 15.367838432388517 -3.845702040166966 0 0 0
1494 1 1.1790311063167178 16.592867472734937 -1.9843718920180917 1 0 0
1457 1 -1.2109815450675976 15.906729392893496 -1.9003371038575558 1 0 0
769 1 0.2367959874824659 17.42053746171656 -5.453856988639545 0 0 0
818 1 -2.0818448838585497 14.02109942324962 -3.141742748775438 0 0 0
1480 1 -1.4037273883510228 17.93261093195333 -3.480142689168342 1 0 0
771 1 2.2711389952934917 14.385827591126962 -5.0348265127218905 0 0 0
999 1 4.522228533885088 13.563583546909424 -3.0483852931765467 0 0 0
793 1 2.559213702364855 16.56421000482041 -4.09369504151133 0 0 0
821 1 4.640915125225434 16.022712713998427 -5.380037215474006 0 0 0
920 1 4.8921866225047745 16.226006520574977 -2.916949374425397 0 0 0
930 1 2.4152898560650673 14.461233226664099 -2.5818371097939803 0 0 0
846 1 3.492448384206706 15.866703198177007 -0.8614966045331656 0 0 0
12524 1 6.470116962916951 14.828825629094066 -4.239210176430424 0 0 1
12519 1 6.942942639387255 17.046219417769844 -5.290978287954917 0 0 1
1033 1 7.2913660419385256 15.643773051560647 -2.0347751282976994 0 0 0
934 1 5.36413516893889 14.431796703104602 -0.9080145898247487 0 0 0
944 1 9.041981374738995 15.671846581833837 -4.302571929462739 0 0 0
813 1 9.508178739848592 14.705043172217096 -1.7542844849504107 0 0 0
776 1 9.550690934195273 17.44413398828162 -2.389751962102695 0 0 0
966 1 11.157443334713957 14.343020332924649 -3.8641967184469523 0 0 0
936 1 11.724861491777789 16.732933177516646 -4.189252532801655 0 0 0
1049 1 11.580980628692163 15.968963581274181 -1.969606927523329 0 0 0
1040 1 13.144970345973281 14.027126594043487 -1.9675115637036402 0 0 0
1227 1 13.460026598892915 14.616444710655117 -4.336202508235456 0 0 0
1061 1 15.669305763394899 16.298229394508024 -4.257498294947228 0 0 0
1030 1 13.802256250117662 16.301820675940093 -2.5875099810076794 0 0 0
1066 1 15.728723664708951 14.468768378810523 -2.582685603982946 0 0 0
1031 1 17.39536798896453 14.057154759469807 -4.507120175341062 0 0 0
1039 1 17.483374198001695 16.21487176375169 -2.3863935498878996 0 0 0
1058 1 17.42212859495035 14.15039676411585 -0.7651533668686508 0 0 0
1037 1 20.128517274028408 13.48490135844568 -4.881082380178415 0 0 0
1161 1 19.37383878375829 15.939029723941054 -3.9883793488222485 0 0 0
1167 1 19.079241763863983 13.802486167837046 -2.5664915266337642 0 0 0
1196 1 21.01430384411178 15.616554109036748 -2.1027260506522945 0 0 0
1163 1 23.231605535957563 13.147147174048378 -4.88092472755305 0 0 0
1168 1 21.816099502935213 13.305150708444229 -2.868446865838475 0 0 0
12755 1 21.78311575610129 15.285557650563522 -4.6272990011765 0 0 1
442 1 24.77558157071094 15.31606342105966 -4.721141188422662 0 0 0
12905 1 23.43482315151493 15.321980764709014 -2.665008743305119 0 0 1
1216 1 25.09734064920861 17.26555787948619 -2.6488464234022393 0 0 0
12745 1 23.25722434870596 17.324245074505324 -4.459449284189797 0 0 1
13009 1 28.09098593845903 15.422108742918816 -5.492620011338969 0 0 1
1289 1 29.341146453973906 14.890086860521205 -3.0963154389684995 0 0 0
1300 1 26.693934580352526 15.247408071430097 -3.1628427203290794 0 0 0
1159 1 28.206173841871305 17.360494945134683 -3.298814728980836 0 0 0
1297 1 29.87994416874798 17.17969669844953 -5.227170179509785 0 0 0
1285 1 31.20088040993559 15.054956928392897 -5.000597959910664 0 0 0
13037 1 32.88938071315671 17.108238476596124 -4.755401929834026 0 0 1
12907 1 32.99469197108675 15.093854809180996 -3.2760148128433944 0 0 1
13028 1 31.002343709019303 16.906653012250935 -2.9029488571370505 0 0 1
12122 1 31.225007392274446 14.765873008920003 -1.4350525447403548 0 0 1
1435 1 33.75455481145144 17.224003696203937 -2.2383769882381728 0 0 0
12799 1 34.59899303193957 15.246447225614848 -5.272123646350703 0 0 1
1442 1 37.044786638651175 14.647265188483956 -4.830002609593135 0 0 0
664 1 35.463732767660076 15.301470392243235 -2.925116464895522 0 0 0
1416 1 37.911885580026706 16.665314645857467 -3.6868383002187795 0 0 0
1415 1 36.31519738536538 17.678498513585915 -1.9716233330044943 0 0 0
13046 1 -2.042030921185835 16.046764749414876 -5.0764934952130645 1 0 1
1527 1 37.97432682732682 14.622810375749484 -2.211805004307725 0 0 0
13039 1 39.571898675526654 14.394184911601478 -4.277729174362002 0 0 1
1421 1 40.36464698781468 16.308280987076476 -2.9783925956668025 0 0 0
60 1 40.11657511454494 14.278324188062719 -1.4097619672241528 -1 0 0
1405 1 38.633837022053584 16.809779062318825 -1.224994903091991 0 0 0
12377 1 -1.9478917760137069 18.872582987054376 -5.703433067544376 0 0 1
1422 1 0.4308169230100889 19.98142280830713 -5.374310128410786 1 0 0
12411 1 -1.0399078710183642 20.202972681494796 -2.5483714357150538 0 0 1
12372 1 1.1069168327445538 18.702641270336798 -3.295275191678953 0 0 1
814 1 -0.4057166867756483 18.21207657450521 -1.1680838808201859 0 0 0
89 1 0.9925057881296699 21.193842181550323 -3.3451657603633063 0 0 0
792 1 5.045380146693839 18.451172788226526 -4.258998659413668 0 0 0
12403 1 3.259029090495794 20.120475053503423 -3.3402818950507047 0 0 1
790 1 3.3049859542635254 18.008422664491302 -2.209156222203851 0 0 0
1461 1 5.267406487425263 19.65239765563647 -2.035016328360279 1 0 0
787 1 1.7740187874217268 20.024680188913607 -1.1736970310475332 0 0 0
13823 1 4.967435821890051 21.153180598913515 -4.704942022593977 1 0 1
12531 1 7.330284121054865 19.7635723868273 -4.684268735176427 0 0 1
1005 1 7.148417178407973 18.0052019101639 -2.89387090986766 0 0 0
830 1 8.7309231160257 20.066576551899868 -2.591930372541122 0 0 0
146 1 9.381954610327035 18.334873366641983 -4.598639924923802 0 0 0
912 1 6.708196094996982 21.305872883121843 -2.9580869356255706 0 0 0
12496 1 9.56710698410034 21.04021820942965 -4.698385767507537 0 0 1
11739 1 12.079864917977881 18.340048140521557 -2.1880556693432363 0 0 1
12511 1 11.748053121022473 19.35452785924867 -4.433313727931701 0 0 1
1019 1 11.098820251616205 20.787351177720844 -2.661605010901196 0 0 0
1065 1 13.876227956891885 17.987299676493304 -4.25807475388359 0 0 0
1795 1 15.883311834140702 19.69606213556444 -3.9851914327718605 0 0 0
12644 1 15.635195226309467 18.014525350791065 -2.274472730670114 0 0 1
1051 1 13.860319010008464 19.85934588813499 -2.6654609983336632 0 0 0
1840 1 17.544764421073122 19.67539716266067 -1.9589190470611557 0 0 0
12785 1 17.836694151615088 17.93441492723588 -3.940355842928283 0 0 1
13547 1 20.927560281957614 17.91737422240049 -3.6423820203603725 0 0 1
12775 1 19.612109212733444 19.931620866513644 -3.4139952683216723 0 0 1
1179 1 21.49994498261306 19.850096878702434 -5.199371844628304 0 0 0
1038 1 19.416979680732116 17.894739847044146 -1.7625906022834226 0 0 0
1188 1 21.19836790077357 19.530974221386884 -1.614455585461501 0 0 0
12752 1 24.69130541679247 19.533520080182665 -5.146953063915153 0 0 1
1181 1 22.984197548523277 19.620834112438402 -3.299288206262535 0 0 0
1171 1 22.8465129142182 17.544761165170005 -1.8058144738260662 0 0 0
1986 1 24.485863464465712 19.368766788495943 -1.4316103373222493 0 0 0
2051 1 22.94825901397185 21.396844430718023 -1.0224461259946178 0 0 0
1322 1 26.198882881581458 17.329729415833953 -4.86963214624871 0 0 0
12915 1 28.067461979453636 19.42583897431158 -5.063986722873241 0 0 1
1086 1 26.371020262285082 19.39194226120777 -3.1485484591875474 0 0 0
12751 1 28.149285107947403 21.12202816447558 -3.0239259914176406 0 0 1
1388 1 28.292532227270573 19.09007887604576 -1.4746022077925538 0 0 0
1306 1 26.442763542044357 21.071857064168263 -1.1957175243434488 0 0 0
1341 1 31.59126232582621 19.297457978656638 -5.194196306876591 0 0 0
1214 1 29.793184608852624 19.22126167106049 -3.360808693477809 0 0 0
12904 1 33.551900990818964 19.273809565942297 -3.5960047878920083 0 0 1
1360 1 30.029133517517796 21.025593839478127 -1.3919922898223582 0 0 0
1203 1 31.786568617062134 19.021894791289785 -1.844982671798336 0 0 0
1500 1 31.684804873044623 21.113397966787108 -3.364741117693767 0 0 0
1165 1 29.745619818297396 21.323957049146294 -4.9106579032611934 0 0 0
12917 1 35.245700063074295 17.509603259909206 -4.414411341581784 0 0 1
1460 1 35.92730610944466 19.91851459774626 -3.24598388294414 0 0 0
1419 1 37.327050427175465 18.76034470687162 -5.232878027941792 0 0 0
1451 1 34.315736042081554 19.504711052736695 -1.217287083926676 0 0 0
1356 1 36.76351621693456 20.242004140313593 -1.0474645886415441 0 0 0
797 1 41.184401288844995 20.632643106375962 -0.6777262845525058 -1 0 0
801 1 39.719875877501806 17.860068685046148 -4.9208353462626695 -1 0 0
1414 1 38.14495290442696 20.86565376431473 -4.0489061931815735 0 0 0
1469 1 40.551542595873386 19.775816736471352 -3.725086097987271 0 0 0
2220 1 38.46678509367243 18.80565038783624 -2.6711897135555507 0 0 0
1454 1 40.81151574774134 18.346356429342173 -1.6027748913542545 0 0 0
2115 1 38.87037567450135 21.17751340089668 -1.698833386852277 0 0 0
13808 1 0.5174302423265589 22.543572055314467 -5.569769386987884 1 0 1
12380 1 -0.7113361040893782 24.998750447571005 -4.825194275163752 0 0 1
13807 1 0.9698947723381899 23.748910908024065 -3.4053979707171225 1 0 1
1424 1 -1.1772542354912916 22.551046411353393 -3.6644990406717683 1 0 0
13160 1 -0.38576520033311423 22.608976176280922 -1.131213360026159 0 0 1
1611 1 2.770934245454434 22.349413137477793 -4.408509525286449 0 0 0
782 1 4.331042309906788 21.985660552086078 -2.324389014668613 0 0 0
12514 1 5.639516472290506 23.62998024249606 -3.6838172768666686 0 0 1