ITEM: TIMESTEP
0
ITEM: NUMBER OF ATOMS
6000
ITEM: BOX BOUNDS pp pp pp
-3.2565384765233851e-01 2.7666653847651943e+01
-3.4648148907435328e-01 2.7687481489073782e+01
-1.4571360372726403e+00 1.1082113603727136e+02
ITEM: ATOMS id type x y z c_peratom fx fy fz 
122 2 5.29783 5.42112 4.36013 -23.3899 2.77367 3.5021 8.32056 
601 2 5.8715 3.04824 2.19411 -23.281 1.22581 -3.54844 -2.81386 
602 2 5.85011 2.80135 7.22809 -24.3994 -0.783156 -1.24566 -2.43509 
1021 2 3.18869 5.56982 1.64035 -24.665 -3.07848 -1.37057 -1.02724 
1502 2 2.44391 2.20829 4.53785 -24.4304 1.41833 -2.02298 -8.19659 
1022 2 2.5251 5.15075 7.00998 -24.3991 0.631713 3.95518 1.95205 
4501 1 4.25897 4.01834 5.98657 -7.01993 2.24616 -0.687427 -0.423402 
22 3 0.17326 5.83288 4.00674 -27.4157 -1.83592 -0.871677 1.03429 
5662 1 3.11558 0.145447 4.95922 -8.08156 0.366913 -0.835121 1.78279 
5401 1 0.520564 0.179266 6.66256 -7.41329 0.998201 0.298034 -2.28288 
3640 1 4.52424 1.71678 3.60021 -7.11426 2.00039 0.430724 -0.907287 
4042 1 1.93536 3.47742 5.96493 -7.61246 -3.77123 -1.23185 2.79246 
2261 1 4.49302 4.42239 2.89951 -7.89573 -3.78781 -2.28861 -1.24816 
5983 1 3.63287 6.60344 5.8043 -7.73952 0.236344 0.957517 -2.31966 
5919 1 1.58912 1.22236 -0.218295 -7.4295 -1.36653 -3.613 1.02489 
5120 1 0.0600876 1.74529 4.58741 -7.16324 1.26282 0.215121 0.738467 
4481 1 1.63891 4.14263 3.41987 -6.3817 -0.00916817 0.550056 1.21261 
2020 1 6.23876 6.33818 2.73276 -6.49272 0.383171 1.71052 -2.21148 
502 3 -0.0016938 2.42933 6.53531 -28.4071 -2.24791 -1.30458 0.711685 
101 3 5.21908 -0.103514 -1.05109 -27.0449 2.03177 1.56965 -2.46773 
1501 2 2.62643 2.90893 -0.865481 -26.0912 3.01633 1.11137 -3.42597 
5560 1 0.820573 6.59094 6.04471 -6.51202 1.12203 -5.42535 0.0526744 
5140 1 1.73705 1.14104 2.53803 -6.29007 0.364188 1.11395 -1.2202 
5020 1 4.35629 4.05911 0.411381 -6.61162 1.37785 -0.130016 -0.655915 
1001 2 2.76843 -0.263224 1.09103 -23.5897 -1.78358 0.814068 1.36963 
2801 1 0.244802 3.88383 7.6918 -6.9759 2.76121 2.96798 4.8671 
2041 1 1.67011 3.90052 0.708919 -7.32392 -2.63937 1.95195 1.24509 
501 2 -0.209713 2.71756 1.40064 -24.3852 1.35308 -0.737412 0.35359 
2700 1 4.30506 1.19152 0.0251203 -7.30796 -2.70811 0.151024 2.82114 
2661 1 4.98631 0.8522 7.76325 -6.70881 -0.510742 -3.29126 -1.68345 
5521 1 9.29259 0.663323 0.365303 -6.24706 1.07263 1.76135 -0.755384 
3601 1 6.98877 0.841521 5.42318 -7.33669 -2.89144 0.567083 0.0896562 
4622 1 6.94928 3.86344 5.65046 -8.05802 0.511035 -0.0863362 -1.37244 
4000 1 7.741 4.06408 2.71298 -7.35371 -0.277498 -1.54887 0.0257636 
5921 1 7.37237 4.28907 -0.319388 -7.26155 -2.18451 -0.918879 -0.105121 
5641 1 9.84546 3.41257 0.366068 -6.10607 -2.79261 1.67074 -1.69311 
222 2 11.0512 5.01346 4.5884 -25.2204 0.157628 0.36047 -0.871047 
701 2 10.9199 1.82382 1.36452 -25.1303 -3.31723 -1.91112 3.139 
702 2 10.9413 2.5137 7.59288 -25.4629 -1.31208 -1.15379 -1.16481 
1121 2 8.46392 5.55496 0.991381 -25.1205 -0.99425 1.11597 2.82054 
1122 2 8.2116 5.40795 7.05165 -24.7242 1.80516 0.970466 -1.70193 
1602 2 8.47128 2.31296 4.6201 -25.2221 0.31134 0.0780136 -1.0158 
4502 1 11.946 -0.226438 0.507253 -6.96079 -0.713937 1.77509 0.69522 
4201 1 9.57774 1.14336 6.12505 -6.9795 2.56759 -0.687029 1.33887 
2042 1 7.38826 0.964846 2.72994 -6.48515 -3.82585 1.88349 -0.737516 
2601 1 12.2849 2.93656 0.352876 -7.10531 2.69433 1.22303 -1.3359 
3022 1 9.7356 3.9365 6.01552 -7.40047 -1.84093 0.275262 -0.469397 
2142 1 10.8794 3.62124 2.97766 -6.68999 -0.0326004 -0.372617 -0.498274 
5722 1 12.1168 3.23405 5.81504 -6.30245 1.4038 2.09604 1.71764 
1701 2 13.3861 2.47481 -1.43463 -24.9274 0.390734 -1.0811 -1.70143 
3820 1 9.69329 0.82698 3.50456 -6.46578 3.69087 -0.236812 -0.635907 
2623 1 12.3979 6.3996 5.65856 -8.38221 -0.725583 -0.19546 1.99137 
2622 1 12.1227 5.96379 0.194155 -7.89008 -1.07948 -0.0875917 -1.51008 
3043 1 9.10416 6.361 4.77127 -6.35171 0.191172 0.25512 2.34841 
2001 1 6.7302 0.104894 -0.126796 -6.39634 1.98507 -2.07996 2.75088 
4182 1 12.7821 0.451319 4.67338 -6.23788 0.427603 -1.10621 0.892357 
4122 1 10.1727 6.52459 7.74273 -8.06435 -1.38525 1.21385 -3.90174 
1221 2 13.2718 4.64204 1.50129 -25.3662 -0.328853 -1.81049 1.66374 
2980 1 3.64141 7.03862 0.176348 -7.19287 0.119491 -0.940564 0.308422 
5042 1 3.91491 7.63552 3.04514 -7.23891 0.102745 -3.25634 -0.465878 
5163 1 1.44211 6.73852 2.66496 -8.32281 -0.575105 -1.49532 -0.637754 
5940 1 0.869535 9.30555 0.0613696 -6.88 0.622232 2.31139 0.671177 
4823 1 6.52046 6.711 5.83445 -8.93566 0.559604 1.4686 0.787335 
3020 1 0.408868 6.79706 0.0493407 -7.74414 2.7189 0.964593 0.40267 
142 2 5.05727 10.7332 4.55805 -24.1455 -0.151612 1.16303 -2.59276 
621 2 5.41177 8.20212 1.30164 -26.0641 1.74977 -1.82995 -3.53789 
622 2 5.0092 7.75824 7.1243 -23.643 0.72118 -0.80265 -1.48057 
1041 2 2.28306 11.3481 1.71144 -22.5314 0.39263 -2.36065 0.421789 
1042 2 2.30519 11.1013 6.83388 -24.9585 -2.78695 0.685771 -0.278925 
1522 2 2.12617 8.22986 3.93159 -23.5108 0.793414 4.04515 4.13612 
5022 1 0.473563 9.35177 2.72976 -8.03249 1.51361 1.94814 -0.296844 
5821 1 3.93179 12.2971 5.55739 -8.13478 -3.2282 -0.507112 -0.0356898 
2021 1 3.8944 12.4059 -0.159129 -8.41446 -1.28143 0.367651 2.58501 
2521 1 2.2732 11.1465 3.90992 -6.5276 0.671717 -0.995377 -1.27771 
3142 1 3.45952 9.53303 5.68597 -7.79454 0.262657 -1.1611 0.296154 
4522 1 0.377986 8.53318 5.15128 -6.37493 -0.866658 3.72991 -3.22712 
5640 1 4.22866 9.40484 -0.382742 -5.69482 -0.0358533 1.94495 0.968423 
5661 1 3.95129 12.5965 2.60488 -8.64099 0.491479 0.55199 -1.53302 
4280 1 5.01437 9.72829 2.57171 -6.7119 -0.659678 4.75912 2.38258 
3121 1 6.26736 9.72456 6.06961 -9.1741 -0.109534 -1.99144 -0.823414 
3961 1 0.213649 12.3676 2.89946 -7.68455 0.569241 -1.07219 -0.594687 
4623 1 6.44695 12.7494 4.59257 -6.83629 -0.268961 -1.67901 1.0362 
3442 1 6.59389 6.92384 -0.302442 -7.41234 -0.602966 -0.599111 -0.653371 
41 2 -0.0745743 11.0052 -1.08864 -24.4542 -1.03832 -3.1614 -2.81141 
642 2 5.13685 13.5698 6.59159 -23.8736 -4.44448 -1.57174 1.5174 
5321 1 0.181731 11.632 5.71321 -6.62385 -0.4724 -0.000132272 -0.330602 
5562 1 0.517426 9.5951 7.58466 -6.80443 2.85885 1.99828 2.42683 
3123 1 6.28469 12.1525 7.7073 -7.29207 1.79627 -1.0087 0.513454 
3920 1 1.01785 12.2735 0.221491 -8.9289 0.230394 1.65509 1.24433 
141 2 5.35985 11.2238 -1.24877 -25.7005 2.72142 -4.09795 -0.0224367 
5760 1 9.61037 12.2475 0.276872 -6.41495 1.59205 0.0931041 -0.300982 
2640 1 11.279 13.0569 4.3332 -7.26793 -0.224198 2.52312 2.21055 
3542 1 9.52838 13.3729 6.79559 -7.72041 -1.85275 0.623554 -1.228 
3621 1 9.3314 6.87852 -0.511674 -7.42284 0.626474 -3.518 -1.36241 
4621 1 8.8201 7.65605 1.97651 -4.7748 0.28672 -1.89911 -1.32797 
5239 1 6.90817 12.4779 0.7917 -6.05787 -1.90043 -1.10015 0.529558 
3421 1 7.83202 9.86878 3.32941 -6.45341 -1.62043 -1.25701 0.66546 
5941 1 6.95778 9.59556 0.276411 -6.25904 0.443365 0.669274 -0.0214989 
1642 2 8.50167 13.5325 4.93076 -24.5637 -1.66351 0.510548 -4.0494 
5220 1 11.4872 6.79991 2.84439 -7.04741 2.61071 -0.502231 0.513383 
5643 1 13.1513 12.6667 6.51351 -8.14566 -1.49758 2.55883 -3.26044 
4642 1 9.38935 12.1024 3.0169 -6.91949 -1.22728 -1.31556 0.0651762 
5741 1 10.7274 9.69866 2.46081 -5.75601 -0.709568 -0.895505 -1.51162 
242 2 10.4656 10.834 4.55974 -23.8587 5.87457 0.294343 -5.88285 
721 2 11.1347 7.83517 0.759264 -25.5351 -4.30172 1.28128 2.00124 
722 3 11.2744 8.24576 7.15442 -27.7643 1.1555 0.00122589 2.54192 
1141 3 8.57744 10.6792 1.65476 -29.8657 -0.028282 -0.817632 -2.10544 
1142 3 7.72725 10.6987 7.22653 -26.8551 0.0889525 2.22285 1.89891 
1622 2 7.97127 8.52039 5.11894 -23.7395 2.64531 -2.00921 -3.0711 
4041 1 8.77755 9.06453 7.11736 -7.71586 -0.0389633 -1.35744 1.08638 
3001 1 9.83366 9.41035 -0.359196 -6.37672 -1.08447 2.69813 1.09132 
5101 1 12.645 9.21031 -0.00980865 -8.34871 0.675787 -1.90463 -2.52947 
2242 1 10.5806 8.87345 5.41563 -8.18785 1.63873 -0.38155 -1.09791 
1241 2 13.5276 10.5106 1.30765 -23.401 0.857946 0.770637 4.43533 
5743 1 12.3858 11.0753 3.46423 -6.04988 3.82348 -0.876087 0.256452 
1722 2 13.0468 8.01467 4.35878 -23.44 0.672487 -0.799633 -1.6619 
741 2 10.6884 13.5764 2.10427 -25.4615 0.466362 0.108004 -2.02515 
4722 1 8.6749 11.0636 5.32463 -7.87263 -4.27322 1.62557 5.10406 
4743 1 13.365 9.17017 6.18247 -7.60847 -1.03435 0.622668 -0.665955 
3242 1 12.614 11.7868 -0.196779 -8.2631 0.991054 1.75794 -1.19234 
2902 1 0.146549 2.10292 9.78105 -7.15512 0.426512 0.737475 1.95349 
5622 1 3.69098 1.01 16.4264 -5.89502 -1.73875 -1.28474 1.56698 
23 3 0.31252 5.34306 9.62426 -26.6559 -1.37771 -0.237544 -0.557958 
3404 1 0.991393 -0.0369038 11.5537 -7.35797 -1.43216 1.10565 0.104499 
4022 1 0.0105031 4.15893 12.4081 -7.0838 -0.486953 0.903954 -0.396977 
2164 1 0.873435 0.906798 14.5163 -8.05498 0.728841 -1.53572 0.0642124 
24 3 -0.286508 4.73245 15.3925 -28.4991 -0.600812 -0.404834 1.20325 
2922 1 4.54108 2.96606 8.8259 -6.91584 -2.3947 3.1751 3.33467 
3562 1 2.3693 0.772269 8.83034 -6.94856 0.88998 -2.15754 -2.25195 
123 3 5.65843 5.16866 9.92682 -27.4745 -4.07583 2.22516 -1.44152 
124 2 5.92521 5.11472 15.8363 -24.9854 -0.974054 0.932353 0.0177164 
603 2 5.47697 2.64683 12.7134 -25.878 -1.63951 -3.21967 -0.0186701 
1023 2 2.25192 4.84021 12.8571 -25.4619 1.6564 -3.33632 -0.108227 
1503 2 2.37746 2.47801 9.95207 -24.5736 1.20732 1.1599 4.15939 
1504 3 2.50842 2.28131 15.3454 -29.6175 2.1926 -1.94438 1.0252 
3603 1 1.46953 3.78997 14.8783 -7.46538 -2.81451 2.48157 -0.507983 
5205 1 4.05388 1.14014 11.1953 -7.24795 -1.68072 0.534657 1.54452 
2925 1 4.37101 0.651975 14.071 -5.91906 -0.758588 -0.427381 -3.32507 
103 2 5.02163 -0.0747965 9.85904 -24.6141 3.1295 -1.40258 -1.81844 
2123 1 2.01602 2.37868 12.4194 -6.39025 -1.93173 -0.0379513 -1.13912 
4101 1 6.66503 1.43351 10.6929 -6.1321 -4.23943 0.25353 -1.03997 
2103 1 4.35139 4.24422 11.5137 -6.86414 2.09391 -0.383288 0.755286 
2604 1 3.76403 3.1865 14.1387 -5.98404 2.2113 2.60765 -0.918904 
5842 1 1.10087 6.40438 13.8166 -8.11677 -1.40665 0.208857 0.0530342 
503 3 -0.275741 1.9429 12.901 -28.6284 1.41518 0.327414 -0.0206662 
5903 1 6.52485 4.11735 13.9407 -8.26861 1.6651 1.40853 -0.781326 
5123 1 6.41315 1.51719 16.0702 -7.14565 -0.578826 -3.59559 0.65397 
2501 1 1.75309 6.52332 8.82933 -7.50681 -0.12044 0.715511 -1.70101 
4003 1 1.35561 6.30935 16.5571 -7.73356 0.929691 -0.562444 0.832311 
3643 1 2.08702 4.77901 10.6047 -7.57036 -2.88125 -1.85687 -0.689788 
3002 1 4.50386 5.88641 8.26497 -7.41704 0.623715 -0.402456 0.299012 
3105 1 3.79704 6.43895 14.0678 -7.88203 -1.63144 -1.20505 0.49138 
2185 1 4.49015 3.75621 16.9288 -7.02347 -0.65937 0.0745528 0.275837 
3103 1 12.6697 0.204246 14.4727 -6.95667 -0.299492 3.48133 -0.0707379 
1223 2 13.5772 4.98947 12.6572 -23.3091 3.06909 0.554607 1.67875 
2602 1 12.4741 4.68642 8.85873 -7.57906 0.848638 -2.8033 -0.797012 
5703 1 11.7322 5.78839 11.914 -8.23219 1.35566 -0.756924 -2.00048 
3164 1 12.7012 4.24401 16.4585 -8.11701 1.27996 -1.1516 -0.939166 
5602 1 11.9868 2.63453 10.9263 -6.68778 1.42808 0.353986 0.268266 
4142 1 10.5831 6.12767 16.4939 -6.94014 -1.56265 5.24392 3.01664 
4706 1 12.5325 6.61143 14.4198 -7.92477 -2.66831 -0.690145 -1.55781 
4202 1 7.58607 1.59859 7.96527 -7.27417 -0.0729766 1.00395 1.4648 
4203 1 7.27691 3.71907 16.9285 -7.43493 -1.2116 -1.52637 0.246801 
3024 1 7.01062 4.4442 10.9595 -8.53148 -0.220952 -1.51899 2.25859 
5181 1 6.97919 4.31254 8.37077 -8.35466 -1.72225 -1.75781 1.28277 
5704 1 10.4529 0.878489 9.12218 -6.03382 -0.0405477 -0.458764 -1.07977 
3623 1 7.86642 6.12552 16.5903 -7.13972 -0.411133 0.550477 0.111269 
4602 1 9.59142 3.80875 8.63041 -7.49073 -0.564832 0.878214 0.542821 
3102 1 12.8207 1.64078 8.19965 -7.17534 0.24344 -1.65195 -1.39426 
5282 1 9.5562 3.99373 14.2741 -7.84993 0.0375279 -0.273678 -0.57461 
5644 1 7.09722 0.993797 13.4997 -6.25025 -1.22065 0.312211 1.06384 
4763 1 8.82972 2.08634 11.3446 -5.72249 3.19689 0.977873 1.62161 
223 2 10.7488 5.67116 9.48039 -24.6356 -1.0198 0.161686 5.24041 
224 3 11.0824 4.85917 15.5503 -26.5439 -0.0186092 -2.49118 -3.56967 
703 2 10.5444 3.16619 12.4393 -24.9777 -2.70468 -2.00482 -1.35852 
1123 3 7.91105 5.59429 12.4349 -26.4641 2.17261 -1.23577 0.579699 
1603 3 7.85359 2.77345 9.84554 -28.8895 2.67222 -0.812928 -1.1754 
1604 2 8.32295 2.18572 15.5962 -24.5792 1.15541 2.41228 -4.82053 
3803 1 9.56043 4.72945 11.1029 -7.24824 -1.05068 -0.181011 1.82196 
4224 1 9.6715 1.29053 13.7406 -6.42862 1.65394 0.198144 1.6045 
3124 1 9.77259 3.47798 16.9311 -8.45104 1.14137 1.08705 0.384917 
4904 1 12.3588 3.47815 13.577 -9.20167 1.05138 -0.128781 3.33791 
3543 1 9.53024 6.58387 13.6314 -8.51539 -1.17505 -1.27831 -0.676367 
3724 1 12.216 1.11442 16.8491 -7.03961 -0.168381 1.16786 -0.282686 
3205 1 9.47391 0.83228 16.7105 -7.95649 -0.59958 -1.25417 -0.473564 
3943 1 2.39286 13.5636 13.2599 -7.57385 -1.00293 -1.08568 0.318395 
5522 1 6.46121 12.6485 10.7926 -8.46473 -1.13317 -2.29892 1.21091 
4643 1 0.925143 12.7252 8.00911 -6.42203 3.53474 1.00324 0.0550102 
1544 3 2.59363 13.0921 15.5615 -28.4713 0.0853582 0.431203 -0.332117 
3663 1 0.909893 12.0742 16.8393 -7.72484 -0.174603 1.93377 4.18726 
543 2 0.243533 13.4604 13.2296 -23.0459 -2.37177 4.38591 0.535957 
5603 1 5.69145 9.40619 11.5934 -7.34189 2.23946 2.39424 -0.0597425 
643 2 5.15223 13.4265 12.8705 -25.6834 -1.01047 1.15722 -1.01047 
3182 1 4.04713 7.28336 10.9491 -6.79762 0.253363 -1.4311 1.96588 
5623 1 6.63547 9.6906 8.90885 -7.94255 0.968886 1.82716 0.16009 
2124 1 6.35107 7.20929 14.5454 -8.01084 1.27422 0.0498432 0.212894 
4002 1 1.14424 10.1742 10.1778 -7.21112 3.86088 -1.58188 -0.223235 
3523 1 3.62686 12.3828 11.113 -7.1094 0.209725 -0.393671 0.206384 
2544 1 4.60725 11.7704 14.1567 -6.31546 -1.02252 -1.44435 -2.0089 
5565 1 0.40752 11.8915 11.9801 -8.39477 -2.72354 -1.90095 -3.19243 
4164 1 3.10589 9.85065 12.2041 -6.79192 1.32773 -2.12693 -1.77944 
3642 1 4.17377 8.85039 8.56634 -7.19708 -3.90446 3.14149 3.08841 
4443 1 0.935112 9.00551 13.4463 -6.28779 1.49815 0.554446 -0.227151 
2942 1 3.90091 9.0388 14.8427 -8.05084 1.47961 -0.169669 0.487209 
143 2 5.06865 11.019 10.1798 -24.2284 -1.4465 -0.638971 -2.06687 
144 2 5.82924 10.3122 15.4587 -24.1467 -5.49103 5.20131 -1.58726 
623 2 4.82705 8.05174 13.1161 -24.451 0.532619 -0.157408 -3.86372 
1043 3 1.96135 11.1798 12.8253 -27.8528 3.2846 -2.14989 0.21391 
1523 2 2.37749 8.28311 10.1919 -24.4644 -0.425139 0.215422 -0.776084 
1524 3 2.53021 7.76999 15.4344 -27.5769 -2.9007 -0.0982407 0.418913 
5002 1 0.32677 7.54386 10.9614 -8.22613 0.453388 -2.00767 -0.757217 
2343 1 0.801039 9.16867 16.1812 -7.59005 -0.695221 -0.902268 2.27402 
4061 1 3.60331 12.2015 8.42908 -7.56678 -0.34491 -1.06225 -0.655645 
3343 1 3.82497 11.4253 16.4651 -6.83561 -1.2164 0.315711 3.34567 
3963 1 1.1578 11.4829 14.6458 -7.43756 0.109274 1.76944 -3.46346 
4644 1 6.40346 9.09016 16.947 -8.05874 0.713866 -2.32713 3.86007 
4625 1 10.0778 12.4759 14.4542 -9.35103 -1.38458 -0.222878 1.70776 
4944 1 13.5291 12.5423 14.0569 -8.07501 -0.614662 -0.147272 -1.45556 
4723 1 9.22979 10.1935 11.5224 -7.40908 -1.56755 0.620659 -2.91022 
1243 2 13.5712 10.7619 12.5656 -23.3709 2.6025 1.08003 0.400024 
3023 1 6.79333 7.06504 11.9107 -7.92633 0.652467 -0.410571 -0.760468 
4963 1 12.9226 9.57988 14.2964 -7.55607 -1.1578 -3.30556 0.984978 
4223 1 9.59671 9.00456 16.7314 -7.65437 0.61206 -0.833899 0.228331 
743 2 11.5064 13.6597 13.2327 -23.877 0.273237 2.18073 0.471974 
4822 1 9.54748 7.50321 10.5696 -7.10471 1.82218 -0.978041 0.964001 
243 2 11.128 11.2987 10.4465 -24.5253 0.00479818 -1.99524 -0.275076 
4783 1 12.6323 7.25811 8.80019 -7.04262 -1.15818 -0.550903 0.144212 
5724 1 12.3031 10.912 16.7606 -7.9453 -2.20522 0.612191 -1.06794 
4143 1 10.0079 12.8431 11.6564 -8.69123 -2.46344 0.774361 -0.337317 
1644 2 8.74229 13.3154 15.8822 -22.9612 -3.95686 1.73776 0.253066 
2923 1 6.87501 11.7663 17.039 -7.97454 0.654533 0.0388487 0.192737 
1143 2 8.70149 11.4107 13.2077 -23.1179 0.304659 -2.37423 -2.23637 
3222 1 12.3926 12.4062 8.9724 -7.3639 2.6531 0.60169 0.637716 
3743 1 10.0355 11.4802 8.65467 -6.15018 -3.87254 0.0451161 0.00326481 
244 3 11.3028 10.7287 14.9626 -26.5009 -0.296088 -1.45369 3.49667 
5524 1 11.518 11.1016 13.1619 -7.68586 -1.44022 1.28915 -4.80931 
3143 1 7.0191 12.5805 13.8301 -7.07899 1.14052 0.0684292 0.0762578 
5144 1 12.1002 9.06716 11.2566 -8.53844 2.27123 0.937505 1.03756 
4843 1 12.614 12.9875 11.4125 -8.00325 0.538067 0.0385124 1.29145 
1624 2 8.4983 7.65029 15.1745 -24.3195 -0.0298821 2.94658 2.3303 
1623 2 7.72139 8.51462 10.2533 -24.0523 -0.0322256 -1.14541 1.89162 
723 2 11.2281 7.65345 12.723 -23.4748 -2.33225 2.95054 0.605104 
5663 1 9.56081 9.17552 13.9311 -6.72518 4.85441 -1.28954 -0.609584 
3622 1 12.0798 9.78113 8.43462 -6.4797 0.75997 0.338879 -0.185678 
5764 1 7.79699 10.2686 14.8121 -7.06965 -0.961001 0.283453 1.08124 
4523 1 7.48196 6.75923 8.9128 -7.26458 -1.72121 0.389139 -0.548534 
125 3 5.40367 5.52538 20.7979 -28.9921 1.28491 -3.42935 0.450021 
605 2 4.86229 2.37947 23.7545 -24.3892 0.250338 -0.894534 -1.30176 
1025 3 2.02508 4.67452 24.2646 -27.0401 -0.336201 -0.270684 -3.40163 
1505 3 2.85947 2.56497 20.7425 -28.2537 -0.00116347 1.68099 2.01511 
604 2 5.67175 2.11006 18.0212 -25.2205 -2.56795 1.69381 -0.903589 
5505 1 6.18492 4.09379 22.1675 -6.70114 -0.0494762 -0.021008 1.59164 
1024 2 2.88429 5.05362 18.0786 -24.6264 -1.24205 -1.22135 -0.422476 
5504 1 4.22295 1.0032 19.1688 -7.14751 -1.40696 2.16863 2.37171 
3084 1 3.89068 4.19393 19.778 -7.26552 1.07767 -2.51215 0.260775 
4506 1 0.760857 3.39937 22.6116 -6.68177 0.764798 1.37564 0.941798 
3624 1 3.39208 3.58863 22.5628 -6.71184 1.90029 -1.5711 1.30193 
126 2 4.89152 5.12899 26.3081 -24.0554 2.8389 -0.869465 2.11155 
4005 1 3.38406 3.39691 25.2708 -9.23664 0.832033 0.0317613 -0.863517 
4404 1 0.295688 0.549358 23.0343 -6.82989 3.63316 2.22344 5.39717 
4185 1 6.54005 3.44461 25.4053 -8.21687 -3.40523 0.537095 -1.53164 
5905 1 1.33225 4.12913 19.6863 -6.99438 -1.05996 -1.16058 0.143467 
3486 1 3.9572 0.490655 25.0954 -7.50812 0.112053 0.541192 0.338921 
5805 1 2.38745 5.82259 22.1269 -6.72743 -1.58394 3.74923 0.90586 
5925 1 6.64448 3.67667 19.5859 -7.54064 0.522212 -0.908043 -1.02791 
4685 1 5.85985 1.24934 22.1154 -7.5068 0.666542 -0.855332 -0.88767 
2984 1 1.16817 0.580426 25.6376 -8.04956 -0.3423 0.937913 -1.59105 
5904 1 1.23888 1.42859 20.653 -8.11277 -0.576959 -0.278804 -3.95054 
2506 1 3.27904 0.911368 22.4998 -7.17143 0.285196 0.839408 -1.11509 
504 3 0.15721 2.05793 18.4931 -27.11 -1.88279 5.42665 0.651359 
5083 1 0.625827 5.97895 25.1263 -7.779 3.35987 0.472733 -3.79981 
5625 1 5.81582 6.14508 24.2471 -6.46862 1.48463 -4.43089 2.42737 
2543 1 0.338178 6.65053 19.5839 -7.74846 -0.611278 -0.381136 -0.44 
3286 1 3.45835 6.21419 25.1799 -8.81532 -2.75943 0.138025 -1.20742 
3986 1 0.349658 3.23339 25.5551 -7.89553 2.69703 0.149433 -0.701381 
25 2 -0.314609 5.09841 21.2962 -24.398 2.2824 -2.22176 -0.555651 
3903 1 1.88035 2.77828 17.3385 -6.6195 -0.0816141 2.01709 1.11993 
5 2 -0.227752 -0.0701685 21.1752 -24.7067 -1.71338 -1.62438 -3.38321 
2003 1 4.6887 6.25586 17.3644 -7.47975 -0.522859 1.39142 -1.15036 
2483 1 0.726879 0.630349 17.6661 -7.62295 -0.019407 -4.1766 -1.68139 
5902 1 7.35231 1.16518 18.9861 -8.01396 0.0422174 -0.560441 -0.14704 
4585 1 6.72139 0.577975 25.0156 -8.63511 0.108826 0.73679 2.38188 
4786 1 10.0176 0.335743 24.4024 -6.59793 -2.3393 2.34983 0.0335594 
2224 1 9.67271 3.2048 20.0459 -8.94566 0.102912 2.35735 -1.96055 
3625 1 9.25601 3.18163 25.3276 -7.70522 0.635448 -0.109364 2.66351 
225 2 10.6359 5.14291 21.0212 -24.0204 2.76679 0.621238 0.141896 
705 2 10.7162 2.69034 23.9344 -24.5273 1.58257 -4.56419 -2.21215 
1125 2 7.91624 5.07996 23.9069 -25.1021 -1.44017 -1.31406 -0.76376 
1605 2 7.85647 2.43176 20.9265 -24.7877 -2.21611 -2.40997 1.99215 
704 2 10.8414 2.13739 18.1415 -24.1901 2.05038 -0.512035 2.27377 
3185 1 8.37988 2.40531 23.0019 -6.86782 0.862789 0.804768 0.503135 
5226 1 12.6777 3.61803 25.2846 -8.18145 -2.16255 -0.0939453 0.99185 
1124 2 8.43017 4.72654 18.4595 -24.4107 -1.44656 2.6806 -0.12515 
4205 1 12.4282 3.87442 21.8249 -7.43082 -2.59083 3.04342 3.65554 
2583 1 12.5903 3.91354 19.1181 -7.42393 -3.12683 0.260788 -3.17435 
3585 1 9.96699 0.420043 19.115 -6.78772 -2.81322 -0.172386 -1.72774 
3524 1 10.6195 4.82074 23.578 -8.05865 -0.338387 0.548044 -2.04956 
1606 3 7.55975 2.10348 26.3514 -26.7921 2.37398 1.69966 2.0408 
3825 1 12.2202 1.13014 19.6656 -7.20889 3.41451 0.543885 -0.704365 
2146 1 9.88503 6.25918 19.2203 -8.15728 -0.140995 -1.71916 0.25721 
2785 1 11.1809 1.43525 22.1397 -6.04138 -0.00174802 1.33419 0.977168 
3305 1 12.2799 0.915312 25.1278 -7.03894 0.638236 3.32294 1.59649 
2803 1 6.94475 6.24574 19.7132 -6.38005 1.16511 0.497646 -0.574982 
5527 1 8.57461 5.44522 21.753 -8.09973 0.419976 0.0973862 0.568251 
3806 1 11.6785 6.33068 25.2883 -7.47317 1.08836 0.204072 0.604083 
3843 1 12.5448 6.3571 20.3346 -6.90725 -1.39308 1.08632 -1.12978 
4126 1 8.58711 5.76743 25.7754 -6.49915 2.54519 1.39984 0.168831 
2105 1 8.55538 0.0867314 21.3497 -6.90783 -0.561514 0.275043 0.924854 
205 2 10.7848 -0.236247 20.8664 -25.9597 1.39586 -1.86423 3.80366 
1225 2 13.0694 5.14686 23.7182 -25.2285 2.16652 1.90273 -1.52529 
1705 2 13.564 2.76481 20.542 -24.8897 2.4811 -4.42889 1.31604 
2446 1 5.89926 7.2308 22.1656 -7.53084 3.81611 -0.161529 -6.10612 
2165 1 5.63535 10.3464 23.2888 -7.2371 1.11058 -1.68474 3.60682 
2823 1 1.45318 11.9683 19.7675 -6.94701 -0.145245 1.85773 -1.82055 
2043 1 0.263711 7.97331 21.9917 -7.08749 0.266634 1.1823 0.0411147 
624 2 4.88175 8.31208 18.5947 -23.8791 5.46975 -1.59989 1.3632 
4123 1 6.61905 8.95195 19.8834 -7.13494 -1.26051 0.0329321 -1.47395 
4525 1 4.16373 6.69727 19.9636 -7.74715 -3.41539 2.95788 -0.438436 
5105 1 5.80903 8.35571 25.5858 -7.26227 -0.3871 2.1334 0.534192 
2547 1 3.36303 8.96787 24.6598 -8.81484 -0.0134272 -0.459348 3.17254 
5424 1 4.0379 10.1625 19.8566 -7.02924 -5.08217 0.139727 -9.10507 
145 2 5.38962 10.4455 21.1677 -24.1441 8.70846 -1.5961 3.39798 
625 2 4.49728 7.65309 23.4524 -23.5223 -2.16054 0.255759 3.83091 
1044 2 2.00327 10.5771 18.0384 -24.3583 2.16793 1.48941 -1.63576 
1045 2 2.5472 10.6115 23.7339 -23.4412 -1.27764 3.50194 -4.01276 
1525 2 1.9755 7.69172 20.7287 -24.0461 0.748507 -1.27677 -0.15634 
4286 1 1.23599 12.0674 24.8744 -7.82603 -0.848117 1.18966 0.342702 
3424 1 3.49086 8.87692 21.7694 -7.80184 -0.549588 -0.783 3.56343 
5463 1 0.93871 11.3053 22.1884 -7.50155 0.3404 1.85155 0.628986 
2444 1 3.61834 13.245 18.8412 -7.78277 -1.724 0.234893 0.194359 
1526 2 2.46089 7.80354 26.4555 -24.5394 1.64651 -0.462701 1.61129 
146 2 5.06351 10.4925 26.0241 -23.0109 1.03412 -2.36853 1.43381 
3985 1 6.65084 12.1375 25.5946 -9.03939 -0.812038 -0.885427 -1.25034 
544 3 -0.0117748 13.5235 18.2031 -26.8698 -1.17677 -0.74558 -0.0705024 
645 2 5.32231 13.2576 23.9932 -24.9342 -0.659176 2.69802 -1.86219 
545 3 -0.0320007 13.0569 23.2994 -27.9813 0.817936 1.84032 0.104524 
1546 2 2.61559 13.2317 26.579 -24.289 -1.20937 3.69128 -2.66861 
3423 1 1.02842 9.28677 19.339 -8.06878 -1.78263 -1.81561 1.41631 
2045 1 4.76962 12.2158 21.9685 -7.00799 -2.78272 3.11273 -0.0647899 
4444 1 3.8709 11.8662 24.8809 -8.66171 0.822618 -0.215498 2.6987 
5125 1 0.725463 8.93998 26.3598 -6.97344 -1.68904 0.206328 -1.20143 
2226 1 0.754816 9.57699 23.88 -6.90214 -2.68212 -1.42396 1.6601 
46 2 -0.108154 10.9237 26.2593 -24.4345 -0.480412 -0.476062 -0.143308 
3525 1 3.09269 8.45828 17.7402 -7.97474 -3.69087 0.719551 -2.56763 
644 2 5.63657 13.2126 18.3218 -23.3225 -1.11464 -0.770804 0.536888 
1545 2 2.96978 13.2572 21.0458 -24.295 -2.0058 -2.48713 -2.42137 
2125 1 2.98996 13.5938 23.1013 -7.01054 -1.34196 1.23766 0.954958 
3605 1 13.0264 7.37711 23.1859 -6.22671 -3.98727 0.878293 1.15163 
744 2 11.4392 13.5628 18.2373 -23.7895 -0.176128 0.095274 0.935754 
1244 2 13.6612 10.9243 18.3064 -24.3671 0.856159 0.914443 -2.1446 
5926 1 7.95697 10.0317 21.692 -6.41567 0.466557 -0.0188846 3.10923 
5224 1 9.58436 12.4056 25.3129 -8.02773 -1.27135 0.211231 -0.52053 
1144 3 8.25243 10.2968 18.0842 -27.5319 -0.926713 -1.1083 0.466307 
3245 1 7.3015 13.0449 22.832 -7.29654 0.255495 -1.32639 1.95641 
4705 1 8.39692 10.1208 26.0167 -6.97145 -2.62241 1.64924 -0.781984 
2624 1 9.61381 9.2381 19.3867 -7.89179 -2.90125 -1.87635 -3.07277 
4245 1 12.4078 9.21341 19.2685 -8.79247 1.42593 -1.33884 -0.857252 
3204 1 12.6443 9.61821 21.9816 -7.58145 -1.70211 1.89322 0.418111 
4725 1 10.1373 10.3575 23.7096 -7.04116 0.853114 -1.28077 -0.534729 
4145 1 9.92261 8.40429 26.5716 -6.70958 0.972872 -2.12543 1.63689 
4065 1 9.74205 12.0938 20.3378 -6.90795 -0.288437 -0.280321 0.0299034 
245 2 10.998 10.1623 20.4678 -23.642 0.692546 5.51996 6.23354 
724 2 11.0753 7.78767 18.2534 -24.1711 -1.33619 -0.73367 -1.70803 
725 2 10.8158 7.96241 23.8055 -24.9932 1.65571 1.02508 1.5626 
1145 2 8.15799 11.098 23.8777 -24.0661 -1.34115 -0.25354 -0.864901 
1625 2 7.99354 7.73334 21.6011 -25.0519 0.547383 1.26014 -3.43798 
2143 1 10.4954 7.83793 21.594 -7.6997 -0.462275 -0.198364 0.455382 
5145 1 12.1866 12.1869 25.6285 -7.21763 0.257819 -1.46005 -0.678291 
1725 3 13.5069 8.10927 21.0793 -28.6356 1.48037 -3.13313 0.337679 
2447 1 8.67195 7.57641 23.6816 -7.66233 -0.653313 -0.234469 0.126079 
4745 1 12.4812 12.0569 19.9551 -6.87384 -2.36701 -0.0905765 -0.415788 
3144 1 6.6739 11.9647 19.7687 -7.89527 0.985018 -1.04425 -1.18075 
246 2 10.6036 10.7449 26.4098 -25.2193 1.34296 -2.22401 -2.36787 
1645 2 8.13052 13.5437 20.4856 -24.7349 -0.224914 0.712577 3.50504 
3765 1 12.3687 9.21321 25.0351 -7.71052 -0.859522 -0.210771 1.31713 
2523 1 9.51833 11.7662 17.66 -8.00053 0.631521 2.77007 -1.84248 
5284 1 12.4484 13.177 22.8249 -6.30775 0.0350487 0.399859 -0.633378 
3184 1 12.9852 7.37615 17.291 -7.79116 0.326737 -1.34833 -0.12195 
1506 2 2.18358 2.19041 26.7065 -23.9546 -0.90131 0.611544 1.69756 
2926 1 0.908494 5.66458 33.2038 -5.59552 0.953663 0.0940578 1.80488 
1006 2 2.363 -0.00685021 29.5123 -23.3847 -2.74518 -1.29113 1.6596 
5526 1 0.60824 0.531326 28.2746 -7.91385 -0.234977 2.60865 0.366428 
3048 1 5.8966 4.05114 33.8903 -6.84568 -1.20093 0.214788 -1.43195 
4025 1 6.02825 3.47704 28.3181 -7.29813 -0.523167 0.192933 -1.99634 
5006 1 6.34927 0.483578 33.9827 -8.10159 -4.84955 0.607668 -2.34272 
3007 1 3.66376 0.731632 31.2878 -8.74079 -0.69428 1.48904 -1.81077 
127 2 5.22572 5.41492 32.2166 -24.8322 0.951305 0.150766 -0.21737 
606 2 4.88969 2.38716 29.678 -23.7747 -1.80911 -2.19902 0.463504 
607 2 5.4654 1.90701 35.2323 -24.0159 -1.16097 3.04935 0.431548 
1026 2 2.10422 4.8788 29.5055 -25.4745 -0.582196 1.21453 0.974593 
1027 2 2.23155 5.51904 35.1274 -24.6851 0.597823 -2.68436 -2.64344 
1507 2 2.2848 2.493 32.257 -23.781 -3.40512 -2.19994 0.698357 
5025 1 2.28647 2.25569 29.5287 -7.26745 -0.616792 -0.0179101 -0.0191207 
4405 1 0.199028 2.94563 33.3819 -6.92592 1.26491 -1.04589 1.53432 
3527 1 0.682909 0.766114 31.2757 -7.57097 2.53421 4.58077 -2.27797 
2007 1 3.10716 0.3554 33.9725 -6.77074 1.22717 0.22881 -1.26124 
4587 1 1.01639 6.55354 30.4644 -6.41216 -0.353131 2.46299 -0.603459 
3484 1 3.12855 4.025 27.7859 -7.52271 1.91905 0.0814476 -1.08069 
4686 1 3.45191 0.743216 27.805 -8.2286 1.59619 -1.08089 -0.841601 
3506 1 6.58135 6.48717 30.4228 -7.76412 -2.32198 1.74326 0.177669 
4008 1 3.63762 3.66206 31.1732 -8.26825 2.80985 2.70803 0.0525601 
5508 1 6.30269 3.66031 30.9306 -8.21735 -1.38872 -0.410955 -0.359351 
2407 1 0.333832 -0.12719 34.227 -6.6217 0.937593 0.0723743 0.25421 
5425 1 0.405567 4.09216 28.2976 -7.13281 0.359601 -0.661224 -0.765257 
4326 1 0.951893 3.94197 31.2229 -6.02103 1.26319 -1.33019 -1.84067 
3507 1 5.89886 0.515122 28.7864 -7.58698 -0.00975131 0.102792 -1.92424 
506 2 -0.287789 2.38137 29.5842 -24.844 2.53156 -2.55655 -0.623522 
4726 1 3.61499 6.26933 33.6512 -6.90827 3.78569 -1.47316 -0.577873 
5507 1 3.4101 3.43433 35.3134 -7.11626 0.0299512 -0.231887 0.464843 
226 2 10.5727 4.87109 26.6398 -24.1635 -1.85201 1.09536 0.539263 
1107 2 8.12114 -0.15847 34.6651 -25.4182 4.27687 -2.4062 3.79407 
5206 1 12.5103 0.782667 33.1896 -8.99131 -0.944854 -1.06794 2.87833 
1227 2 13.6311 5.36468 34.6542 -24.7395 -1.15419 -1.30289 1.56288 
5106 1 12.2931 6.26257 33.2407 -6.91425 -0.468297 -0.45861 -0.502219 
1706 2 13.3478 2.25322 27.0101 -23.6529 1.09929 -2.61905 -2.14731 
4207 1 7.76795 2.74672 34.8214 -6.48463 1.05005 -0.66494 1.26198 
4225 1 12.3787 4.33839 31.2105 -6.7485 2.36384 -2.62677 0.0810877 
3106 1 8.69758 3.68501 27.9587 -6.60688 2.53527 -2.63206 -0.84435 
2606 1 12.1288 3.6369 28.1951 -8.80655 -1.12972 1.82553 -0.563052 
2246 1 8.78234 0.808775 27.8307 -7.50929 -0.938328 0.19879 -0.810192 
2106 1 6.71729 0.683716 31.3574 -6.46062 -3.82285 -0.722953 0.311249 
2584 1 9.52054 3.44769 30.6385 -7.05421 1.01146 1.12631 0.203283 
1127 2 7.93754 4.97213 34.7243 -26.6191 1.14575 1.43486 -1.66722 
1226 2 13.5364 5.00838 29.2792 -24.5926 -0.124006 1.00647 1.64388 
2646 1 12.5581 3.48769 34.0794 -7.42789 -1.81834 -2.04087 0.288243 
4206 1 9.44395 1.48221 33.4873 -8.23773 -1.33894 -2.17287 -5.28917 
227 3 10.7203 4.88898 31.9501 -29.4583 -2.32599 3.33355 0.89635 
706 2 10.4051 2.02142 29.1913 -24.4193 -2.91186 2.08355 0.650386 
707 2 10.7704 2.16214 34.7953 -23.3909 2.88987 2.92225 3.38386 
1126 2 7.63441 4.89 29.4404 -25.9902 -0.61624 -2.09876 -0.269043 
1607 2 7.79705 2.42485 31.9103 -24.6067 1.977 2.11205 2.54585 
3706 1 9.98983 4.61785 33.992 -6.20657 0.0538223 -2.70664 -1.06546 
4026 1 9.29787 6.00771 29.0779 -6.43413 2.89139 3.78068 -1.50269 
3408 1 8.19421 4.88881 32.135 -5.62423 0.041805 -0.805227 0.830529 
4105 1 11.466 1.20283 27.6014 -7.69789 0.45275 -1.0355 -0.812266 
3287 1 12.0044 1.77542 30.6536 -7.63453 -0.247193 -2.26556 0.697057 
3025 1 6.85445 6.02708 27.5056 -6.68509 -4.14848 0.929145 1.37012 
2248 1 11.5039 6.46878 30.5454 -5.8528 0.933191 2.26935 0.0756644 
3307 1 8.92866 1.09622 30.6719 -6.73576 3.8565 -2.67737 -1.84446 
207 2 10.8762 -0.169545 32.1465 -24.0138 -1.95656 -2.44074 -1.20937 