ITEM: TIMESTEP
0
ITEM: NUMBER OF ATOMS
9000
ITEM: BOX BOUNDS pp pp pp
-5.1789700737682232e-01 1.8491897007376970e+01
-5.0667193988417836e-01 1.8480671939883909e+01
-5.9955697862566524e+00 3.1693956978626738e+02
ITEM: ATOMS id type x y z c_peratom fx fy fz 
362 3 4.06666 3.37266 -0.809467 -27.5977 -0.651408 -0.25245 1.05811 
422 3 3.7014 6.74073 -0.814081 -27.7702 1.25852 3.24417 1.15157 
662 2 7.447 3.08496 -1.57078 -24.2845 2.79514 1.67074 6.02809 
722 3 7.75634 6.86001 -0.434656 -29.8279 -0.896189 0.104737 -0.100472 
1501 3 1.75694 1.53726 -3.32416 -28.2874 1.77339 -1.12596 -1.55651 
1561 3 2.25846 4.89321 -3.5757 -27.0977 1.22177 5.07054 2.07097 
1801 3 5.51598 0.994868 -3.21259 -28.2221 -1.7851 3.48168 1.39392 
1861 3 5.89455 5.32308 -3.29404 -28.2893 0.707298 1.76494 0.296159 
5881 1 -0.223639 5.08096 -2.0077 -8.16534 1.30243 0.867546 -2.83677 
5280 1 2.40243 6.80689 -4.80569 -6.75229 -4.25096 -4.51515 -1.01264 
5763 1 2.35398 3.40012 -2.00416 -8.00031 -0.534451 1.00448 1.03974 
4981 1 3.42771 1.07061 -2.40123 -7.37968 0.0788355 -2.25478 3.65437 
4383 1 3.89808 5.54291 -2.37855 -8.36779 -0.647067 0.460633 -0.0810731 
8462 1 6.58884 7.80263 -1.9211 -6.63062 -1.84843 -2.23246 -1.12719 
7918 1 5.79245 4.85129 -1.0316 -7.4937 -0.240245 -0.942011 -0.645623 
7622 1 7.76615 5.37515 -2.78943 -7.33848 1.87936 0.12198 0.770087 
5642 1 8.24494 4.96432 0.19657 -6.01093 -0.897333 -2.33895 -1.62447 
6782 1 -0.335345 5.44376 -5.0679 -8.26612 3.01641 1.684 1.09249 
8821 1 6.21483 7.21004 -4.70594 -6.86901 -0.453856 -3.72423 0.328588 
3541 1 6.6468 3.18847 -3.36113 -7.0775 -3.60901 1.24908 -4.09199 
7202 1 0.101563 1.79359 -2.38666 -8.48609 -1.82773 -0.528223 2.57472 
6961 1 -0.354876 8.89164 -5.17377 -7.51747 0.781526 -1.22523 1.69896 
8520 1 7.38466 0.947741 -2.87007 -8.0373 2.6202 -1.64342 0.915393 
7801 1 4.25792 2.0001 -4.42157 -6.86554 -0.727733 0.0570484 -3.20317 
62 2 -0.370521 3.50647 -0.708711 -22.4739 -1.35668 -4.09933 -1.01618 
122 3 -0.153989 6.76539 -0.982523 -28.0436 -0.63903 3.82815 -0.0672827 
3840 1 4.66827 4.5984 -4.58434 -7.85434 -0.757045 1.22618 -1.52832 
4921 1 5.6222 2.03505 -0.939328 -8.26908 -1.82517 0.521651 -1.00717 
6482 1 3.1533 5.05974 0.244135 -8.65132 -0.678546 -0.0484911 -0.378141 
3722 1 0.261879 5.09979 0.652648 -9.79967 -1.38184 0.109713 -0.412335 
8881 1 0.16617 1.17582 -4.95079 -8.42621 -0.105727 1.34278 -1.31208 
5463 1 7.93673 1.14206 -0.0783828 -8.04204 -1.38337 2.08577 -0.909752 
1621 2 1.92139 8.55588 -3.66802 -25.1577 -1.48152 2.74082 1.45544 
3181 1 3.92653 8.83624 -1.44094 -6.92718 -1.89545 -1.58798 0.734625 
6361 1 5.71334 -0.505871 -0.889135 -7.66034 -1.82959 -0.71058 -1.29116 
7681 1 4.0063 8.10823 -4.12839 -6.49518 3.77247 3.3538 1.46929 
4439 1 1.16253 -0.26708 0.731487 -8.40449 -0.0252582 -1.63849 1.62549 
301 3 3.78575 -0.355436 -5.83621 -28.7529 -2.39399 -1.85126 0.964344 
4443 1 1.49625 6.96776 -2.32141 -8.16583 0.921762 -1.50886 1.48769 
3299 1 1.79672 3.55272 -4.50239 -8.45611 -1.86385 -3.34993 -3.15301 
5700 1 5.35916 7.31105 0.570039 -6.63637 -1.50747 -0.548481 -0.0207953 
4023 1 2.88088 2.00946 0.598219 -7.09932 1.60083 0.914732 -0.0369745 
3902 1 1.66963 8.29287 0.184616 -7.19353 0.205573 -1.31996 -1.97217 
601 3 7.30901 -0.424532 -5.7042 -27.9831 -1.88877 -2.37298 -1.7142 
5460 1 7.2181 1.65509 -5.73249 -7.33385 0.392553 -1.19738 0.518934 
2161 3 10.0104 5.54372 -3.20237 -27.6707 -3.80728 -0.561871 -0.147606 
4862 1 9.16649 6.88162 -4.5587 -7.81826 0.479025 2.07974 0.832794 
3421 1 9.56026 3.12187 -1.99488 -8.23056 1.3955 -0.380414 -1.30083 
7923 1 9.69498 7.12947 -1.57624 -7.72666 -1.53602 1.42072 -2.44778 
7021 1 9.15195 3.36726 -5.09152 -7.88708 3.05293 -1.21741 2.10484 
8761 1 16.0836 7.81621 -4.77761 -7.57962 0.5532 -0.147914 0.295651 
2 2 18.4912 -0.439665 -0.796 -23.2569 3.18738 -0.612544 2.29791 
4561 1 13.8096 5.2323 -5.15487 -6.90421 -0.941092 0.709967 0.218271 
2101 3 9.70071 1.30164 -3.93502 -26.9339 -1.9089 -0.501857 1.26945 
3719 1 11.5328 6.5843 -4.20881 -7.87944 1.00326 -0.629714 -0.753156 
962 2 11.6776 2.96679 -0.902564 -24.1495 -0.181888 4.94219 0.967804 
1022 2 11.3793 7.61835 -0.310894 -25.5025 1.65813 -1.64516 -0.956071 
1262 3 15.1258 3.50023 -0.967812 -27.8975 -0.530761 0.535198 -1.97943 
1322 2 15.3124 7.30821 -1.06217 -24.6758 0.884325 -5.57259 -0.73543 
2401 2 12.9781 1.22616 -3.71534 -25.2967 2.91685 -0.651576 0.958426 
2461 3 13.2972 5.57777 -2.94524 -28.1357 -0.106021 0.394147 -1.41315 
2701 2 17.206 1.3602 -3.78158 -23.8801 -0.867098 0.908127 3.45813 
2761 3 17.1103 5.514 -3.88909 -28.6662 -1.1895 -0.780816 2.74658 
7620 1 11.3933 5.45927 -1.98553 -7.31847 1.80608 -3.16754 0.830681 
5819 1 11.4723 1.12208 -1.83034 -8.17409 0.22605 -0.0807587 -4.49264 
8160 1 14.9105 0.903549 -2.20137 -7.28214 -1.07567 -0.0955291 -0.115398 
4021 1 13.394 3.368 -2.5418 -8.21019 0.358758 0.322572 3.52203 
4562 1 13.1361 7.84122 -2.34629 -6.89281 -1.10362 -3.55558 -1.22 
6301 1 17.2913 3.29944 -4.58905 -7.64403 -0.0622937 1.06671 0.149844 
4799 1 11.7439 3.01903 -4.38928 -8.24066 -1.65461 -0.655213 1.36199 
4262 1 14.6381 2.04504 -4.94832 -7.45188 0.99695 0.783334 -0.00161918 
8941 1 13.7794 2.54471 0.551719 -7.45368 -0.613838 0.695264 -1.93235 
5281 1 11.3516 1.54191 0.604358 -7.02495 -1.73045 -0.261211 2.85749 
7862 1 17.0971 7.22417 -2.38041 -7.41904 1.39326 -0.981076 -0.688794 
5703 1 16.8596 3.34609 -2.13824 -6.89995 -0.439865 -2.20388 1.36793 
6120 1 16.2813 3.30137 0.527627 -7.82799 3.61917 -1.02472 2.36388 
8522 1 16.4491 5.53334 -0.0943009 -7.70459 0.282716 2.96173 -0.644203 
3303 1 15.4559 5.43728 -2.73882 -7.76427 -3.81439 0.382368 0.437564 
4205 1 9.78245 -0.438546 0.280882 -7.95453 -0.325356 -3.93039 0.235823 
4740 1 11.2889 0.469609 -5.12138 -8.26915 0.221459 1.81593 2.97069 
4022 1 16.2483 5.32424 -5.75343 -7.78138 0.408177 0.5033 -1.92875 
3240 1 14.2051 8.36418 0.233515 -6.1805 0.0202452 2.90138 3.41239 
4802 1 13.4917 8.05279 -5.46694 -8.12179 -2.19964 1.53982 1.69297 
3781 1 13.4633 5.58879 -0.560311 -7.29747 2.44348 -1.63263 -0.619064 
3782 1 16.9528 -0.387804 -4.92513 -8.91136 0.25159 -1.70685 0.47399 
7621 1 16.8029 0.706087 -0.325367 -7.78737 0.537142 1.46601 -0.662943 
3841 1 8.2704 9.3207 -1.35692 -6.76617 2.70514 0.0811647 -0.957916 
7680 1 5.58178 10.7381 -5.44632 -6.5532 -2.45742 -1.10408 -0.253449 
302 2 3.25349 18.0706 -0.802224 -23.9904 -0.822062 1.78678 -0.260742 
4620 1 8.86083 18.4487 -4.90525 -7.14514 1.50531 0.0588549 -1.84454 
7798 1 7.42593 9.21452 -4.62816 -6.74432 4.52137 0.149139 1.13502 
602 3 7.72452 18.3278 -1.26364 -28.3251 -0.274571 -0.636343 0.726887 
6841 1 2.03584 18.4395 -4.28469 -6.72904 2.24915 2.51761 -0.700775 
3241 1 0.499188 16.7925 -5.49646 -6.24708 -3.31647 0.33033 -0.135371 
6000 1 8.55051 14.6147 -4.56612 -7.01603 2.20161 0.987546 0.449034 
7081 1 -0.320503 9.13163 -2.22503 -6.64346 2.25875 0.136649 0.150685 
1921 3 5.98581 9.03653 -3.52487 -29.5103 -2.33702 0.175826 1.38906 
5041 1 1.11902 17.9918 -1.91825 -7.25737 4.12994 0.538551 0.551878 
7981 1 5.37344 10.7525 0.44652 -8.1812 -2.14363 0.874227 -0.89505 
3360 1 1.61874 10.7752 -2.96283 -7.43607 1.22608 0.432473 1.02673 
5821 1 3.60362 12.5518 -1.84526 -7.45766 -1.37076 2.27078 -0.797599 
482 3 3.59501 10.7793 -1.00112 -28.445 0.254383 -0.256055 0.498867 
542 3 2.84105 14.3956 -0.250297 -27.775 2.03121 -1.64365 -1.50511 
782 3 7.46876 10.7005 -0.352741 -28.7993 0.338417 2.88775 -2.48047 
842 3 7.11982 14.504 -0.512401 -27.9522 0.14074 1.9322 -0.73668 
1681 3 1.80628 12.7568 -3.72465 -28.6505 -0.00536071 1.22107 0.767495 
1741 3 1.99961 16.4837 -3.66435 -30.6168 -2.32413 0.450731 -0.0466213 
1981 3 5.37767 12.6242 -3.32772 -29.4727 1.24377 -0.248174 -0.30317 
2041 3 5.37423 16.1453 -3.46411 -29.9309 0.368455 -0.726321 -2.34551 
6842 1 8.0186 16.2192 -0.616012 -8.01031 2.42191 1.21074 -1.38074 
7742 1 3.89286 16.9095 -2.47327 -7.82314 -1.98956 -0.814927 2.66605 
4801 1 7.04619 12.6334 -4.58848 -6.41248 -1.35416 1.67678 -1.95845 
3182 1 2.75128 16.2219 0.557411 -8.95917 -0.337512 1.14572 0.111194 
6300 1 2.03668 11.316 0.310964 -7.97855 -1.89304 -1.73621 -0.328333 
6302 1 3.78666 16.4881 -4.98492 -6.92449 -0.99939 0.355039 -2.20988 
5823 1 4.91824 10.7616 -2.63239 -7.10302 1.17266 -1.06739 -1.82095 
7082 1 7.33328 11.6011 -2.40557 -6.55892 0.168728 0.312543 1.72298 
4502 1 5.28832 15.2458 0.12965 -7.55655 -1.75544 0.478028 0.717917 
6720 1 6.0491 14.5488 -2.16074 -6.94937 1.16535 -1.68909 -0.57028 
182 2 -0.465576 11.0515 -1.05818 -24.1263 0.983561 -1.45326 -1.55021 
5400 1 0.0408353 12.9715 -2.34664 -7.79653 -1.41415 -0.563158 -0.334681 
8638 1 0.555682 12.572 -5.53578 -8.17651 -0.700473 0.177678 0.99269 
7738 1 1.95814 14.8044 -1.75949 -6.93833 -0.137306 1.16493 -2.0673 
7739 1 6.92915 12.8098 0.154041 -8.27576 -0.159286 -1.16108 1.60428 
4081 1 1.65728 14.7697 -4.57758 -6.92077 0.834358 -2.47006 0.588387 
6661 1 -0.283324 16.0023 -2.73568 -6.28244 -1.37484 -1.84075 0.489763 
8701 1 1.10861 13.8732 0.679273 -7.70505 -0.395924 0.200252 -0.266475 
4680 1 7.13664 16.7934 -3.20557 -7.51186 2.61802 2.25826 2.00792 
7321 1 6.48246 15.9205 -5.62536 -6.06285 -0.977374 0.430031 0.315168 
8282 1 5.17422 18.4627 -4.10972 -7.53217 1.48207 -1.06062 -1.47048 
6420 1 4.48293 14.3375 -3.97426 -7.07872 -0.525827 -1.02296 -1.3659 
4861 1 3.34035 12.5088 -5.21958 -6.84363 -1.91942 -1.16507 5.56611 
5639 1 2.40098 9.8257 -5.35686 -7.2567 -3.0901 -0.445276 0.985863 
4678 1 11.3741 9.84139 -4.08889 -7.50762 -2.85926 -1.92036 -1.15204 
4738 1 14.9773 10.5857 -4.2913 -6.49491 2.16375 -2.22924 1.38705 
6481 1 15.045 9.09294 -1.99023 -6.10458 -1.40441 2.68215 -8.71996 
6298 1 14.1304 18.4698 -4.68291 -6.45078 -0.0063317 -0.183791 -1.13588 
5521 1 12.5367 18.1212 -3.03431 -7.19802 -1.99872 -2.55555 3.22771 
6902 1 13.0051 18.3926 0.174841 -8.27776 1.55957 -0.560171 -1.90728 
3901 1 17.2516 18.0061 -2.26729 -7.7482 -4.55316 -0.0534816 -3.65572 
902 3 11.1771 18.2706 -1.07447 -27.9452 1.94326 0.788246 0.0178608 
1202 3 14.8322 18.1899 -0.98936 -27.4705 0.966665 1.10558 -1.08151 
2221 3 9.6989 9.02295 -3.08313 -27.5016 -0.206347 0.952378 1.5572 
4500 1 9.01166 11.0072 -5.37705 -6.90373 2.23455 -0.590337 4.66957 
242 3 18.2092 14.7312 -0.850296 -28.1166 1.89615 -0.313135 0.658185 
7441 1 9.26985 14.2362 -2.13084 -8.08283 -0.936271 -0.0106889 3.44671 
3123 1 13.0906 11.0922 -5.32961 -6.95165 -3.00393 2.47442 -2.38243 
7020 1 13.1031 11.0398 -2.27496 -7.84129 0.303353 0.128767 1.09474 
2521 3 13.4038 9.36547 -3.76658 -29.5903 -0.796927 0.202163 0.963407 
2821 3 16.8901 9.21614 -3.51139 -29.5927 0.57923 -0.168344 -0.0909113 
8822 1 11.1954 9.48867 -1.42932 -7.11125 -1.15662 -3.32392 0.225067 
6722 1 16.9294 11.0055 -2.64572 -7.5622 1.43768 2.4598 0.220682 
8643 1 10.7683 16.3382 -1.41706 -8.79723 -0.941613 0.267599 -1.49186 
8641 1 15.8724 16.6515 0.0701943 -8.16753 -4.482 -0.795844 -0.96931 
2341 2 9.3336 16.1367 -3.18447 -24.1557 -1.11813 1.7495 -2.14737 
6061 1 10.0595 11.5311 -2.14702 -6.8275 -0.56259 -0.451835 1.2595 
6003 1 17.1584 11.082 -5.58453 -7.01143 0.604591 0.980087 1.06356 
2281 2 9.06526 12.5705 -3.70076 -26.1961 -2.46641 0.0817444 -0.25712 
5761 1 11.0476 16.3887 -5.07052 -8.85213 0.875486 -0.523905 1.63787 
7261 1 15.1127 16.1059 -4.90066 -7.42121 1.06411 1.4091 0.156102 
4202 1 14.5902 16.337 -2.07584 -7.69572 -1.18611 2.93352 -2.04846 
4742 1 12.9023 14.1707 -2.53143 -7.35967 2.1251 4.35861 2.21966 
7561 1 15.19 12.5542 -1.61426 -6.95499 -1.13148 0.78328 -1.70818 
6241 1 17.3204 14.9246 -4.92228 -8.13851 1.34305 -2.03661 -0.0452064 
6721 1 9.51626 18.3912 -2.72546 -7.94324 1.04103 -0.745528 4.63215 
1082 3 11.4881 11.1991 -0.688549 -28.557 -0.253945 0.437302 0.568386 
1142 3 10.5809 14.5671 -0.410409 -27.8179 1.83115 1.03481 0.437978 
1382 3 14.9969 10.6735 -0.950958 -29.5246 0.0902129 1.50134 1.37346 
1442 3 14.9345 14.7379 -0.981653 -28.3338 -3.41189 -1.56747 1.40852 
2581 2 13.0878 12.5624 -3.71821 -23.9245 3.3056 -2.33971 -2.92673 
2641 3 12.8947 16.0775 -3.77072 -27.6503 2.55471 1.64376 0.709453 
2881 2 16.6144 13.1028 -3.70254 -23.7009 1.62596 -3.49219 0.429904 
2941 3 16.9438 16.5225 -3.77688 -28.2065 0.6644 0.251924 0.863112 
8582 1 11.116 13.2372 -3.81836 -6.88656 -0.464734 0.781325 -3.01158 
4621 1 16.3624 14.6553 -2.27486 -8.81886 3.79812 1.1629 -0.0411998 
5040 1 15.1429 13.0739 -5.18427 -7.98224 -0.0536494 0.114721 -1.35512 
3783 1 14.9778 13.6947 0.713417 -7.36986 -1.49184 2.37864 1.49031 
3542 1 13.392 10.8577 0.414783 -8.26551 -3.02461 1.17115 0.265293 
3362 1 18.1606 16.6544 0.395496 -7.90848 4.98143 1.25027 -1.43986 
3903 1 12.9141 15.5985 -0.143215 -6.87226 2.55987 -0.0148184 0.0878981 
5282 1 16.641 9.22262 -0.563772 -6.72174 3.12251 1.92377 5.0971 
7262 1 17.6375 12.6998 -0.0371925 -7.87078 0.906353 -1.33582 -0.46132 
3662 1 11.6581 13.1508 0.101567 -7.70481 0.966193 -2.16309 -1.67424 
3061 1 13.1832 14.6097 -5.33008 -7.58209 -0.261066 -2.49101 3.94774 
5461 1 5.82722 3.34426 1.3318 -7.45977 -0.143418 -3.60672 -0.603097 
5101 1 3.9983 -0.466419 1.23692 -8.58568 -0.810149 -0.491261 -0.328758 
3002 1 0.2535 2.29627 1.27505 -8.37589 -3.54488 1.49659 -1.38843 
1563 3 1.48479 4.78457 6.91127 -28.6456 -0.683648 -0.108245 1.46021 
7860 1 7.3886 6.59897 1.86235 -6.52693 -2.59835 0.47013 1.14819 
5762 1 8.81876 3.54162 5.79587 -7.58452 -0.350931 0.56875 -1.30149 
7503 1 3.58395 4.36822 2.91837 -6.01515 2.35433 0.191657 -2.06444 
3183 1 1.72596 2.87382 3.31849 -8.20402 -2.31729 -3.50268 1.2516 
5161 1 3.37406 5.66838 7.0349 -7.10048 -3.62802 3.06983 0.337121 
363 2 3.48183 2.63875 4.65648 -24.2503 1.39531 6.76615 0.443836 
423 3 3.11014 7.29428 4.52168 -29.6895 0.0401297 -1.27441 -0.889439 
663 3 7.27074 3.11121 4.19499 -27.6769 0.286684 0.11163 2.13317 
723 3 7.23696 7.33196 4.71807 -27.5262 -0.978454 -1.22386 0.221835 
1502 3 2.20805 0.825367 2.34403 -26.5955 -0.299089 1.94782 -3.37084 
1562 3 1.66091 4.49942 1.76459 -27.6127 4.74211 -0.373339 4.60081 
1802 2 5.77938 0.844361 1.12244 -24.7594 0.77562 0.40888 -0.289384 
1862 2 5.7503 5.115 2.23746 -24.3315 -2.14906 5.11022 2.30262 
5882 1 5.49469 3.96518 4.76748 -6.18899 -0.300427 1.97856 -1.97278 
3601 1 2.89843 1.03106 6.00305 -9.0733 0.97804 -1.87474 -0.201509 
4082 1 7.16812 1.41182 2.97643 -8.82539 -0.518912 0.541038 -1.57293 
6183 1 7.47318 5.1908 3.89673 -8.40818 1.71443 0.305725 -0.152234 
6362 1 8.81756 0.551595 5.41665 -7.80261 0.755255 -0.832271 1.12488 
8943 1 4.3117 3.09928 6.73266 -7.29165 -3.6891 0.390487 2.06685 
7382 1 1.56368 -0.486432 4.01825 -8.87135 1.64715 1.80364 -2.12996 
7444 1 2.14815 5.07591 5.01629 -6.44924 -0.708961 -0.0329887 0.982316 
5222 1 5.10363 7.01323 4.06342 -7.01714 1.41599 -1.44527 0.0604913 
8344 1 6.02581 6.48007 6.89541 -6.95331 1.76084 3.0977 -2.54629 
6243 1 1.3086 7.85558 5.70634 -7.47106 -1.02237 -1.15626 1.39991 
4203 1 0.652271 2.60503 6.20529 -7.71768 1.65073 -0.24211 -1.3966 
7921 1 2.37147 6.91569 2.80248 -5.62813 -3.47621 -4.63999 -0.978771 
6843 1 4.21464 1.25864 3.26603 -8.87901 -1.29339 -2.16951 0.305414 
603 2 7.05567 -0.177213 4.36057 -23.438 2.70234 -1.40524 2.45561 
7803 1 -0.0152593 5.11365 3.45134 -9.05409 -1.45372 -1.84566 -2.83083 
63 3 -0.427418 3.23347 4.54187 -26.5843 1.51077 -0.111047 1.78058 
123 3 -0.187455 6.79695 4.37191 -27.1826 1.74862 -1.00485 5.32406 
3242 1 -0.335113 5.01138 6.09202 -7.74676 -1.04301 -0.749723 -3.36852 
5943 1 3.55204 8.7503 2.43777 -5.96931 2.11392 3.15157 -0.665128 
1622 3 1.42465 8.91913 1.90115 -28.7832 1.43453 -2.02867 -0.680413 
3422 1 0.454532 8.26955 3.51463 -7.5341 -2.48345 3.80614 -0.845347 
5942 1 7.29719 8.9229 6.39347 -8.55069 0.545599 -0.345081 -0.927557 
1803 2 5.33061 1.3047 7.41775 -23.7952 1.02035 -2.08417 1.49439 
5043 1 6.02613 1.76897 5.54087 -7.45319 2.39373 -3.67668 -3.10471 
1863 3 4.97695 4.97727 7.17504 -28.9847 4.21383 -2.38024 1.43986 
7263 1 13.7126 2.85905 6.24381 -8.96295 -0.802487 0.031318 -2.18728 
2103 3 9.89782 1.19338 7.38853 -27.9896 -1.81789 1.3666 0.945316 
7682 1 12.5208 7.23775 1.42541 -6.3623 -1.57873 -2.39277 3.08184 
4622 1 17.2883 7.10625 6.31953 -7.25296 -1.48473 2.24136 -1.03589 
7140 1 18.1254 7.51068 0.84107 -8.10108 -0.160701 -1.87826 0.681231 
5163 1 9.56987 6.88519 0.989405 -6.83706 3.28358 4.85066 -1.86296 
6545 1 9.58251 7.21387 6.15745 -7.9016 -3.73851 -1.41536 0.765279 
5102 1 8.9902 3.12438 2.37021 -7.52388 -0.339767 3.29793 2.47962 
2162 3 9.23056 5.5386 2.21388 -29.0417 0.202235 -2.18382 -0.611633 
2102 2 9.18466 1.2011 1.67176 -24.6274 2.16814 -1.53095 0.313813 
4382 1 9.23071 7.46757 3.4921 -7.72525 -1.34875 -0.49515 2.21403 
5160 1 14.5655 5.73614 2.40126 -7.0336 2.64227 -1.52469 1.06792 
6541 1 14.9779 1.54123 3.37303 -7.47358 -0.970577 -0.37383 1.7335 
7562 1 11.0837 0.979785 3.39513 -7.86637 0.0220483 0.842173 -1.80003 
6063 1 15.4936 5.27521 6.08899 -7.93929 1.41134 -0.494653 -3.3494 
3844 1 12.8291 3.02135 3.20779 -8.14386 3.21293 0.77298 -3.17979 
4922 1 11.2662 1.7708 6.14852 -7.80568 0.749204 1.44115 -1.03099 
6783 1 16.6733 3.78885 3.33936 -9.68936 2.96758 -0.139375 0.130345 
3063 1 11.0815 5.45246 3.51251 -8.56375 -0.892413 -1.03449 0.975155 
6662 1 11.1829 4.50401 0.910262 -7.0142 0.924259 -0.549398 -0.697166 
963 2 11.7712 3.50663 4.79079 -22.7703 -4.40578 1.11357 4.16202 
1023 3 11.0294 6.91177 5.12997 -27.669 2.90267 3.21185 -3.14946 
1263 2 15.0148 3.45264 4.5537 -22.9754 -2.2938 0.318839 1.20312 
1323 3 15.2341 7.1706 5.31477 -27.0092 -1.02215 0.797926 0.0167216 
2402 2 12.9813 0.970722 2.05326 -24.7303 0.759976 4.30572 -2.2827 
2462 3 12.8228 5.20527 1.80518 -28.397 -0.167272 0.660788 -0.351299 
2702 2 17.0098 1.61924 1.64259 -23.0066 0.311596 2.35056 3.1698 
2762 2 17.1519 5.43591 1.94983 -22.8138 -1.25398 0.905089 -1.15374 
5522 1 13.3315 7.89005 5.26789 -6.90504 0.0882054 -1.77991 0.830779 
4323 1 17.1694 7.18053 3.40072 -8.96743 -3.3474 -0.436819 -0.19397 
3305 1 12.8272 -0.45293 5.4804 -8.10713 0.858155 3.92848 1.38941 
6303 1 16.9644 2.6941 6.47157 -7.95134 -1.04203 2.32311 -2.82377 
6423 1 18.049 1.16644 3.74176 -8.92209 0.44308 3.95691 -2.29242 
3 3 18.4117 -0.283982 4.73133 -28.0053 0.722891 -5.33885 0.144764 
5402 1 16.0281 -0.119087 1.77959 -7.21257 -1.5345 -4.71504 0.595166 
3963 1 15.6285 0.118031 6.98644 -6.84988 -2.32323 0.595114 -2.05976 
4204 1 18.0265 0.147158 6.4984 -7.01035 1.64669 1.47308 2.11239 
4442 1 10.9831 5.00328 6.5454 -8.84877 1.75148 0.13865 -1.68916 
5220 1 13.2533 5.2248 4.97808 -7.82077 -0.715785 -1.45219 0.560672 
2822 2 16.7478 8.93312 1.69158 -23.9473 -3.24663 0.765808 1.30227 
2763 3 16.9974 4.81817 7.43057 -29.7127 -0.553721 1.15976 0.79769 
2163 3 9.0224 4.88223 7.26311 -27.63 -0.658103 -0.524131 2.43961 
2403 3 13.4294 1.25677 7.29627 -28.4638 0.269318 -1.652 3.26205 
2463 3 13.1772 4.99588 7.44403 -27.7774 -1.17941 -3.58949 -0.66969 
7922 1 7.39605 9.55139 1.15404 -7.92123 2.5175 -2.68747 1.9864 
3480 1 3.79301 13.1687 0.804743 -7.58389 1.11085 -0.65813 2.48013 
1683 2 1.71775 12.8813 7.2851 -24.4465 -2.41827 0.573172 -1.48032 
6602 1 7.10118 17.8144 1.1163 -6.561 -0.948652 1.78631 0.0299227 
1623 3 1.11029 9.13699 7.41273 -28.0136 1.6759 1.08847 -0.591578 
3602 1 5.73433 18.0823 6.07437 -8.66955 -0.158962 1.14472 0.677621 
7802 1 3.65057 9.00175 5.449 -7.25513 1.3488 -1.01586 1.14468 
6123 1 5.53334 17.8409 3.29679 -8.63295 -0.956955 -1.46701 1.67669 
303 3 3.81402 18.3221 4.83593 -25.4868 0.0999686 1.86657 -2.13998 
3543 1 8.84883 18.2323 2.89105 -8.16709 2.25222 0.269017 1.18163 
6663 1 5.36136 14.9996 6.33187 -7.96157 4.17298 -0.257504 -2.99961 
183 3 -0.381476 10.353 4.45632 -27.7455 2.29242 1.4893 -1.42739 
3243 1 3.22521 16.4859 3.13733 -9.22706 0.271691 1.31063 -1.1431 
6544 1 3.56008 12.5877 6.17042 -7.61845 0.949873 -0.41849 -0.486264 
4923 1 1.88108 10.3885 3.01698 -7.64961 -0.881355 4.12278 1.14754 
1922 2 5.4909 9.37015 2.08082 -24.543 -0.714009 -2.6853 0.471998 
4384 1 6.85775 8.9981 3.745 -8.24016 1.60545 1.56733 0.385198 
8884 1 1.42377 14.605 5.77749 -8.67921 -1.20614 -0.117059 1.2822 
8162 1 7.47491 13.2277 5.67399 -7.89425 -0.00997025 1.71425 0.17812 
5223 1 0.886557 14.8739 3.09411 -7.7353 1.16393 -0.14305 1.96082 
6122 1 5.16573 14.3317 3.15138 -8.17538 -4.20549 3.04215 2.55067 
8583 1 6.87327 15.5324 2.12909 -7.24315 2.5422 -0.161934 2.01212 
7023 1 5.13729 11.3306 3.32283 -7.8382 -0.892841 -2.01474 -1.17506 
483 2 3.43988 10.9547 4.75726 -25.2856 0.0474311 1.04531 -1.50291 
543 2 3.1755 15.0315 4.59547 -23.2265 0.709653 -5.51192 1.63483 
783 3 7.45336 10.9966 5.15212 -28.2921 -0.276481 1.05983 -1.00466 
843 2 6.67618 15.0616 4.5401 -23.1256 3.48496 -0.774598 -0.734719 
1682 3 1.51026 12.4083 2.10907 -27.8865 0.724533 0.864843 0.13097 
1742 3 1.33855 16.4339 2.1669 -26.5445 -2.41498 0.883802 -1.07435 
1982 3 5.58506 12.9031 1.9744 -28.207 -0.390941 -1.5906 -1.48384 
2042 3 5.18856 16.444 1.691 -27.8838 -0.145783 1.80011 -0.597259 
8642 1 3.53781 16.8108 5.79998 -8.5146 -2.26581 -0.749374 2.01188 
8882 1 0.157203 16.9869 6.04908 -7.21487 -0.994163 -1.5654 -2.11074 
6543 1 2.81274 12.9834 3.62468 -7.61357 -0.086875 0.00400414 -0.484672 
3484 1 7.22065 12.8148 3.27282 -7.35959 0.565156 0.187527 -1.23854 
4983 1 1.3445 10.6953 5.6702 -8.00688 -0.209067 0.0926824 0.681285 
243 3 -0.473275 14.4403 4.80744 -27.9592 -0.180114 -0.0398823 -0.614455 
3122 1 -0.0362523 12.3248 3.56227 -8.34871 -0.967735 -0.283721 -1.27366 
6124 1 5.69918 10.9667 6.03626 -7.44716 -0.121074 0.166828 1.45834 
7741 1 8.97732 10.8723 3.57474 -8.42847 0.980196 -1.00567 1.33454 
8041 1 8.45361 16.6523 5.01367 -7.38175 -2.58063 0.202679 1.9099 
3304 1 9.05236 11.1099 6.60711 -7.1999 -1.83135 -0.8372 -0.678985 
8880 1 9.23805 11.3389 0.937941 -7.13904 0.717197 0.803854 -0.602084 
5941 1 9.02401 14.5191 1.12179 -8.30126 0.0778467 -1.11637 -2.73483 
6422 1 13.0977 10.7897 3.38711 -6.97762 0.130714 0.729404 -3.07767 
7861 1 18.4099 10.1611 1.60345 -8.75044 2.29827 3.0103 -0.311096 
4261 1 15.5502 11.3516 1.30947 -7.05834 2.4117 -2.10613 0.0317796 
4619 1 17.5641 14.5711 1.53222 -6.07375 -1.22795 0.505987 -0.14807 
2642 3 13.1301 16.2792 1.67266 -27.8681 -1.38437 -0.483863 -1.71122 
7683 1 10.8441 15.2439 6.531 -7.49295 -0.116151 -1.01814 0.365168 
8284 1 15.298 12.2723 6.23124 -7.47618 1.15437 3.26476 2.78149 
3961 1 14.7838 12.5845 3.58355 -6.61207 0.578823 1.28683 -1.85237 
5403 1 11.1438 15.8207 1.6219 -7.1886 -2.59104 2.04495 -0.647016 
3364 1 11.2485 9.28307 1.24419 -7.42348 -2.79253 2.58119 -1.48643 
7325 1 16.416 17.7176 4.90945 -7.33397 -1.37442 -0.203232 0.562567 
7384 1 11.1993 9.32447 6.17119 -5.99047 -2.82894 0.266314 -0.333765 
2943 2 16.7913 17.1444 7.06418 -25.6663 0.524717 -0.85889 0.744613 
1203 3 14.2825 17.9731 4.44888 -27.1589 2.73293 -1.53807 -0.469193 
903 2 10.8047 18.2691 4.54918 -24.1168 -3.18231 0.487708 2.84874 
7322 1 14.9134 9.00884 2.90703 -7.11096 0.790864 -1.62989 0.567087 
8221 1 13.1213 17.9608 2.58053 -8.44378 0.318903 0.684778 3.32363 
6062 1 15.2605 16.5457 3.00757 -8.37761 -1.45871 -1.95471 0.43938 
6002 1 13.3493 14.8987 2.85674 -7.62761 1.21673 -3.03014 0.675084 
7442 1 18.3394 12.8484 6.46671 -7.86244 1.04083 0.881036 -0.578661 
2282 2 9.25944 12.9747 2.68933 -24.5981 1.47032 -4.24602 -2.69892 
3363 1 16.4907 15.0734 6.17173 -7.75183 0.307315 -0.767005 -2.32026 
8042 1 9.58093 14.6998 3.70994 -7.36638 -0.939627 2.46528 0.786168 
2942 3 16.7073 16.8361 1.76899 -28.1449 2.3035 -1.41333 2.5905 
4083 1 11.7488 16.4576 4.2798 -6.89655 -0.364375 0.941115 -1.74268 
1083 3 11.5244 10.9102 4.60387 -28.8146 -2.50604 -1.73342 -0.152196 
5644 1 16.7938 14.0006 3.83342 -7.67566 0.851906 0.538475 0.73467 
1143 3 11.4602 14.6317 4.48968 -28.8743 0.860183 -0.712346 -0.212268 
8101 1 17.4321 9.85774 5.7596 -7.28751 1.60204 -2.52644 4.28876 
4441 1 16.7472 10.6491 3.82905 -6.79963 -0.172975 1.60816 -4.20883 
2582 3 13.5823 12.4912 1.77401 -29.1326 0.206356 1.01774 1.39049 
2882 3 17.0207 12.6138 2.07672 -28.9801 -1.71163 1.31108 0.37717 
2283 3 9.12853 13.5441 6.79513 -27.876 1.30022 -2.38704 1.16122 
2222 3 9.17272 9.14208 2.37841 -28.4609 1.67676 -0.180618 -0.720811 
1383 3 14.9437 10.9977 4.98534 -29.9209 0.475276 -2.11138 -3.58891 
8040 1 11.5148 12.5631 2.48104 -7.37947 -0.915592 0.0238884 2.63939 
2522 3 13.078 9.33957 2.05101 -29.6916 0.558171 -3.12668 -0.0854778 
7982 1 13.1028 10.8313 5.72158 -6.7965 -1.2878 3.31241 4.12946 
3724 1 11.2317 9.01442 3.77829 -6.15033 -0.808859 0.10761 -1.858 
1443 3 14.9963 14.7607 4.39214 -28.6891 -1.45526 -1.47062 1.09592 
8283 1 14.9304 9.47084 6.64676 -7.72746 1.48576 -2.55648 1.46391 
7502 1 10.7147 17.8671 6.97974 -8.2533 -0.87762 1.97781 -2.09998 
5641 1 18.3522 17.0637 3.24376 -7.61109 0.82008 0.471301 -1.84784 
2342 3 9.01159 16.5734 1.75969 -28.1604 -1.62799 -0.922381 -0.364516 
8341 1 13.0989 13.7049 5.18377 -7.63443 -1.09914 -0.908099 2.76212 
8702 1 13.7364 16.2685 5.82545 -7.13917 2.64152 -0.533734 -0.41386 
3482 1 10.3527 12.7905 5.15282 -8.26761 2.18508 -0.382507 -0.0112763 
2583 2 12.716 12.6428 7.30085 -24.1725 2.30276 0.0837525 -0.438673 
364 3 3.76643 3.02525 10.4637 -28.236 -1.9502 3.81076 0.484345 
424 2 3.29606 7.27191 9.73944 -25.1244 1.05925 -0.13493 1.53575 
664 3 7.16795 3.08998 9.86936 -28.4527 3.55843 2.66477 -0.720905 
724 3 7.55221 7.56836 10.1582 -28.2039 -0.0270805 -3.42288 0.674431 
1504 3 1.25098 1.42965 12.6634 -29.024 2.04743 1.21345 -0.527581 
1564 3 1.71358 5.4739 12.8203 -28.6339 1.41121 -2.45732 -1.75482 
1804 3 6.03703 1.58576 12.6972 -28.1213 -0.486801 -1.55085 1.14668 
1864 3 5.22925 5.74629 12.1035 -29.2932 2.7671 -0.509738 -0.68947 
5162 1 7.61332 1.4847 11.0875 -8.79143 -1.19535 -0.526905 0.54388 
6364 1 5.43077 2.41505 9.17242 -8.35825 -0.135026 1.28942 3.92746 
6242 1 4.64613 7.61318 11.7796 -6.38028 1.22119 -0.525315 -2.06517 
7804 1 3.69482 1.44653 11.9471 -8.16099 0.874091 1.93814 -0.834409 
4144 1 6.99083 5.87269 10.8453 -6.60797 -1.53128 -1.49973 0.585229 
8405 1 7.51686 4.90097 13.8685 -7.26921 -0.790032 0.0216231 -1.45926 
8823 1 5.62907 7.69741 9.36322 -7.5444 -2.63897 1.14446 -0.274219 
7324 1 1.88711 7.13775 13.838 -8.97329 -1.02345 2.50903 2.22439 
8763 1 5.49564 -0.292734 9.11773 -8.4702 0.0757469 -0.890729 -1.80388 
3723 1 5.78676 -0.0949495 14.1593 -7.50325 -0.439908 -1.80622 0.699044 
8525 1 5.74064 3.35053 11.929 -8.19053 -0.393005 0.741887 -3.17167 
8705 1 3.53672 4.98495 11.5683 -6.49204 -0.930655 -2.18005 0.747133 
6724 1 2.18074 3.70767 13.8041 -7.09727 -0.198402 1.45851 1.58856 
4326 1 1.68735 6.67378 11.1848 -7.47849 -0.657125 0.514621 -1.0325 
6726 1 8.88083 4.0889 11.0011 -6.88074 1.23451 -0.21072 0.774327 
64 2 -0.29256 3.55248 10.1429 -25.3097 0.645167 -0.645245 -0.45352 
8644 1 1.51075 3.20837 11.3623 -7.60525 -0.603882 -0.487708 0.285971 
7204 1 0.641244 -0.40133 13.066 -7.42327 -0.216326 -0.24962 -0.211107 
3663 1 -0.410838 8.96394 11.1307 -7.34679 -1.38699 0.152559 1.62124 
604 3 7.50771 -0.442728 10.2976 -27.6186 -1.10973 -0.640715 0.0207232 
304 3 3.64898 -0.0831658 10.5657 -28.3987 2.25246 -2.77208 -0.529762 
3665 1 4.20643 6.06403 13.7517 -7.40153 1.07927 -0.745964 4.1319 
6004 1 3.05178 1.65143 9.2096 -7.8998 1.33051 -1.91417 -0.00546604 
8463 1 6.80623 7.43168 13.0241 -7.11867 -0.45451 -0.772057 2.5986 
3065 1 7.93966 1.54171 13.8965 -8.31289 -0.521554 1.76988 0.468018 
8464 1 4.33306 5.16511 9.38135 -6.56835 0.0758031 -0.305517 -1.16725 
5944 1 8.93568 6.74786 8.86995 -7.90191 0.723982 -0.406669 -0.169337 
7022 1 6.93618 4.34053 8.04315 -7.14617 1.62934 -0.664872 0.120374 
124 2 -0.089304 7.08242 9.81159 -25.027 -2.872 1.5527 1.61807 
7385 1 -0.143095 1.51322 8.76298 -8.20086 -1.52298 -1.53991 1.07359 
5042 1 5.65544 -0.248278 11.6689 -8.32112 1.29191 0.568843 -1.74317 
3721 1 -0.177235 5.14357 8.50166 -7.02427 -0.152628 1.8992 1.29276 
7383 1 1.87918 -0.181596 10.7854 -7.56944 -4.81888 0.256443 0.460801 
4803 1 1.4606 3.47123 8.69735 -6.48051 2.2617 0.513938 -1.28732 
4863 1 1.32733 7.37191 8.36916 -8.04555 3.61454 -1.08501 -2.07375 
8165 1 -0.246353 1.84263 13.9374 -7.39784 0.268313 -0.0127787 -0.371264 
8524 1 -0.253191 5.4166 13.7617 -7.35397 1.34374 -0.204405 -1.55405 
6542 1 7.77537 1.31947 8.18562 -7.15272 -0.500048 -1.16139 -0.0276155 
1503 3 1.59005 1.24627 7.88502 -28.1919 -0.207894 0.593576 -0.835443 
3964 1 18.2868 1.67024 11.2589 -7.76002 0.956146 -1.92776 0.393925 
8944 1 11.8471 0.892125 8.46544 -7.35411 -3.06088 -1.04516 1.57273 
4 3 18.4265 -0.425765 10.3723 -27.8832 1.80213 1.396 0.795665 
2523 2 12.7085 8.82604 7.52101 -24.505 3.82355 1.00896 -2.19271 
2104 3 9.2553 0.851156 12.9464 -26.1564 4.7076 3.13138 -3.66597 
2164 3 9.306 5.43811 12.877 -28.7486 -1.13975 -1.43481 -0.290812 
4982 1 10.2413 1.5126 10.9773 -8.0831 -0.11645 -2.84399 -0.239867 
8703 1 16.457 6.36968 9.03633 -7.45106 1.27958 1.3567 -1.28897 
8103 1 14.6925 5.37098 11.5055 -8.4512 -1.57783 -2.44424 -1.2557 
3664 1 11.4873 5.51902 11.8412 -8.01615 -0.127553 -0.385547 0.955948 
964 3 10.9879 3.28811 10.5185 -29.5141 -1.19759 1.84403 -1.92616 
1024 2 10.991 7.02406 10.3043 -24.0731 2.29635 0.151915 -2.00225 
1264 2 14.5705 3.35227 10.1721 -26.0856 2.92917 -3.02293 3.50941 
1324 3 14.8724 6.73751 9.88839 -28.0259 -0.439993 2.54916 1.69405 
2404 3 13.0031 1.49095 13.1951 -28.9771 2.52706 1.35565 -2.93619 
2464 3 13.3362 5.13735 13.1948 -28.5988 0.878193 0.757494 -1.60741 
2704 3 16.3657 1.33483 12.9662 -29.0434 -0.112012 3.02578 -1.00989 
2764 2 16.6916 5.42941 12.6761 -25.5342 -0.526387 -1.4192 2.47232 
3842 1 12.4088 2.85546 11.665 -6.83356 1.26729 1.45982 2.11151 
5883 1 12.7963 3.0974 9.17515 -6.02018 -1.50544 -2.31393 -2.0733 
6903 1 14.4777 1.48127 11.4722 -5.40916 0.438838 -0.968733 2.36406 
5523 1 13.2644 7.59536 10.6212 -6.94955 -4.12019 -1.23924 -0.0375717 
4263 1 16.8096 3.61462 9.07305 -6.85671 2.70781 -2.45381 1.86028 
7025 1 13.5686 7.33602 13.6924 -7.03581 -1.64415 0.771957 -1.21228 
904 3 11.2772 -0.260951 10.3569 -28.5984 0.552407 0.0522407 -0.708589 
7983 1 18.2709 5.63225 11.2437 -7.86041 0.827854 -2.81748 -0.628502 
4744 1 16.4068 -0.243842 11.8302 -8.12955 1.12209 -1.68378 0.373293 
8942 1 11.8625 5.14877 9.12564 -7.01618 -1.76376 4.93634 0.748618 