LAMMPS (11 May 2018)
# Sample LAMMPS input script for thermal conductivity of UO2
units       metal
atom_style full
boundary p p p

# Reading the input structure file
atom_modify map array
read_data U25.5x5x60.lmpstr
  orthogonal box = (0 0 0) to (17.974 17.974 310.944)
  1 by 1 by 24 MPI processor grid
  reading atoms ...
  9000 atoms
  0 = max # of 1-2 neighbors
  0 = max # of 1-3 neighbors
  0 = max # of 1-4 neighbors
  1 = max # of special neighbors

# Setting the variables to elements as they are assigned in the input structure file

variable O equal 1
variable U equal 2
variable Zr equal 3

# setting charges as these were previously unset

set type $O charge -1.1104
set type 1 charge -1.1104
  6000 settings made for charge
set type ${U} charge 2.2208
set type 2 charge 2.2208
  750 settings made for charge
set type ${Zr} charge 2.2208
set type 3 charge 2.2208
  2250 settings made for charge

pair_style      hybrid/overlay  coul/wolf 0.275 10.96 eam/alloy
pair_coeff      * * coul/wolf
pair_coeff   *    *  eam/alloy  UZrO.eam.alloy O U Zr

compute   peratom all pe/atom pair bond
compute   pe all reduce sum c_peratom
compute   ke all ke/atom


variable    T equal 3000
variable THERMO_DAMP equal 0.100
variable BARO_DAMP equal 0.500
variable  etol equal 1.0e-8
variable  ftol equal 1.0e-10
variable  equilsteps equal 10000
variable  half_equilsteps equal v_equilsteps*0.5
variable  TCsteps equal 2500000
variable  zunits equal 20
variable  nslabs equal 20
variable  thickness equal 1.0/v_nslabs
variable  swapsteps equal 50
variable  dimension string z
variable  temp atom c_ke/0.0001292355
variable  dt equal 0.002
variable  currenttime equal ${dt}*step
variable  currenttime equal 0.002*step
variable  initialsteps equal 5000
variable  rampsteps equal 10000


timestep     ${dt}
timestep     0.002
thermo ${swapsteps}
thermo 50

velocity all create 300 164336

fix thermostat_fix1 all npt temp 300 300 ${THERMO_DAMP} aniso 0.0 0.0 ${BARO_DAMP}
fix thermostat_fix1 all npt temp 300 300 0.1 aniso 0.0 0.0 ${BARO_DAMP}
fix thermostat_fix1 all npt temp 300 300 0.1 aniso 0.0 0.0 0.5

run ${initialsteps}
run 5000
Neighbor list info ...
  update every 1 steps, delay 10 steps, check yes
  max neighbors/atom: 2000, page size: 100000
  master list distance cutoff = 12.96
  ghost atom cutoff = 12.96
  binsize = 6.48, bins = 3 3 48
  2 neighbor lists, perpetual/occasional/extra = 2 0 0
  (1) pair coul/wolf, perpetual
      attributes: half, newton on
      pair build: half/bin/newton
      stencil: half/bin/3d/newton
      bin: standard
  (2) pair eam/alloy, perpetual, copy from (1)
      attributes: half, newton on
      pair build: copy
      stencil: none
      bin: none
Per MPI rank memory allocation (min/avg/max) = 7.943 | 7.956 | 7.97 Mbytes
Step Temp E_pair E_mol TotEng Press Volume 
       0          300   -131181.19            0   -130832.22    202173.14    100455.02 
      50    306.75922   -131594.52            0   -131237.69    4368.1889    106881.71 
     100    293.77256   -131578.21            0   -131236.49   -1164.0708    107048.08 
     150    298.21751   -131578.77            0   -131231.88    482.11235    107086.03 
     200    304.30922   -131581.34            0   -131227.36    1047.7789    107079.48 
     250     304.9499   -131582.66            0   -131227.94   -287.31478    107100.98 
     300    303.00968   -131586.05            0   -131233.59   -418.32516    107099.01 
     350    301.27629   -131588.45            0      -131238    67.884818    107099.61 
     400    295.47518    -131582.3            0    -131238.6   -12.261535    107120.32 
     450    299.71096   -131581.45            0   -131232.82   -607.98578    107131.28 
     500    303.56934    -131580.6            0   -131227.49    164.38429    107150.17 
     550    298.90509   -131577.11            0   -131229.42     290.1493    107128.14 
     600    297.06032   -131578.14            0    -131232.6   -178.83939     107181.3 
     650    301.57595   -131586.59            0   -131235.79    -142.7968    107239.15 
     700    298.23332   -131584.87            0   -131237.96    714.92989    107178.53 
     750    298.70008   -131584.71            0   -131237.26   -123.12365    107179.58 
     800    302.45183   -131580.93            0   -131229.12    125.58638    107187.09 
     850     307.0165   -131582.63            0   -131225.51   -274.29633    107185.36 
     900    299.32976   -131579.13            0   -131230.95    177.92155    107206.33 
     950    296.85204   -131581.32            0   -131236.02   -346.40808    107217.09 
    1000     298.9086   -131585.72            0   -131238.02    63.642554    107180.35 
    1050    299.32072    -131584.5            0   -131236.33    154.88199     107150.3 
    1100    306.11748   -131585.87            0   -131229.79   -163.19421    107172.03 
    1150    304.80629   -131579.87            0   -131225.31    19.708384    107210.51 
    1200    303.22327   -131581.77            0   -131229.06   -332.18794     107237.5 
    1250    302.26855   -131584.56            0   -131232.96    1025.4169     107157.3 
    1300    298.87967   -131582.92            0   -131235.26   -41.974436    107196.93 
    1350    296.95905   -131582.05            0   -131236.62   -733.23441    107235.44 
    1400    299.19743   -131584.14            0   -131236.11    896.05137    107120.08 
    1450    301.21696   -131582.11            0   -131231.73    373.40126    107171.09 
    1500    299.43826   -131577.49            0   -131229.18   -265.12463    107240.07 
    1550    300.06945   -131581.25            0   -131232.21    296.85959    107184.05 
    1600     300.2448   -131587.99            0   -131238.74   -211.20695    107182.85 
    1650     298.5031   -131586.82            0    -131239.6   -131.37687    107184.99 
    1700    299.63805   -131585.56            0   -131237.02   -639.69836    107203.23 
    1750    304.10857   -131585.76            0   -131232.02     39.33274    107218.44 
    1800    301.11644   -131581.21            0   -131230.94    35.853123    107196.24 
    1850    302.52083   -131583.84            0   -131231.95    -10.71701    107167.66 
    1900    297.88692   -131582.44            0   -131235.94    400.43647    107201.19 
    1950    299.29139    -131586.8            0   -131238.66    221.99092    107187.98 
    2000    295.97406   -131580.95            0   -131236.67    -164.3513    107216.21 
    2050    303.33311   -131582.42            0   -131229.58    -283.3747    107199.91 
    2100    306.62707    -131585.2            0   -131228.53   -842.93344    107237.61 
    2150    297.91341   -131579.38            0   -131232.84    472.89855    107178.42 
    2200    301.07099   -131584.59            0   -131234.38    227.78835    107149.32 
    2250    298.74596   -131582.95            0   -131235.44   -144.95969    107190.55 
    2300    299.85605   -131584.88            0   -131236.08     533.3389     107149.1 
    2350    301.51747   -131586.59            0   -131235.86    171.80127    107181.31 
    2400      298.428   -131579.39            0   -131232.26    179.89023    107200.55 
    2450    305.60807   -131583.95            0   -131228.47   -840.72283    107250.77 
    2500      298.699   -131579.07            0   -131231.62    192.85604    107220.35 
    2550    300.90498    -131588.5            0   -131238.49   -398.59945    107188.74 
    2600    297.22614   -131585.12            0   -131239.39   -644.56465    107197.43 
    2650    301.71626   -131587.95            0   -131236.99    181.71516    107173.99 
    2700    299.40525   -131583.16            0   -131234.89    203.33267    107176.25 
    2750    300.93153   -131582.07            0   -131232.03   -609.26639    107228.26 
    2800    301.40676   -131579.32            0   -131228.72   -70.557118    107176.08 
    2850    302.93595   -131577.82            0   -131225.44   -437.95302    107196.57 
    2900     302.5601   -131583.03            0   -131231.09    41.184454    107183.45 
    2950    298.73687   -131583.92            0   -131236.43    194.76633    107191.66 
    3000    301.92912   -131589.77            0   -131238.56    387.74316    107162.11 
    3050    302.00025   -131588.28            0   -131236.99    387.21155    107164.35 
    3100    300.04581   -131579.61            0    -131230.6   -399.62314    107201.72 
    3150    306.03677   -131582.02            0   -131226.03    688.65024    107194.38 
    3200    306.56091   -131585.73            0   -131229.14   -557.25287    107231.97 
    3250    299.31107   -131581.52            0   -131233.35    322.31038    107194.54 
    3300    301.22523   -131585.74            0   -131235.36   -272.99209     107187.9 
    3350    296.99107    -131582.5            0   -131237.04   -304.50417    107191.96 
    3400    299.74531   -131586.96            0   -131238.29      137.501    107180.04 
    3450     300.8326   -131587.27            0   -131237.34   -653.18472    107215.04 
    3500    300.72863   -131582.85            0   -131233.04   -139.04747    107172.04 
    3550    303.91023   -131582.48            0   -131228.97   -812.06604    107209.82 
    3600    302.81212   -131583.17            0   -131230.94    89.199621     107203.8 
    3650     299.1642   -131586.57            0   -131238.58    1107.3019    107165.76 
    3700    294.08975   -131581.86            0   -131239.77   -861.53706    107249.44 
    3750    299.43627   -131585.41            0    -131237.1    1139.4607    107121.62 
    3800    306.99934   -131590.52            0   -131233.42   -275.62305    107171.92 
    3850    299.43294   -131580.52            0   -131232.22    451.51717    107148.23 
    3900    301.17982   -131583.87            0   -131233.53   -159.40866    107209.55 
    3950    296.26738   -131586.44            0   -131241.82     52.39197    107181.84 
    4000    299.14082   -131589.59            0   -131241.62    561.67574    107153.49 
    4050    297.76538   -131582.68            0   -131236.32    625.19588    107195.18 
    4100     299.5265   -131580.21            0    -131231.8   -369.77827    107239.84 
    4150    299.81927   -131581.35            0   -131232.59    367.32531    107182.12 
    4200    301.18582   -131585.93            0   -131235.58    256.26794    107195.67 
    4250     295.9192   -131585.37            0   -131241.15   -8.3106872    107203.62 
    4300    294.68681   -131590.46            0   -131247.68    -181.8342    107180.25 
    4350    293.93889    -131586.5            0   -131244.58    737.92958    107131.33 
    4400    297.16445   -131581.59            0   -131235.93    22.628812    107196.13 
    4450    300.44614   -131581.58            0    -131232.1   -445.95905     107217.1 
    4500     303.4107   -131584.43            0    -131231.5    302.22728    107153.27 
    4550    295.91543   -131579.07            0   -131234.86   -789.17114    107211.52 
    4600     299.7089   -131588.25            0   -131239.62    255.41592    107164.74 
    4650    294.78214   -131584.53            0   -131241.63   -54.122036    107211.38 
    4700    302.22859   -131585.77            0   -131234.21   -137.60331    107188.28 
    4750    300.38837   -131579.29            0   -131229.87    -613.2858    107215.74 
    4800    302.67023    -131582.5            0   -131230.43    64.973978    107168.68 
    4850    298.92796    -131583.9            0   -131236.18   -64.370206    107177.51 
    4900    298.56734   -131585.92            0   -131238.62   -816.72033    107228.07 
    4950    298.63303   -131584.93            0   -131237.56    1031.6458     107124.6 
    5000    298.26729   -131582.65            0   -131235.71   -431.27573    107187.48 
Loop time of 61.6857 on 24 procs for 5000 steps with 9000 atoms

Performance: 14.006 ns/day, 1.713 hours/ns, 81.056 timesteps/s
99.6% CPU use with 24 MPI tasks x no OpenMP threads

MPI task timing breakdown:
Section |  min time  |  avg time  |  max time  |%varavg| %total
---------------------------------------------------------------
Pair    | 60.077     | 60.312     | 60.575     |   1.9 | 97.77
Bond    | 0.00072192 | 0.0010194  | 0.0012394  |   0.5 |  0.00
Neigh   | 0.029764   | 0.030586   | 0.031074   |   0.2 |  0.05
Comm    | 0.43585    | 0.65444    | 0.99156    |  17.9 |  1.06
Output  | 0.004239   | 0.0044099  | 0.0076755  |   1.0 |  0.01
Modify  | 0.31993    | 0.57387    | 0.91738    |  25.9 |  0.93
Other   |            | 0.1098     |            |       |  0.18

Nlocal:    375 ave 379 max 372 min
Histogram: 1 2 2 0 14 3 0 1 0 1
Nghost:    6199.79 ave 6341 max 6077 min
Histogram: 2 3 3 1 3 4 3 2 2 1
Neighs:    139882 ave 142675 max 138049 min
Histogram: 2 2 4 6 1 5 3 0 0 1

Total # of neighbors = 3357158
Ave neighs/atom = 373.018
Ave special neighs/atom = 0
Neighbor list builds = 8
Dangerous builds = 4

unfix thermostat_fix1

fix thermostat_ramp all npt temp 300 $T ${THERMO_DAMP} aniso 0.0 0.0 ${BARO_DAMP}
fix thermostat_ramp all npt temp 300 3000 ${THERMO_DAMP} aniso 0.0 0.0 ${BARO_DAMP}
fix thermostat_ramp all npt temp 300 3000 0.1 aniso 0.0 0.0 ${BARO_DAMP}
fix thermostat_ramp all npt temp 300 3000 0.1 aniso 0.0 0.0 0.5

run ${rampsteps}
run 10000
Per MPI rank memory allocation (min/avg/max) = 7.936 | 7.949 | 7.962 Mbytes
Step Temp E_pair E_mol TotEng Press Volume 
    5000    298.26729   -131582.65            0   -131235.71   -431.27573    107187.48 
    5050    298.43446   -131577.25            0   -131230.11    161.29832       107195 
    5100    306.73468   -131574.47            0   -131217.67   -492.27481    107230.35 
    5150    313.63093   -131563.08            0   -131198.26    387.62721    107213.19 
    5200    324.98277   -131552.18            0   -131174.16    302.77543     107232.7 
    5250    337.55277   -131538.79            0   -131146.15    42.563148     107284.1 
    5300    353.99486   -131526.89            0   -131115.12    606.67585    107389.01 
    5350    364.79178    -131505.9            0   -131081.57    -573.0311    107443.55 
    5400    377.73861   -131485.52            0   -131046.13   -29.077051    107433.69 
    5450    394.76603   -131468.49            0    -131009.3    1032.8623    107446.08 
    5500      407.135   -131445.05            0   -130971.46   -136.71059    107600.87 
    5550    424.55693   -131427.08            0   -130933.23    1245.8586    107524.31 
    5600      443.602   -131411.14            0   -130895.14   -1262.8201    107683.51 
    5650    455.46409   -131386.78            0   -130856.98    1725.5309    107589.15 
    5700    477.92175   -131375.18            0   -130819.25    3.1687676    107711.65 
    5750    487.90855   -131350.67            0   -130783.13    388.43467    107733.52 
    5800    505.16637   -131334.31            0    -130746.7   -160.09793    107794.05 
    5850    516.87063   -131312.86            0   -130711.63   -17.538318    107874.84 
    5900    533.76139   -131297.58            0    -130676.7   -488.13219     107991.6 
    5950     550.5416   -131282.96            0   -130642.57   -815.38695    107983.97 
    6000    565.47278   -131266.17            0    -130608.4    1399.5037    107955.82 
    6050    579.60864   -131248.79            0   -130574.58   -684.89108     108092.4 
    6100    588.63174   -131225.84            0   -130541.13   -214.50351    108116.76 
    6150    606.33981   -131213.82            0   -130508.52   -1078.9704    108225.94 
    6200    624.76044    -131201.5            0   -130474.77   -135.16818    108223.83 
    6250    633.55447   -131178.72            0   -130441.77    580.00994    108182.31 
    6300    641.99167   -131155.84            0   -130409.06   -1307.3225    108340.25 
    6350    666.44769   -131151.16            0   -130375.94    202.66949    108390.24 
    6400    676.38263   -131130.21            0   -130343.43    -29.55791    108385.42 
    6450    677.70362   -131099.25            0   -130310.93    272.15509    108440.17 
    6500     699.7733   -131092.24            0   -130278.26   -556.73793    108470.76 
    6550    710.80627   -131072.19            0   -130245.37    1364.3652    108449.11 
    6600    731.04971   -131061.13            0   -130210.76   -430.94364    108549.44 
    6650    733.26592   -131032.57            0   -130179.63    760.17675    108540.26 
    6700    746.31891   -131015.47            0   -130147.34    2264.1626    108544.31 
    6750    772.52141   -131012.46            0   -130113.86   -1204.2253    108767.87 
    6800    785.84918   -130994.64            0   -130080.53    238.19272    108759.83 
    6850    796.04807   -130972.91            0   -130046.94    1033.7506    108705.31 
    6900    803.87181   -130949.97            0    -130014.9    776.16771    108792.17 
    6950    813.13975   -130928.68            0   -129982.83    50.078199    108886.08 
    7000    832.26439   -130916.83            0   -129948.73    360.00944    108908.98 
    7050    843.65432   -130897.92            0   -129916.57    1291.8709    108917.79 
    7100    854.35881   -130876.16            0   -129882.36    960.11826    108998.33 
    7150    877.13119   -130868.53            0   -129848.24   -614.44199    109176.96 
    7200    886.02607   -130846.48            0   -129815.85    74.952566    109184.54 
    7250    899.18147   -130828.07            0   -129782.13   -736.64986     109199.7 
    7300    915.96935   -130815.23            0   -129749.77    1372.5906    109112.29 
    7350    916.62711    -130783.8            0   -129717.56   -1664.7335    109322.55 
    7400    945.70131   -130785.59            0   -129685.54   -410.11317    109292.49 
    7450    956.62705   -130766.31            0   -129653.55    2537.2142    109218.94 
    7500    980.10123   -130760.82            0   -129620.75   -1984.9659    109467.87 
    7550    978.90569   -130727.34            0   -129588.67    2321.4416    109294.47 
    7600    988.96875   -130707.42            0   -129557.04   -2007.9952    109535.42 
    7650    1009.3504   -130698.87            0   -129524.79   -704.64924    109491.63 
    7700    1016.5183   -130674.55            0   -129492.13    2346.1157    109383.68 
    7750    1036.9263   -130665.26            0   -129459.09   -1886.9978    109648.83 
    7800    1041.0873   -130639.66            0   -129428.66    2227.1608    109492.11 
    7850    1056.6658   -130623.91            0   -129394.78    360.55104    109684.08 
    7900    1068.2592   -130604.23            0   -129361.62   -2745.3119    109805.91 
    7950    1080.3599   -130585.73            0   -129329.04    1968.6746    109686.88 
    8000    1100.4774   -130575.43            0   -129295.34    939.91595       109819 
    8050    1119.6789   -130563.99            0   -129261.57    -445.4846    109956.85 
    8100    1123.4386   -130535.72            0   -129228.92   -62.439784    109940.37 
    8150    1149.1599    -130531.5            0   -129194.78   -328.95087    109916.01 
    8200    1141.7844   -130489.87            0   -129161.73    223.30626    109926.29 
    8250    1162.9421   -130480.58            0   -129127.83    707.88264    110000.99 
    8300    1173.4337   -130459.43            0   -129094.48    326.38695    110040.94 
    8350    1188.5117   -130442.51            0   -129060.02   -820.00025    110119.02 
    8400    1211.1125   -130433.53            0   -129024.75    1033.1557    110134.36 
    8450    1221.2029   -130411.58            0   -128991.06   -817.55929    110226.57 
    8500     1232.447   -130392.13            0   -128958.53    1509.0697    110185.11 
    8550    1239.5043   -130366.56            0   -128924.75    1041.7104    110296.07 
    8600    1253.7167   -130349.33            0   -128890.99    71.894609    110437.15 
    8650    1261.8804   -130324.15            0   -128856.31    559.66266    110419.74 
    8700    1276.1623   -130307.36            0   -128822.91    1745.7299    110412.71 
    8750    1301.1923   -130299.16            0    -128785.6    -745.5914    110596.99 
    8800    1308.7783   -130276.28            0    -128753.9   -375.50759     110623.6 
    8850    1331.9242   -130266.85            0   -128717.54   -366.54516    110747.73 
    8900    1327.9335   -130229.75            0   -128685.08   -2101.8771    110782.05 
    8950    1356.9702   -130225.77            0   -128647.32    1226.0341    110657.71 
    9000    1372.7304   -130212.13            0   -128615.35    -3448.184    110941.64 
    9050    1370.5356   -130175.46            0   -128581.24    818.15231    110848.16 
    9100    1392.0046   -130163.01            0   -128543.81   -373.11725    110872.92 
    9150    1398.3578    -130138.1            0   -128511.52   -798.90657    110954.91 
    9200    1434.8615   -130146.21            0   -128477.16    1399.0037    110899.08 
    9250    1434.5312   -130112.89            0   -128444.23   -1106.4318     111059.1 
    9300      1445.63   -130090.82            0   -128409.25    3305.9176    110914.88 
    9350    1461.5243   -130076.25            0   -128376.19   -1456.4007    111199.53 
    9400    1471.4979   -130051.33            0   -128339.66   -153.11956    111179.35 
    9450    1490.5591   -130037.16            0   -128303.32   -3279.8764    111414.37 
    9500    1490.4129   -130003.81            0   -128270.15    3239.8741    111172.42 
    9550    1523.3924   -130003.51            0   -128231.48   -1901.1846    111322.14 
    9600    1528.5649   -129977.26            0   -128199.22   -324.84781    111389.05 
    9650    1548.5256   -129963.49            0   -128162.22    237.03063    111387.13 
    9700    1571.7948   -129956.93            0    -128128.6   -856.71082    111525.26 
    9750    1570.2584      -129918            0   -128091.45   -995.55183    111525.54 
    9800    1584.0541   -129899.68            0   -128057.09     1312.662    111449.12 
    9850    1605.7554   -129893.37            0   -128025.54    2062.1139    111524.98 
    9900    1604.7429   -129854.29            0   -127987.64   -3195.1979     111785.1 
    9950    1620.6695   -129840.11            0   -127954.93   -1429.8251    111751.11 
   10000    1640.6415   -129824.57            0   -127916.15    2003.7419    111627.96 
   10050    1653.0808   -129802.27            0   -127879.39   -425.06084    111862.12 
   10100    1659.0932   -129772.41            0   -127842.53   -1874.7031    112064.36 
   10150    1685.8285   -129766.53            0   -127805.55   -688.27657    111961.99 
   10200    1682.6712   -129727.61            0   -127770.31    147.45989    111961.35 
   10250     1711.337   -129724.79            0   -127734.14   -3311.5842    112236.34 
   10300    1720.2902   -129699.45            0   -127698.39    702.44435    112101.38 
   10350    1726.3776   -129671.78            0   -127663.63   -502.32479    112134.15 
   10400    1751.2435   -129666.52            0   -127629.46    -48.18794    112173.78 
   10450    1757.3963   -129636.62            0   -127592.39    663.17937    112199.94 
   10500     1761.545   -129604.11            0   -127555.06   -2017.5874    112431.38 
   10550    1799.9589    -129612.3            0   -127518.56   -958.04271    112364.44 
   10600    1795.6544   -129574.12            0   -127485.39    1476.4878    112294.97 
   10650    1806.2461   -129546.91            0   -127445.87   -279.18718     112534.1 
   10700    1805.3409   -129508.09            0   -127408.09    275.81769    112581.08 
   10750    1848.0557   -129516.91            0   -127367.23    1621.2152    112529.43 
   10800    1846.4568   -129477.18            0   -127329.36    322.46696    112605.29 
   10850    1863.7645    -129462.4            0   -127294.45    668.55946    112642.81 
   10900     1868.563   -129432.39            0   -127258.85   -1965.7223    112810.53 
   10950    1894.6423   -129433.44            0   -127229.57     1779.573    112650.14 
   11000    1891.3701   -129393.66            0   -127193.59     1594.054    112745.02 
   11050    1926.4097   -129399.08            0   -127158.26   -2162.5928    112941.71 
   11100    1926.1471    -129364.3            0   -127123.78   -693.45521    113010.71 
   11150    1954.9315    -129357.9            0   -127083.91    1827.7134    112865.59 
   11200    1962.2112    -129333.8            0   -127051.33    888.80428    112966.54 
   11250    1957.1055   -129284.78            0   -127008.26    318.76059    113106.84 
   11300    1984.6908   -129281.61            0   -126972.99   -286.48746       113162 
   11350     2020.306   -129280.36            0   -126930.32   -1133.2225    113232.99 
   11400    2022.8172   -129243.64            0   -126890.67    31.714618    113252.03 
   11450    2010.7354   -129188.33            0   -126849.42   -376.65742    113489.91 
   11500    2049.3279   -129187.15            0   -126803.34    -453.7287    113424.83 
   11550    2060.8282   -129159.28            0    -126762.1   -256.94526    113498.82 
   11600    2077.2766   -129143.78            0   -126727.46   -2083.0351    113616.57 
   11650    2078.5664   -129103.47            0   -126685.66     1816.854    113486.92 
   11700    2093.7018   -129088.79            0   -126653.37    560.58532    113541.77 
   11750    2129.8308   -129095.96            0   -126618.52   -349.92225    113550.86 
   11800    2135.9993   -129068.94            0   -126584.32   -625.67735    113750.37 
   11850    2120.0249   -129017.63            0   -126551.59     905.9768    113825.34 
   11900    2160.9193   -129025.52            0   -126511.92   -2488.8838    113928.73 
   11950    2180.2193      -129016            0   -126479.94    1711.2595     113769.1 
   12000     2179.848   -128973.44            0   -126437.82    2499.6754     113822.7 
   12050    2178.2103    -128932.1            0   -126398.37    -3046.438    114186.19 
   12100    2204.1933   -128920.89            0   -126356.95    587.60927     113969.4 
   12150    2203.3054   -128882.52            0    -126319.6    312.57317    114004.35 
   12200    2232.9841   -128867.97            0   -126270.54    335.78204    114077.34 
   12250    2239.6246   -128829.26            0    -126224.1   -1827.8589    114185.28 
   12300    2241.8973   -128784.52            0   -126176.72    1209.6455    114262.24 
   12350    2248.4176   -128740.07            0   -126124.68   -1539.8378    114386.68 
   12400     2276.303    -128722.1            0   -126074.28   -381.31122     114498.9 
   12450    2299.5551   -128695.35            0   -126020.48    -4748.206    114751.83 
   12500     2304.088   -128651.96            0   -125971.82    3003.3693    114404.44 
   12550    2331.8878   -128629.68            0    -125917.2    306.60614    114639.85 
   12600    2325.0698   -128583.89            0   -125879.34     2992.781    114359.76 
   12650    2352.6439   -128569.37            0   -125832.75   -131.89055     114622.8 
   12700    2382.3587   -128560.49            0    -125789.3   -1094.3675    114658.28 
   12750    2399.8332   -128542.14            0   -125750.63   -2091.2293    114757.42 
   12800    2384.2018   -128480.85            0   -125707.52    3487.9735     114629.6 
   12850    2390.5556   -128447.07            0   -125666.35   -2513.6216    114889.89 
   12900     2408.332   -128427.12            0   -125625.72    1861.1389    114581.44 
   12950    2407.1364   -128384.48            0   -125584.47    -2463.131    114865.96 
   13000    2399.6936   -128326.57            0   -125535.22    1818.5259    114680.29 
   13050    2434.3379   -128315.95            0    -125484.3   -541.00718    114923.85 
   13100    2469.0005   -128293.19            0   -125421.22   -3529.8769    115163.01 
   13150    2459.6691   -128227.93            0   -125366.81   -1841.4753    115016.62 
   13200    2490.4906   -128204.66            0   -125307.69    1675.9475    114868.27 
   13250    2513.5863   -128174.96            0   -125251.12     660.8822    114961.76 
   13300    2528.2668   -128152.38            0   -125211.47   -2196.4209    115135.18 
   13350    2539.3064   -128113.31            0   -125159.56    2174.3533    114891.37 
   13400    2551.2456   -128087.67            0   -125120.03    -1446.928     115142.5 
   13450    2552.6682   -128054.13            0   -125084.84    1283.4386    115082.13 
   13500    2556.5797   -128006.04            0   -125032.19    1156.7039    115196.04 
   13550    2634.3918   -128063.07            0   -124998.72   -732.96187    115220.12 
   13600    2587.4807    -127988.1            0   -124978.31    733.50943     115213.3 
   13650    2640.6886   -127990.94            0   -124919.25   -593.29179    115239.21 
   13700    2642.3574      -127956            0   -124882.38    -1187.496    115274.16 
   13750    2637.4036   -127903.51            0   -124835.65    425.84111    115168.18 
   13800    2664.0358   -127889.85            0   -124791.01    738.44468    115268.46 
   13850    2651.9752   -127841.18            0   -124756.37    615.58716    115408.97 
   13900    2657.7567   -127799.15            0   -124707.62    1596.6587    115448.32 
   13950    2716.7752   -127825.82            0   -124665.64   -3469.2931    115636.36 
   14000    2701.1495   -127780.28            0   -124638.27    922.82378    115340.24 
   14050    2731.7257    -127760.5            0   -124582.92    1269.6954    115319.54 
   14100    2711.4545    -127703.1            0   -124549.11   -210.44214    115614.58 
   14150    2766.1732   -127727.07            0   -124509.43    2391.8931    115613.34 
   14200    2750.8637   -127654.14            0    -124454.3    466.26992    115614.43 
   14250    2800.1229   -127662.39            0   -124405.26      2520.12    115585.14 
   14300    2793.5045   -127602.94            0    -124353.5   -1839.3605    115951.55 
   14350     2783.884   -127539.99            0   -124301.74   -6277.5824    116164.49 
   14400    2850.6362   -127570.43            0   -124254.54    1458.8887    115960.65 
   14450    2817.9855   -127499.13            0   -124221.22   -3514.8945    116230.37 
   14500    2850.7238   -127501.14            0   -124185.14    884.19265    116002.77 
   14550    2852.4801   -127467.22            0   -124149.19   -1636.5721    116115.12 
   14600    2872.5214   -127457.16            0   -124115.81   -367.44038    116071.09 
   14650    2865.7213   -127412.43            0   -124078.98     2359.985    116095.73 
   14700    2866.0078   -127357.74            0   -124023.96    675.48841    116121.37 
   14750    2904.7551   -127345.94            0    -123967.1   -3781.7618    116559.45 
   14800    2940.3315   -127349.31            0   -123929.09   -3598.6337    116677.59 
   14850    2942.0612   -127311.12            0   -123888.88    2418.0652    116324.08 
   14900    3030.0548   -127352.93            0   -123828.34    1507.8028    116276.61 
   14950    2969.2891   -127258.95            0   -123805.03   -1385.4437    116568.32 
   15000    2996.2718   -127257.05            0   -123771.75    1077.2817    116453.04 
Loop time of 123.904 on 24 procs for 10000 steps with 9000 atoms

Performance: 13.946 ns/day, 1.721 hours/ns, 80.708 timesteps/s
99.6% CPU use with 24 MPI tasks x no OpenMP threads

MPI task timing breakdown:
Section |  min time  |  avg time  |  max time  |%varavg| %total
---------------------------------------------------------------
Pair    | 116.41     | 117.52     | 118.49     |   5.0 | 94.85
Bond    | 0.0015539  | 0.0020567  | 0.0029298  |   0.8 |  0.00
Neigh   | 2.2392     | 2.309      | 2.3621     |   2.2 |  1.86
Comm    | 1.1482     | 1.8738     | 2.7278     |  31.4 |  1.51
Output  | 0.0087721  | 0.0089343  | 0.011265   |   0.5 |  0.01
Modify  | 1.3093     | 2.0082     | 2.7143     |  35.8 |  1.62
Other   |            | 0.1783     |            |       |  0.14

Nlocal:    375 ave 390 max 365 min
Histogram: 3 1 5 3 3 2 4 2 0 1
Nghost:    5670.88 ave 5766 max 5534 min
Histogram: 1 0 3 0 5 3 2 6 2 2
Neighs:    131388 ave 139221 max 125766 min
Histogram: 2 3 3 4 4 1 5 1 0 1

Total # of neighbors = 3153310
Ave neighs/atom = 350.368
Ave special neighs/atom = 0
Neighbor list builds = 651
Dangerous builds = 251

unfix thermostat_ramp

fix thermostat_eq all npt temp $T $T ${THERMO_DAMP} aniso 0.0 0.0 ${BARO_DAMP}
fix thermostat_eq all npt temp 3000 $T ${THERMO_DAMP} aniso 0.0 0.0 ${BARO_DAMP}
fix thermostat_eq all npt temp 3000 3000 ${THERMO_DAMP} aniso 0.0 0.0 ${BARO_DAMP}
fix thermostat_eq all npt temp 3000 3000 0.1 aniso 0.0 0.0 ${BARO_DAMP}
fix thermostat_eq all npt temp 3000 3000 0.1 aniso 0.0 0.0 0.5

variable AVE_START equal 20000
variable V equal vol
variable LX equal lx
variable LY equal ly
variable LZ equal lz
fix avg_V_fix all ave/time 1 1000 1000 v_V start ${AVE_START}
fix avg_V_fix all ave/time 1 1000 1000 v_V start 20000
fix avg_LX_fix all ave/time 1 1000 1000 v_LX start ${AVE_START}
fix avg_LX_fix all ave/time 1 1000 1000 v_LX start 20000
fix avg_LY_fix all ave/time 1 1000 1000 v_LY start ${AVE_START}
fix avg_LY_fix all ave/time 1 1000 1000 v_LY start 20000
fix avg_LZ_fix all ave/time 1 1000 1000 v_LZ start ${AVE_START}
fix avg_LZ_fix all ave/time 1 1000 1000 v_LZ start 20000

variable AVG_V equal f_avg_V_fix
variable AVG_LX equal f_avg_LX_fix
variable AVG_LY equal f_avg_LY_fix
variable AVG_LZ equal f_avg_LZ_fix

variable VOL equal ${AVG_V}
variable VOL equal 0
variable LP equal (${VOL}/(4*4*${zunits}))^(1/3)
variable LP equal (0/(4*4*${zunits}))^(1/3)
variable LP equal (0/(4*4*20))^(1/3)

print "OUTPUT:${AVG_V}:${AVG_LX}:${AVG_LY}:${AVG_LZ}:${LP}"
OUTPUT:0:0:0:0:0

unfix avg_V_fix
unfix avg_LX_fix
unfix avg_LY_fix
unfix avg_LZ_fix

run ${equilsteps}
run 10000
Per MPI rank memory allocation (min/avg/max) = 7.936 | 7.949 | 7.962 Mbytes
Step Temp E_pair E_mol TotEng Press Volume 
   15000    2996.2718   -127257.05            0   -123771.75    1077.2817    116453.04 
   15050    3015.3774   -127268.35            0   -123760.82   -1979.0527    116568.82 
   15100    2997.8614   -127186.72            0   -123699.57    686.13256    116496.49 
   15150    3035.4239   -127182.23            0   -123651.38    2324.3441    116480.91 
   15200    3048.7246   -127211.45            0   -123665.13   -5378.3296    117017.22 
   15250    3033.6221   -127245.17            0   -123716.43     190.7749    116636.81 
   15300    2983.8022   -127225.13            0   -123754.33   -790.69243    116650.86 
   15350    2984.7654   -127236.89            0   -123764.97   -850.38129     116545.5 
   15400    2979.2915    -127221.4            0   -123755.85    3213.5329     116358.2 
   15450    2998.2868   -127188.15            0   -123700.51    1755.9101    116692.19 
   15500    3034.4067   -127178.43            0   -123648.77   -345.67647    116639.72 
   15550    3000.1554   -127150.74            0   -123660.92   -1873.7205    116689.31 
   15600    3034.4148   -127232.17            0    -123702.5   -1698.1508    116903.13 
   15650    3030.7693   -127242.25            0   -123716.82     1919.774    116561.02 
   15700    2973.3558   -127205.42            0   -123746.77   -538.06732    116594.94 
   15750     3009.985   -127237.05            0    -123735.8   -2457.2815    116666.24 
   15800    3038.8443   -127242.28            0   -123707.46    2469.5116    116503.15 
   15850    2972.5447   -127156.36            0   -123698.66   -1773.2364    117015.78 
   15900    3031.4172   -127190.89            0    -123664.7     4199.019    116637.82 
   15950    3018.0081   -127183.55            0   -123672.97     84.76778    116749.26 
   16000    3016.6666   -127235.42            0    -123726.4   -909.57264    116748.57 
   16050     3022.745   -127305.74            0   -123789.65   -394.64924    116430.89 
   16100    2963.2087    -127254.8            0   -123807.96   -1620.8486    116728.45 
   16150    2997.9837   -127268.56            0   -123781.27    2342.5937    116600.58 
   16200    2976.1306   -127216.21            0   -123754.34    1812.0396     116692.1 
   16250    3010.9994   -127226.73            0    -123724.3   -1106.0701    116830.69 
   16300    3043.4575   -127188.32            0   -123648.13    1306.0378    116611.75 
   16350    3020.2107   -127179.53            0   -123666.38   -4004.7815    117046.63 
   16400    3014.2044   -127233.18            0   -123727.02    -339.0112    116732.55 
   16450    2988.2673   -127215.23            0   -123739.24   -1039.5094    116620.99 
   16500    2998.6562   -127222.49            0   -123734.42    17.028181    116565.38 
   16550    3028.8362   -127257.06            0   -123733.88   -3535.6751    116854.14 
   16600    2922.1559   -127155.16            0   -123756.08    983.34831    116534.09 
   16650      3052.06    -127326.4            0   -123776.21    242.11998    116406.46 
   16700    2995.9704   -127296.88            0   -123811.93   -2492.6054    116731.13 
   16750    3013.2407   -127317.27            0   -123812.23   -1916.0881    116414.92 
   16800      3038.32   -127300.41            0    -123766.2    2828.3475    116281.85 
   16850    3010.6872      -127222            0   -123719.93   -3075.1362    116771.82 
   16900    3029.7794   -127207.26            0   -123682.98   -3477.9401    116796.17 
   16950     3014.552      -127207            0   -123700.44    4734.9689    116322.42 
   17000    2962.1988   -127233.95            0   -123788.29   -225.98594    116682.53 
   17050    3004.3461   -127285.15            0   -123790.46   -2062.2479    116533.95 
   17100    2984.8255    -127241.9            0   -123769.91    3214.6315    116244.11 
   17150    2978.2194   -127205.59            0   -123741.29   -2779.3105    116751.38 
   17200    2983.0551   -127149.64            0   -123679.72    2942.2214    116652.04 
   17250    3031.1998    -127179.3            0   -123653.37    -1678.242    116942.68 
   17300    3005.4224   -127177.87            0   -123681.93    -1596.172    116749.62 
   17350    2995.9398   -127255.74            0   -123770.83   -664.03846    116696.95 
   17400    3009.8095      -127271            0   -123769.95    -627.4247    116525.99 
   17450    3015.3231   -127264.15            0   -123756.69    2092.7915    116437.11 
   17500    3007.2132   -127249.12            0   -123751.09   -1563.7227    116878.19 
   17550    3012.7813   -127228.67            0   -123724.17    368.86471    116663.18 
   17600    3009.2851   -127182.86            0   -123682.42    1818.3208    116590.18 
   17650    3019.8093   -127189.71            0   -123677.03   -1850.1124    116896.57 
   17700    3014.3835   -127243.54            0   -123737.17    187.89089    116456.53 
   17750    2971.4626   -127249.67            0   -123793.23   -1088.4531    116584.91 
   17800    3002.8901   -127265.71            0   -123772.71   -240.93025    116527.75 
   17850    3028.1511   -127270.96            0   -123748.58    1140.5243    116543.81 
   17900    3016.6496   -127220.16            0   -123711.16   -1822.7922    116818.98 
   17950    3045.6364   -127189.97            0   -123647.25    3276.5001    116583.36 
   18000     3060.307   -127214.16            0   -123654.37    487.66912    116964.85 
   18050    2963.7417   -127180.99            0   -123733.53     1423.638    116757.34 
   18100    3005.9017   -127242.16            0   -123745.66    3170.5707    116476.27 
   18150    2996.3634   -127257.03            0   -123771.63    -413.8213    116791.33 
   18200    3000.4675   -127266.14            0   -123775.96    2049.8823    116591.47 
   18250    3028.8601   -127234.87            0   -123711.66   -1278.5724    116624.23 
   18300    3046.3027   -127204.44            0   -123660.94    356.72194    116647.01 
   18350    2998.7818   -127175.94            0   -123687.72    2502.3835    116635.02 
   18400     3024.636   -127233.36            0   -123715.06   -3030.1864     116750.1 
   18450    3010.8518   -127228.54            0   -123726.28    2539.2235    116459.89 
   18500    3027.9693    -127237.1            0   -123714.93   -2153.8423    116728.99 
   18550    3018.8027   -127231.46            0   -123719.95    441.27844    116481.22 
   18600    2991.4836   -127222.04            0   -123742.31    1747.0288       116514 
   18650    2987.3547   -127218.92            0   -123743.99   -3185.7339    116870.27 
   18700    2977.6652   -127182.97            0   -123719.31    3345.6596    116520.06 
   18750    2997.6405   -127200.65            0   -123713.76   -314.18282    116687.45 
   18800    2990.4763   -127216.35            0   -123737.79    489.85499    116613.71 
   18850    2966.4011   -127269.54            0   -123818.99   -3401.1423    116632.84 
   18900    2971.8712   -127281.74            0   -123824.82    5034.8548    116294.23 
   18950    3015.6902   -127285.32            0   -123777.43   -2742.1022    116597.85 
   19000    3010.8608   -127243.65            0   -123741.38    3640.7253    116451.62 
   19050    2994.8067   -127213.47            0   -123729.88    977.07919    116665.37 
   19100    2995.3087   -127191.34            0   -123707.16   -1357.7182    116800.26 
   19150     2977.021   -127159.31            0    -123696.4    3516.7419    116448.14 
   19200    2976.9739   -127166.93            0   -123704.07    774.24077    116590.68 
   19250    2971.8464   -127235.81            0   -123778.92   -2130.0479    116724.31 
   19300    2963.3291   -127241.11            0   -123794.13    4001.6916    116382.35 
   19350    3021.0222   -127261.15            0   -123747.06   -1130.1296    116658.78 
   19400    2984.3512   -127165.35            0   -123693.91     3141.677    116585.19 
   19450    3018.0957   -127188.24            0   -123677.55   -5540.3255    116819.43 
   19500     3030.376   -127219.48            0   -123694.51    3704.9117    116241.59 
   19550    2985.2457   -127202.48            0      -123730   -565.70953    116572.01 
   19600     2980.493   -127198.56            0   -123731.61   -686.13791     116744.9 
   19650    3035.3733   -127264.61            0   -123733.83    1460.8898    116526.08 
   19700    2971.5428   -127225.44            0    -123768.9   -1968.7021    116715.54 
   19750    2999.6408   -127251.96            0   -123762.75    1854.6302    116516.88 
   19800    3012.2078   -127178.41            0   -123674.58    3100.3902    116585.16 
   19850    3026.7781   -127199.66            0   -123678.88   -1837.9231    116942.79 
   19900    2996.3227   -127200.41            0   -123715.05    1483.7533    116783.36 
   19950    3000.8472   -127229.89            0   -123739.27   -472.81723    116851.46 
   20000    3010.4249    -127241.3            0   -123739.54   -60.156205    116702.22 
   20050    2990.3134   -127221.47            0   -123743.11    3758.6041    116508.32 
   20100    2989.8874   -127234.22            0   -123756.34   -1037.2175    116761.84 
   20150     2997.286   -127243.82            0   -123757.34    2298.2477    116814.53 
   20200    3003.3536   -127246.52            0   -123752.98   -523.89244    116683.39 
   20250    3010.2096   -127236.07            0   -123734.56   -1191.6684     116671.8 
   20300    2979.7839   -127157.38            0   -123691.26   -1938.6765     116943.1 
   20350    3066.3142    -127198.3            0   -123631.53   -2371.3191    116970.09 
   20400    3048.6564   -127214.93            0    -123668.7    848.23649    116648.65 
   20450    3044.8206   -127264.22            0   -123722.45   -1891.5753    116688.09 
   20500    2979.2861   -127222.53            0   -123756.99    952.52014    116690.93 
   20550    2977.5322    -127223.4            0    -123759.9    5469.9121     116492.8 
   20600    2992.5958   -127226.64            0   -123745.62    2577.3821    116580.63 
   20650    3001.8614   -127188.03            0   -123696.23      -1675.4    116891.92 
   20700    3028.6116   -127182.21            0   -123659.29    674.77628    116797.46 
   20750    3005.3988   -127194.12            0    -123698.2    -1502.236    116858.55 
   20800    3010.3832   -127265.42            0    -123763.7    1853.2876    116735.65 
   20850    3010.8765   -127275.29            0      -123773   -2327.7827    116804.13 
   20900     3001.234   -127252.24            0   -123761.17    1974.0966    116555.09 
   20950    3026.8264   -127228.49            0   -123707.65   -1994.9277    116861.53 
   21000     3019.389   -127167.02            0   -123654.83   -3639.3853    116823.24 
   21050    3038.7738   -127203.49            0   -123668.76    4838.8295    116504.91 
   21100    3019.9844   -127215.82            0   -123702.94   -2386.4532    116878.69 
   21150    3004.5622   -127225.22            0   -123730.28    2064.6796    116501.77 
   21200    2986.0528   -127227.67            0   -123754.26   -657.65297    116727.04 
   21250    2992.2432   -127226.25            0   -123745.64    1227.8811    116584.06 
   21300    3005.2891   -127175.91            0   -123680.12    3460.2026     116473.2 
   21350     3012.521   -127159.64            0   -123655.44   -1973.2832    116795.11 
   21400    3000.8832   -127192.34            0   -123701.68    914.84666    116649.21 
   21450    2957.3733   -127201.11            0   -123761.06    107.66804    116735.46 
   21500    2963.8949   -127211.72            0   -123764.08      1592.28    116617.62 
   21550    3024.1518   -127260.24            0   -123742.51   -2358.5218    116632.13 
   21600    3018.6108   -127218.22            0   -123706.94    3142.5335    116422.23 
   21650    3029.3876   -127152.25            0   -123628.43   -6489.8136    117105.73 
   21700    3036.8568   -127155.28            0   -123622.77    6137.1967    116367.41 
   21750    2992.9913   -127160.51            0   -123679.03   -751.20419    116835.34 
   21800    2990.3581   -127183.14            0   -123704.72   -899.92165    116799.03 
   21850    3033.3598   -127239.63            0   -123711.19    1473.4586    116402.97 
   21900    2998.8133   -127221.23            0   -123732.98   -1793.3712    116827.34 
   21950    2981.1561   -127231.94            0   -123764.23   -991.78242     116583.8 
   22000    2957.8028   -127252.04            0   -123811.49     2330.541    116318.63 
   22050    2959.8852   -127259.21            0   -123816.23   -1931.9127    116702.83 
   22100    2999.2699   -127231.37            0   -123742.58    3686.8126    116490.81 
   22150    3036.3381   -127245.63            0   -123713.72   -1479.3159     116722.8 
   22200    2998.5021   -127195.91            0   -123708.02   -449.52913    116647.28 
   22250     3040.104   -127224.71            0   -123688.42   -359.25372    116545.53 
   22300    2980.4514   -127183.36            0   -123716.47   -2958.9398    116783.37 
   22350    2991.9523   -127253.68            0   -123773.41    763.92157    116482.15 
   22400    2949.2577   -127221.44            0   -123790.82    614.30789    116530.42 
   22450    3005.8339    -127238.9            0   -123742.48    1531.2517    116631.18 
   22500    2990.1208   -127166.75            0    -123688.6    298.20122    116792.71 
   22550    2991.4756   -127177.54            0   -123697.82    373.17247    116776.88 
   22600    2984.9195   -127188.59            0    -123716.5    379.07646    116526.26 
   22650    2987.9388   -127221.55            0   -123745.95    38.167947    116617.95 
   22700    2963.3856   -127263.04            0   -123815.99   -1152.4954    116572.57 
   22750     2946.146   -127238.91            0   -123811.92    2664.0322     116314.2 
   22800    2963.2465   -127185.09            0   -123738.21   -1752.6375    116599.32 
   22850     2989.351   -127192.75            0    -123715.5    542.91689    116479.42 
   22900    3007.4879   -127222.85            0    -123724.5   -86.224105    116633.51 
   22950    2992.5087   -127181.92            0      -123701   -1529.4217    116787.55 
   23000    3041.2714   -127188.96            0   -123651.32    2416.7721    116602.31 
   23050    2992.4378   -127161.19            0   -123680.35   -2873.4418    117039.98 
   23100    2996.8377   -127244.21            0   -123758.25    376.69042    116528.98 
   23150    2955.2307   -127218.89            0   -123781.33    3622.8778    116376.93 
   23200    2989.0901   -127241.84            0    -123764.9   -1420.0115    116800.13 
   23250    3010.8826    -127233.9            0   -123731.61    2353.2248    116464.11 
   23300    3014.7379   -127189.53            0   -123682.75   -3042.7249     116859.9 
   23350    3061.3233    -127177.1            0   -123616.13    628.13653    116675.69 
   23400    2998.6564   -127150.67            0   -123662.59    89.294745    116633.19 
   23450    3028.8526    -127232.8            0    -123709.6      1059.94    116691.99 
   23500     3003.233    -127246.5            0    -123753.1     64.96029    116595.58 
   23550    2968.7003   -127237.62            0    -123784.4    1386.3625    116444.45 
   23600     2986.718   -127261.17            0   -123786.98    1678.1156    116598.73 
   23650    2983.5654   -127186.19            0   -123715.67   -2729.9756    116889.28 
   23700    3036.2177   -127187.07            0   -123655.31    657.12186    116730.31 
   23750    3025.8091   -127211.48            0   -123691.83    843.14601    116590.09 
   23800    2993.3563    -127236.4            0   -123754.49    401.31723    116584.29 
   23850    2990.2009   -127242.23            0   -123763.99   -3580.8736    116729.01 
   23900    3007.8469   -127226.21            0   -123727.45   -205.53925    116430.77 
   23950    3018.8914      -127189            0   -123677.39   -2902.1292    116823.24 
   24000    3017.5402   -127145.88            0   -123635.84    1607.8582    116605.53 
   24050    3041.3346   -127149.99            0   -123612.28   -442.20709    116747.01 
   24100    2998.2193   -127173.11            0   -123685.54   -1734.4501    116723.93 
   24150    2984.0752   -127195.58            0   -123724.47    1331.9609    116450.96 
   24200    3003.4791   -127235.96            0   -123742.27   -1696.5934    116745.06 
   24250    2972.3506   -127220.63            0   -123763.15   -233.33728     116621.6 
   24300    2970.6904    -127245.7            0   -123790.15    963.93372    116467.29 
   24350    3000.0958   -127254.11            0   -123764.37    784.32442     116532.1 
   24400    3022.2287   -127227.39            0    -123711.9   -4259.0357    116686.34 
   24450    3020.7192   -127208.41            0   -123694.67    664.39774    116524.15 
   24500    2981.3574   -127209.36            0   -123741.41   -525.45185    116619.91 
   24550    2991.3869   -127281.19            0   -123801.57   -2928.6842    116630.35 
   24600    2980.7456   -127275.73            0   -123808.49    2100.7835    116232.42 
   24650    2972.9261   -127219.04            0    -123760.9    579.81959    116443.35 
   24700    2988.6365   -127207.97            0   -123731.56   -2571.0481    116788.98 
   24750    2998.2734   -127194.85            0   -123707.22    4384.1563     116366.8 
   24800     3003.026   -127172.59            0   -123679.44   -2225.7901     116805.3 
   24850    3023.5532   -127172.87            0   -123655.83   -424.06643    116834.47 
   24900    3039.5968   -127197.52            0   -123661.83    935.88553    116602.35 
   24950    2982.1336   -127210.19            0   -123741.34   -856.20924    116714.63 
   25000    3014.8109   -127270.18            0   -123763.31    2639.5691    116561.98 
Loop time of 123.37 on 24 procs for 10000 steps with 9000 atoms

Performance: 14.007 ns/day, 1.713 hours/ns, 81.057 timesteps/s
99.7% CPU use with 24 MPI tasks x no OpenMP threads

MPI task timing breakdown:
Section |  min time  |  avg time  |  max time  |%varavg| %total
---------------------------------------------------------------
Pair    | 113.48     | 115.33     | 116.35     |   6.9 | 93.49
Bond    | 0.0015903  | 0.0021275  | 0.0029773  |   0.7 |  0.00
Neigh   | 3.4362     | 3.5553     | 3.6453     |   3.2 |  2.88
Comm    | 1.3885     | 2.1565     | 3.4759     |  37.8 |  1.75
Output  | 0.0086768  | 0.0088384  | 0.011054   |   0.5 |  0.01
Modify  | 1.4589     | 2.156      | 3.0001     |  34.3 |  1.75
Other   |            | 0.1567     |            |       |  0.13

Nlocal:    375 ave 387 max 363 min
Histogram: 1 0 3 4 4 4 4 3 0 1
Nghost:    5700.75 ave 5799 max 5625 min
Histogram: 2 6 2 1 3 1 4 2 1 2
Neighs:    131392 ave 138080 max 127438 min
Histogram: 3 5 2 3 4 3 2 1 0 1

Total # of neighbors = 3153406
Ave neighs/atom = 350.378
Ave special neighs/atom = 0
Neighbor list builds = 985
Dangerous builds = 843

unfix thermostat_eq

fix thermostat_nvt all nvt temp ${T} ${T} ${THERMO_DAMP}
fix thermostat_nvt all nvt temp 3000 ${T} ${THERMO_DAMP}
fix thermostat_nvt all nvt temp 3000 3000 ${THERMO_DAMP}
fix thermostat_nvt all nvt temp 3000 3000 0.1

run ${equilsteps}
run 10000
Per MPI rank memory allocation (min/avg/max) = 7.936 | 7.949 | 7.962 Mbytes
Step Temp E_pair E_mol TotEng Press 
   25000    3014.8109   -127270.18            0   -123763.31    2639.5691 
   25050    2992.0454   -127222.69            0    -123742.3   -1854.3016 
   25100    3026.1433   -127200.16            0   -123680.12    1365.6274 
   25150    3045.7992   -127186.95            0   -123644.04    -220.1496 
   25200    2975.4189   -127182.19            0   -123721.14    1188.5136 
   25250    3014.2044   -127263.41            0   -123757.25   -2310.4543 
   25300    2966.9072   -127210.69            0   -123759.54    1752.1867 
   25350    2984.7616   -127200.83            0   -123728.92   -152.79381 
   25400    3016.4876   -127190.24            0   -123681.43    1829.9323 
   25450    2996.6978   -127162.88            0   -123677.09    1953.3578 
   25500    2999.2318    -127246.5            0   -123757.75    666.17221 
   25550    2972.2099   -127246.24            0   -123788.93   -266.42964 
   25600     2975.549   -127250.72            0   -123789.52    998.83693 
   25650    2977.7695   -127222.66            0   -123758.88    288.59065 
   25700    3036.5319   -127230.12            0   -123697.99    969.03719 
   25750    3013.1295   -127170.24            0   -123665.33    2622.3642 
   25800    3011.2558    -127171.5            0   -123668.77    2059.7179 
   25850    2973.9587   -127216.62            0   -123757.28    3082.2403 
   25900    2984.9826   -127261.05            0   -123788.88   -896.54891 
   25950    2978.4727   -127199.54            0   -123734.95    3202.5756 
   26000    3039.2627   -127224.37            0   -123689.06    771.77539 
   26050    2986.4803   -127180.79            0   -123706.88    2204.5391 
   26100    2970.6983   -127205.83            0   -123750.27    2822.4159 
   26150    2982.1856   -127258.74            0   -123789.83   -186.24872 
   26200     2945.084   -127259.84            0   -123834.08    222.19586 
   26250    2947.6359   -127285.83            0   -123857.11   -1234.4967 
   26300    2974.3419   -127255.34            0   -123795.55   -403.30511 
   26350    3023.8698   -127259.74            0   -123742.34   -1108.3473 
   26400    3013.6047   -127236.22            0   -123730.76    1704.5619 
   26450    2975.9578   -127215.43            0   -123753.76   -10.381119 
   26500     2987.339   -127267.13            0   -123792.22   -501.16827 
   26550    2951.5162   -127239.68            0   -123806.44    880.33161 
   26600    3019.1017   -127257.42            0   -123745.56    1931.4137 
   26650    3012.9931   -127220.01            0   -123715.26    245.03776 
   26700    2995.2724   -127220.23            0   -123736.09    2578.9051 
   26750    2963.5202    -127224.5            0   -123777.29    3289.7285 
   26800    2953.1963   -127272.01            0   -123836.81   -1045.7505 
   26850    2973.0084   -127278.08            0   -123819.84   -101.56816 
   26900    2997.7602   -127223.51            0   -123736.48    119.83574 
   26950    2982.6029   -127186.53            0   -123717.13    1257.1946 
   27000    3041.4481   -127231.66            0   -123693.81   -456.93675 
   27050    3031.7567    -127233.3            0   -123706.72    165.77176 
   27100    3016.2153   -127262.06            0   -123753.56    502.62038 
   27150    2960.3311   -127250.72            0   -123807.22   -1038.8974 
   27200    2987.3832   -127257.96            0      -123783   -1954.5212 
   27250     2993.768    -127233.6            0   -123751.21    1003.5055 
   27300    3017.9154   -127252.95            0   -123742.47   -286.93915 
   27350    3030.2102   -127235.62            0   -123710.85    1084.0801 
   27400    3012.5784    -127188.5            0   -123684.23    1261.9534 
   27450    2985.9098   -127208.44            0    -123735.2    1354.5044 
   27500    2967.2226   -127244.15            0   -123792.64   -494.40371 
   27550    2995.1908   -127266.25            0   -123782.21     445.3012 
   27600    3042.7197   -127278.34            0   -123739.01   -1330.6176 
   27650    3037.7526   -127234.27            0   -123700.72    1004.7843 
   27700    3057.9461   -127211.93            0   -123654.89    4991.2457 
   27750    3024.1947   -127138.58            0    -123620.8     3309.972 
   27800    3051.3821   -127219.96            0   -123670.55     721.5475 
   27850    3020.6756   -127248.55            0   -123734.86     1129.668 
   27900    2979.4184    -127229.3            0    -123763.6    904.61352 
   27950    3009.9671   -127244.69            0   -123743.46   -650.32204 
   28000    2996.7829    -127165.5            0    -123679.6    830.72528 
   28050    2992.0732   -127157.26            0   -123676.84   -79.385189 
   28100    3025.6764   -127221.09            0   -123701.59    1292.2627 
   28150    3021.3955   -127249.94            0   -123735.41   -2404.2676 
   28200    2980.8083   -127220.23            0   -123752.91    1051.0746 
   28250    2985.8619      -127211            0   -123737.81    275.52548 
   28300    3069.0764    -127220.9            0   -123650.92    2875.5862 
   28350    3026.9672   -127179.41            0   -123658.41    608.00786 
   28400    2991.9375   -127195.77            0   -123715.52     870.2457 
   28450     2999.127   -127250.19            0   -123761.57    1316.9532 
   28500    2967.4067   -127222.29            0   -123770.57    1249.3485 
   28550    3007.4995    -127234.9            0   -123736.54   -543.28855 
   28600    3029.0288   -127205.93            0   -123682.53   -644.47187 
   28650    2987.0269   -127160.24            0   -123685.69    1879.6164 
   28700    3018.5374   -127207.02            0   -123695.82    2313.4392 
   28750    3011.2322   -127244.33            0   -123741.63    2446.4402 
   28800    2961.4864   -127224.31            0   -123779.47    206.51731 
   28850    2960.5789   -127213.32            0   -123769.54    3603.8306 
   28900    3007.7029   -127261.68            0   -123763.08    3192.0665 
   28950    3006.5585   -127267.85            0   -123770.58    2587.3953 
   29000    3022.5299    -127281.6            0   -123765.76   -363.79747 
   29050     3005.099   -127261.68            0   -123766.12    667.04111 
   29100    2982.3857   -127225.78            0   -123756.64    576.76049 
   29150    2992.3254   -127223.51            0   -123742.81    1614.5438 
   29200    2982.7288   -127191.21            0   -123721.66    2792.7729 
   29250    3033.2794   -127198.59            0   -123670.24    3018.0048 
   29300    3023.0089   -127196.07            0   -123679.67    2661.3955 
   29350    2993.0838   -127231.06            0   -123749.47    543.62682 
   29400    2944.8751   -127193.68            0   -123768.17    1193.0029 
   29450    3008.9129   -127254.27            0   -123754.26    4138.4726 
   29500    2995.3043   -127246.19            0   -123762.02    227.52845 
   29550     3021.145    -127234.2            0   -123719.96    2506.0814 
   29600    2994.9661   -127158.94            0   -123675.16    3132.4133 
   29650    3005.3273   -127201.32            0   -123705.48     1265.409 
   29700    2983.1644    -127240.6            0   -123770.55   -1156.1692 
   29750    3010.8366   -127273.93            0   -123771.69   -115.64076 
   29800    2971.5771   -127203.46            0   -123746.89    268.38888 
   29850    2997.3968   -127182.97            0   -123696.36    4079.4116 
   29900    3024.4923   -127192.94            0   -123674.82    1867.0336 
   29950     2982.341   -127245.66            0   -123776.57     60.45435 
   30000    2966.8145   -127252.96            0   -123801.92    551.71607 
   30050    2996.2999   -127259.61            0   -123774.28    811.09135 
   30100     2992.617   -127197.08            0   -123716.03    2985.6713 
   30150    3016.2509   -127204.84            0    -123696.3    2364.4757 
   30200    3001.3584   -127219.65            0   -123728.43    3540.7909 
   30250    2986.4798   -127274.07            0   -123800.16    329.33486 
   30300    3000.4543   -127301.54            0   -123811.38   -1256.8232 
   30350    2994.0842   -127286.74            0   -123803.98    -743.2365 
   30400    3006.5927    -127239.6            0    -123742.3    845.65954 
   30450    3019.7915   -127222.23            0   -123709.57    3383.9251 
   30500    2994.5312   -127218.46            0   -123735.18    1344.9393 
   30550     2985.004   -127243.88            0   -123771.69   -264.17968 
   30600     2983.455   -127236.72            0   -123766.33   -173.67805 
   30650    3002.8026    -127170.4            0   -123677.51    1695.5361 
   30700    3046.0535   -127209.37            0   -123666.16    1665.9755 
   30750    3026.7745   -127214.12            0   -123693.34    412.29887 
   30800    2993.1168   -127212.33            0    -123730.7     324.2544 
   30850    2957.0629   -127217.57            0   -123777.88   -459.72107 
   30900    2980.3115   -127277.44            0    -123810.7   -176.69275 
   30950    2987.3739    -127322.1            0   -123847.16   -158.92833 
   31000    2972.9635   -127293.42            0   -123835.23   -2833.3811 
   31050    3013.2126   -127261.52            0   -123756.52    390.54309 
   31100    3027.0299   -127249.67            0   -123728.59   -950.55199 
   31150    3001.8426   -127225.51            0   -123733.73    -326.5485 
   31200    2963.6916   -127208.58            0   -123761.17    1521.1647 
   31250    2984.5098   -127238.42            0    -123766.8    1767.7445 
   31300    2987.5698   -127193.65            0   -123718.48    1902.0134 
   31350    2989.8284   -127168.08            0   -123690.28    1764.7159 
   31400    3021.4366   -127214.44            0   -123699.87    73.975297 
   31450    2973.2621   -127243.92            0   -123785.39    433.35751 
   31500    2981.1176   -127264.58            0   -123796.91   -676.48282 
   31550    2968.2364   -127221.85            0   -123769.16    718.28403 
   31600    3036.7648   -127254.48            0   -123722.08   -236.48365 
   31650    3023.2337   -127193.33            0   -123676.67    993.83277 
   31700    3043.6862   -127165.63            0   -123625.18    1780.5712 
   31750    3060.9063   -127178.39            0    -123617.9    2683.7913 
   31800    3018.4479   -127212.81            0   -123701.71    2248.3395 
   31850    2993.4259   -127232.26            0   -123750.27    961.83678 
   31900    2933.9759   -127196.12            0   -123783.29    2148.2888 
   31950    2979.1253   -127256.61            0   -123791.25    1551.7359 
   32000    3015.5147   -127247.41            0   -123739.72    1569.1498 
   32050    3032.4934   -127213.07            0   -123685.63    2625.9561 
   32100    2996.6108   -127190.91            0   -123705.21   -555.89526 
   32150    2995.8305   -127223.35            0   -123738.57    3014.8268 
   32200    2951.1507   -127234.18            0   -123801.37    1029.2896 
   32250    2993.4072    -127306.2            0   -123824.24     803.2714 
   32300    2999.7793   -127292.84            0   -123803.46    159.05316 
   32350    3017.8712   -127276.93            0   -123766.51    1091.9694 
   32400    3027.3151   -127253.67            0   -123732.26   -881.39757 
   32450    3023.6599   -127231.24            0   -123714.08   -548.74901 
   32500    2975.0982   -127195.13            0   -123734.46    513.73257 
   32550    2982.3768   -127257.94            0   -123788.81   -904.62678 
   32600    2942.8439    -127225.4            0   -123802.25   -1787.0596 
   32650    2989.6564   -127217.52            0   -123739.92     411.6356 
   32700    3007.1761   -127198.67            0   -123700.68   -520.55418 
   32750    3032.5766   -127233.21            0   -123705.68    2367.5448 
   32800    3026.5603   -127265.61            0   -123745.08    53.370908 
   32850    3011.9551   -127279.56            0   -123776.02    1559.6233 
   32900    2980.2118   -127261.76            0   -123795.14   -247.88757 
   32950    3013.2539   -127262.78            0   -123757.73   -547.47509 
   33000    3012.2802   -127219.66            0   -123715.74    592.67748 
   33050     3012.995   -127214.67            0   -123709.92    1405.1743 
   33100    2957.5318   -127194.91            0   -123754.67    1009.4005 
   33150    2986.1712   -127280.36            0   -123806.81   -373.19909 
   33200    2992.9489   -127304.29            0   -123822.86   -3829.3208 
   33250      3017.27   -127309.83            0    -123800.1   -4096.5956 
   33300    3025.5744   -127302.07            0   -123782.68    1026.2561 
   33350    3000.0448   -127272.82            0   -123783.13   -1467.6925 
   33400    3009.2034    -127271.5            0   -123771.16   -192.63138 
   33450    3018.0811   -127271.04            0   -123760.37     355.6467 
   33500    3002.7317   -127236.27            0   -123743.46    1078.9021 
   33550    3041.3805   -127234.29            0   -123696.52    2364.9904 
   33600    3035.3112   -127235.72            0   -123705.01    2390.8575 
   33650    3000.8719   -127267.83            0   -123777.18   -1183.2261 
   33700    3016.7244    -127302.1            0   -123793.01   -45.333593 
   33750    3013.7102   -127276.44            0   -123770.86   -586.83313 
   33800    2972.9238   -127189.29            0   -123731.15    1405.8046 
   33850    3006.3791   -127180.74            0   -123683.69    1521.0281 
   33900    3030.6892   -127221.61            0   -123696.27    3193.1884 
   33950    2996.4874   -127221.54            0   -123735.99    1972.0219 
   34000    2992.6807   -127248.43            0    -123767.3    769.88222 
   34050    2971.5616   -127245.29            0   -123788.73    112.95516 
   34100    3037.0048    -127268.8            0   -123736.12   -232.80478 
   34150    3019.2062   -127180.77            0   -123668.79    1049.3793 
   34200    3042.6991   -127218.72            0   -123679.41    454.87799 
   34250    3042.3959   -127277.44            0   -123738.49   -2489.9882 
   34300    3002.2236    -127259.5            0   -123767.28   -2096.0203 
   34350    3007.3711   -127259.57            0   -123761.36    549.40126 
   34400     2982.288   -127233.71            0   -123764.67     1965.745 
   34450    2966.2055   -127220.52            0   -123770.19    2991.1269 
   34500    3021.1382   -127275.78            0   -123761.56    290.23552 
   34550    2993.3638   -127212.66            0   -123730.74   -397.22978 
   34600    3033.7422   -127232.28            0   -123703.39    509.75235 
   34650    2999.5129   -127191.61            0   -123702.54    2624.1499 
   34700    3027.5677   -127236.39            0   -123714.68    3226.4145 
   34750     2960.148    -127208.6            0   -123765.32    1771.1206 
   34800    2953.9294   -127240.59            0   -123804.55    5055.4917 
   34850    2989.1526   -127260.96            0   -123783.95    1013.4043 
   34900    3029.1411   -127225.22            0   -123701.69      2307.25 
   34950    3020.3641   -127205.77            0   -123692.45    2676.6645 
   35000     3013.764   -127244.42            0   -123738.78    1062.8663 
Loop time of 122.403 on 24 procs for 10000 steps with 9000 atoms

Performance: 14.117 ns/day, 1.700 hours/ns, 81.697 timesteps/s
99.6% CPU use with 24 MPI tasks x no OpenMP threads

MPI task timing breakdown:
Section |  min time  |  avg time  |  max time  |%varavg| %total
---------------------------------------------------------------
Pair    | 113.5      | 115.03     | 115.93     |   5.9 | 93.97
Bond    | 0.0016109  | 0.002142   | 0.0027111  |   0.6 |  0.00
Neigh   | 3.3546     | 3.4572     | 3.5512     |   3.0 |  2.82
Comm    | 1.3301     | 2.0843     | 3.0808     |  34.4 |  1.70
Output  | 0.0087097  | 0.0089006  | 0.01118    |   0.5 |  0.01
Modify  | 1.0075     | 1.6526     | 2.2145     |  30.3 |  1.35
Other   |            | 0.172      |            |       |  0.14

Nlocal:    375 ave 389 max 364 min
Histogram: 2 4 2 1 5 3 2 2 2 1
Nghost:    5693.5 ave 5767 max 5615 min
Histogram: 3 1 1 2 1 6 4 4 1 1
Neighs:    131390 ave 137643 max 125394 min
Histogram: 3 2 1 3 2 3 5 1 2 2

Total # of neighbors = 3153364
Ave neighs/atom = 350.374
Ave special neighs/atom = 0
Neighbor list builds = 959
Dangerous builds = 584

unfix thermostat_nvt

dump atoms all custom 1000000 lattice.out id type x y z c_peratom fx fy fz

reset_timestep 0

fix nve_fix all nve


thermo_modify line one format float %15.15g

variable tempsteps equal step

compute 1 all chunk/atom bin/1d ${dimension} lower ${thickness} units reduced
compute 1 all chunk/atom bin/1d z lower ${thickness} units reduced
compute 1 all chunk/atom bin/1d z lower 0.05 units reduced
fix 3 all ave/chunk 50 10 1050 1 v_temp file tmp_profile.out
fix flux all thermal/conductivity ${swapsteps} ${dimension} 20
fix flux all thermal/conductivity 50 ${dimension} 20
fix flux all thermal/conductivity 50 z 20

thermo_style custom step v_currenttime temp pe c_pe temp f_flux etotal press
WARNING: New thermo_style command, previous thermo_modify settings will be lost (../output.cpp:705)
thermo_style multi
thermo_modify line one format float %15.15g
thermo ${swapsteps}
thermo 50

variable fluxstep equal step-${tempsteps}
variable fluxstep equal step-0
variable fluxtime equal dt*v_fluxstep
variable fflux equal f_flux
variable eetotal equal etotal

fix fluxlog all print ${swapsteps} "${fluxstep} ${fluxtime} ${eetotal} ${fflux} " file flux_log.out
fix fluxlog all print 50 "${fluxstep} ${fluxtime} ${eetotal} ${fflux} " file flux_log.out

run         ${TCsteps}
run         2500000
Per MPI rank memory allocation (min/avg/max) = 9.588 | 9.601 | 9.614 Mbytes
TotEng KinEng Temp PotEng E_bond E_angle E_dihed E_impro E_vdwl E_coul E_long Press 
-123738.776679912 3505.64662571283 3013.76403487107 -127244.423305625               0               0               0               0 -10963.837306028 -116280.585999597               0 1062.86629816711 
50 0.1 -123738.613968384 1.7484535914367 
-123738.613968384 3504.98341415902 3013.19387953547 -127243.597382543               0               0               0               0 -10962.7736459524 -116280.823736591               0 934.182735073383 
100 0.2 -123738.272318782 2.21411615680068 
-123738.272318782 3475.54221016072 2987.88361548815 -127213.814528943               0               0               0               0 -10919.4027564489 -116294.411772494               0 1770.16057630881 
150 0.3 -123738.494960968 4.26954348237793 
-123738.494960968 3478.62781693443 2990.53627609922 -127217.122777902               0               0               0               0 -10910.1045672058 -116307.018210697               0 2745.48779309277 
200 0.4 -123737.992580967 6.1689856032108 
-123737.992580967 3517.29924186102 3023.78165478803 -127255.291822828               0               0               0               0 -10982.0797143344 -116273.212108494               0 5.75384584418368 
250 0.5 -123738.019310369 7.13723960307029 
-123738.019310369 3512.74616121015 3019.86742378345 -127250.765471579               0               0               0               0 -11001.9845183671 -116248.780953212               0 -352.103473099203 
300 0.6 -123737.955784352 9.19891227617231 
-123737.955784352 3490.94410813569 3001.12444981676 -127228.899892488               0               0               0               0 -10928.6794911201 -116300.220401368               0 1113.78337913294 
350 0.7 -123737.94484181 10.3112377851346 
-123737.94484181 3497.97787007776 3007.17129396111 -127235.922711888               0               0               0               0 -10912.1061793485 -116323.81653254               0 2569.12161533643 
400 0.8 -123737.633976912 13.539019752412 
-123737.633976912 3488.71237749247 2999.20585668226 -127226.346354405               0               0               0               0 -10901.1914954385 -116325.154858966               0 2820.84678923827 
450 0.9 -123737.705125971 15.5706999137508 
-123737.705125971 3511.89725203999 3019.13762634547 -127249.602378011               0               0               0               0 -10963.917800682 -116285.684577329               0 620.033498686614 
500 1 -123737.502310246 16.7046649176257 
-123737.502310246 3477.63549316103 2989.68318677833 -127215.137803407               0               0               0               0 -10940.9058545977 -116274.231948809               0 491.171657581096 
550 1.1 -123737.498122503 18.9617759993908 
-123737.498122503 3502.0191371969 3010.64552476625 -127239.5172597               0               0               0               0 -10925.0120053144 -116314.505254385               0 1646.43487327084 
600 1.2 -123737.445247415 21.2073558856035 
-123737.445247415 3504.79224282619 3013.02953174207 -127242.237490241               0               0               0               0 -10951.6220178148 -116290.615472426               0 -173.270461416827 
650 1.3 -123737.594234533 23.5301657387845 
-123737.594234533 3478.0137881748 2990.00840264541 -127215.608022708               0               0               0               0 -10895.5681191799 -116320.039903528               0 2029.07545031327 
700 1.4 -123736.578460901 24.9013498729649 
-123736.578460901 3538.65013836745 3042.13677464847 -127275.228599268               0               0               0               0 -11000.6013320106 -116274.627267257               0 -731.225073446937 
750 1.5 -123736.264323352 26.5654874745275 
-123736.264323352 3478.31273717865 2990.26540566147 -127214.57706053               0               0               0               0 -10841.1779845001 -116373.39907603               0 4227.6916886837 
800 1.6 -123736.754533018 28.8395575415633 
-123736.754533018 3538.31615256585 3041.84965090086 -127275.070685584               0               0               0               0 -11032.8988423438 -116242.17184324               0 -1420.87592580877 
850 1.7 -123736.350401385 30.5663995500218 
-123736.350401385 3493.6198205476 3003.42472896513 -127229.970221933               0               0               0               0 -10933.2549972089 -116296.715224724               0 1386.94694219327 
900 1.8 -123736.302052975 31.8063527821845 
-123736.302052975   3493.96890962 3003.72483682074 -127230.270962595               0               0               0               0 -10923.8695634864 -116306.401399109               0 2215.33150752061 
950 1.9 -123735.872473491 32.7916676324129 
-123735.872473491 3502.68362364138 3011.21677611068 -127238.556097133               0               0               0               0 -10914.2204699321 -116324.3356272               0 1006.86377005339 
1000 2 -123735.707766206 35.0880794324284 
-123735.707766206 3489.60608512475 2999.97416684225 -127225.313851331               0               0               0               0 -10901.9180476412 -116323.39580369               0 2344.44740966997 
1050 2.1 -123736.31626911 36.215891442719 
-123736.31626911 3514.09072328088 3021.02332831236 -127250.406992391               0               0               0               0 -10993.2670621371 -116257.139930254               0 -291.951207563224 
1100 2.2 -123736.016607652 38.2159601511866 
-123736.016607652 3466.83418473131 2980.39742630371 -127202.850792383               0               0               0               0 -10973.0995771294 -116229.751215254               0 -141.255218797245 
1150 2.3 -123736.057299437 40.0426219479033 
-123736.057299437 3497.17458217756 3006.48071660356 -127233.231881615               0               0               0               0 -10943.1463298267 -116290.085551788               0 902.664606648761 
1200 2.4 -123735.980970066 41.706576112029 
-123735.980970066 3480.15552042797 2991.84962520036 -127216.136490494               0               0               0               0 -10871.0246092521 -116345.111881242               0 2822.78873246256 
1250 2.5 -123735.144537793 43.5500204015612 
-123735.144537793 3493.87616145122 3003.64510228808 -127229.020699244               0               0               0               0 -10936.9047012457 -116292.115997999               0 1486.76337950064 
1300 2.6 -123735.328217821 44.2663283492534 
-123735.328217821 3479.16533273887 2990.99837224654 -127214.49355056               0               0               0               0 -10919.2334897447 -116295.260060816               0 1555.60262210381 
1350 2.7 -123734.865821437 45.1485536075709 
-123734.865821437 3512.65500618994 3019.78905886227 -127247.520827626               0               0               0               0 -10942.9594858549 -116304.561341772               0 350.896162338964 
1400 2.8 -123735.008161056 46.1210882036241 
-123735.008161056 3491.51510806745 3001.61533188274 -127226.523269123               0               0               0               0 -10985.5092459009 -116241.014023222               0 -448.02007323189 
1450 2.9 -123735.248380544 47.8140641809677 
-123735.248380544 3486.81227582779 2997.57236116175 -127222.060656372               0               0               0               0 -10944.9376063075 -116277.123050064               0 -389.586463402393 
1500 3 -123735.118187524 49.7785967939588 
-123735.118187524 3537.38329755657 3041.04768619166 -127272.50148508               0               0               0               0 -10998.7469280913 -116273.754556989               0 -883.651937640114 
1550 3.1 -123735.538800997 50.6084052934966 
-123735.538800997 3511.05473742397 3018.41332623205 -127246.593538421               0               0               0               0 -11005.9820395598 -116240.611498861               0 -1049.579352101 
1600 3.2 -123735.276188019 52.8176446176086 
-123735.276188019 3485.8585732533 2996.75247404082 -127221.134761272               0               0               0               0 -10980.9375961871 -116240.197165085               0 259.933581248167 
1650 3.3 -123735.524332743 53.1849651304559 
-123735.524332743 3504.05285419289 3012.39388784844 -127239.577186936               0               0               0               0 -10902.3358933296 -116337.241293606               0 1775.56803606426 
1700 3.4 -123735.454293066 54.3052603096037 
-123735.454293066 3486.99768698718 2997.73175700037 -127222.451980053               0               0               0               0 -10938.6624384178 -116283.789541635               0 1059.95221032547 
1750 3.5 -123735.871676936 55.7983217015852 
-123735.871676936 3501.93348804257 3010.57189317456 -127237.805164979               0               0               0               0 -10936.5019152675 -116301.303249711               0 1764.93237453994 
1800 3.6 -123735.494535801 57.7634761372431 
-123735.494535801  3494.945638729 3004.56451958823 -127230.44017453               0               0               0               0 -10917.8763216446 -116312.563852886               0 670.261280661838 
1850 3.7 -123735.399970943 59.9336657754076 
-123735.399970943 3476.75051508805 2988.92238131994 -127212.150486031               0               0               0               0 -10861.2693824045 -116350.881103627               0 2465.95773681706 
[...]
101800 203.6 -119509.164315629 2365.73538949383 
-119509.164315629 5301.22353000373 4557.40082253408 -124810.387845633               0               0               0               0 -9094.81418218149 -115715.573663452               0 79880.3912517816 
101850 203.7 -119480.579799255 2366.49643434561 
-119480.579799255 5275.53922013503 4535.32031710749 -124756.11901939               0               0               0               0 -9089.80025200322 -115666.318767387               0 79221.0094370773 
101900 203.8 -119452.861314264 2367.92520104259 
-119452.861314264 5345.59125861896 4595.54324790826 -124798.452572883               0               0               0               0 -9031.87140332929 -115766.581169554               0 81476.645556811 
101950 203.9 -119424.369120703 2369.64970260795 
-119424.369120703 5249.94952913796 4513.32115443525 -124674.318649841               0               0               0               0 -8962.55170228938 -115711.766947552               0 82959.9131361274 
102000 204 -119395.471271704 2371.09094310079 
-119395.471271704 5353.04303461315 4601.94945391958 -124748.514306317               0               0               0               0 -9053.20800498277 -115695.306301334               0 81498.6878412282 
102050 204.1 -119364.198751171 2371.6103129528 
-119364.198751171 5291.5977887261 4549.12568360287 -124655.796539897               0               0               0               0 -9035.86438659699 -115619.9321533               0 81242.326739738 
102100 204.2 -119323.986061 2373.48379758198 
 -119323.986061 5339.74748594253 4590.51942383227 -124663.733546942               0               0               0               0 -8871.31883312018 -115792.414713822               0 87247.5326779212 
102150 204.3 -119284.114433779 2374.88255372038 
-119284.114433779 5338.95352577948 4589.83686542294 -124623.067959559               0               0               0               0 -8838.95410874475 -115784.113850814               0 88172.2822569812 
102200 204.4 -119229.995063132 2376.09088337949 
-119229.995063132 5391.79165047667 4635.26119276798 -124621.786713609               0               0               0               0 -8820.73814953278 -115801.048564076               0 90586.2696178907 
102250 204.5 -119189.192175903 2378.05317064211 
-119189.192175903 5404.66462777903 4646.32794311612 -124593.856803682               0               0               0               0 -8828.55658721305 -115765.300216469               0 89076.7053828809 
102300 204.6 -119159.055170485 2379.67947302804 
-119159.055170485 5476.88343929529 4708.41362374133 -124635.93860978               0               0               0               0 -8963.17242489788 -115672.766184882               0 86839.7239023069 
102350 204.7 -119111.638378442 2380.50712388648 
-119111.638378442 5494.3107871512 4723.39571400852 -124605.949165593               0               0               0               0 -8949.01641488545 -115656.932750708               0 86483.4069451425 
102400 204.8 -119056.565036826 2381.88324646016 
-119056.565036826 5485.91446415091 4716.17749181299 -124542.479500977               0               0               0               0 -8843.78941380994 -115698.690087167               0 90596.8970545395 
102450 204.9 -119005.43251462 2382.67893156274 
-119005.43251462 5521.84558359915 4747.06706143803 -124527.278098219               0               0               0               0 -8883.34190811896 -115643.9361901               0 88633.3323489156 
102500 205 -118973.706944623 2383.22768983982 
-118973.706944623 5532.15177525936 4755.92717572742 -124505.858719882               0               0               0               0 -8878.65685889431 -115627.201860988               0 88231.365250284 
102550 205.1 -118926.685034107 2384.75110911211 
-118926.685034107 5571.31124646267 4789.59212218023 -124497.99628057               0               0               0               0 -8740.879423041 -115757.116857529               0 94875.2345802093 
102600 205.2 -118886.167016753 2385.60547581547 
-118886.167016753 5652.15097363647 4859.08910472212 -124538.31799039               0               0               0               0 -8870.7956479489 -115667.522342441               0 91950.5666606988 
102650 205.3 -118841.035973197 2386.3809821426 
-118841.035973197 5583.28203324095 4799.88326972399 -124424.318006438               0               0               0               0 -8731.24113798871 -115693.076868449               0 96017.8228895975 
102700 205.4 -118788.329653128 2386.71842523004 
-118788.329653128 5615.66164289381 4827.71964727534 -124403.991296022               0               0               0               0 -8858.10142675007 -115545.889869272               0 93190.6812304435 
102750 205.5 -118734.974125747 2388.60325783287 
-118734.974125747 5646.08101002152 4853.87082690098 -124381.055135769               0               0               0               0 -8751.54320434537 -115629.511931424               0 95420.4133946791 
102800 205.6 -118691.668464256 2389.58679705601 
-118691.668464256 5678.59030624849 4881.81869450669 -124370.258770504               0               0               0               0 -8814.19820537999 -115556.060565124               0 94110.3979017531 
102850 205.7 -118644.919561886 2390.54671160272 
-118644.919561886 5759.22485647096 4951.13928878623 -124404.144418357               0               0               0               0 -8692.08335377613 -115712.061064581               0 99099.7586753297 
102900 205.8 -118559.838872412 2391.45059317453 
-118559.838872412 5741.22995022816 4935.66927510953 -124301.06882264               0               0               0               0 -8685.92438214885 -115615.144440491               0 97789.1412937713 
102950 205.9 -118482.207732146 2393.00575838452 
-118482.207732146 5826.81252067241 5009.24362539484 -124309.020252818               0               0               0               0 -8680.10176877491 -115628.918484043               0 99532.412582408 
103000 206 -118413.067530023 2394.2027615986 
-118413.067530023 5787.18334334342 4975.17487799468 -124200.250873367               0               0               0               0 -8609.48553432635 -115590.765339041               0 100913.464074926 
103050 206.1 -118352.918458725 2395.29361917257 
-118352.918458725 5849.84289122146 5029.04256974976 -124202.761349946               0               0               0               0 -8567.55731097005 -115635.204038976               0 104159.55548682 
103100 206.2 -118308.419112927 2397.03659098437 
-118308.419112927 5905.20178804276 5076.63397586196 -124213.62090097               0               0               0               0 -8615.1373005085 -115598.483600461               0 103891.765149171 
103150 206.3 -118269.453534226 2397.85306915755 
-118269.453534226 5894.7669940525 5067.66330363035 -124164.220528278               0               0               0               0 -8621.77601751126 -115542.444510767               0 102708.864227828 
103200 206.4 -118190.074278366 2399.52084648853 
-118190.074278366 5937.87201974817 5104.72019784523 -124127.946298115               0               0               0               0 -8561.74876680472 -115566.19753131               0 105398.66918783 
103250 206.5 -118130.56812811 2401.1271533817 
-118130.56812811 5998.05269043249 5156.45682742236 -124128.620818543               0               0               0               0 -8594.17915650887 -115534.441662034               0 105025.874615965 
103300 206.6 -118072.623782779 2402.15739477536 
-118072.623782779 6050.26441219374 5201.34264337671 -124122.888194973               0               0               0               0 -8483.29963638646 -115639.588558586               0 108220.841288378 
103350 206.7 -117983.777543406 2403.75057606923 
-117983.777543406 6059.84927145125  5209.582636506 -124043.626814857               0               0               0               0 -8578.71512561112 -115464.911689246               0 107274.957120842 
103400 206.8 -117885.780893985 2404.3784162262 
-117885.780893985 6164.93781614319 5299.92604823111 -124050.718710128               0               0               0               0 -8446.86347133248 -115603.855238796               0 113541.174686156 
103450 206.9 -117798.195792481 2405.82923183222 
-117798.195792481 6146.75561577801 5284.29501995419 -123944.951408259               0               0               0               0 -8412.03971392544 -115532.911694334               0 113748.765270425 
103500 207 -117724.913244208 2407.62375700087 
-117724.913244208 6234.37385844965 5359.61941421161 -123959.287102657               0               0               0               0 -8385.93750980224 -115573.349592855               0 115607.691047531 
103550 207.1 -117614.226691552 2409.02628621385 
-117614.226691552 6205.03790299481 5334.39963112512 -123819.264594546               0               0               0               0 -8223.38599719145 -115595.878597355               0 120287.205320052 
103600 207.2 -117484.30318693 2409.62360555286 
-117484.30318693 6360.74947906776 5468.26307997925 -123845.052665998               0               0               0               0 -8216.45407048048 -115628.598595517               0 119933.909576414 
103650 207.3 -117396.745095101 2411.80880437217 
-117396.745095101 6345.21576125212 5454.90892165158 -123741.960856353               0               0               0               0 -8226.17346363006 -115515.787392723               0 122099.091663142 
103700 207.4 -117257.235497043 2414.21534334667 
-117257.235497043 6483.38242503549 5573.6892114487 -123740.617922078               0               0               0               0 -8249.66385543031 -115490.954066648               0 121574.601394205 
103750 207.5 -117109.876810038 2416.24329074778 
-117109.876810038 6608.52099250241 5681.26939686753 -123718.397802541               0               0               0               0 -8427.02150003325 -115291.376302507               0 118001.201114502 
103800 207.6 -116997.302894195 2418.45695966678 
-116997.302894195 6600.38713591372 5674.27681402361 -123597.690030109               0               0               0               0 -8284.15217619764 -115313.537853911               0 122857.589192031 
103850 207.7 -116875.286100847 2419.5371362515 
-116875.286100847 6669.89567055495 5734.03250082953 -123545.181771402               0               0               0               0 -8145.17089234812 -115400.010879053               0 128578.366804867 
103900 207.8 -116723.673560057 2421.2126633371 
-116723.673560057 6753.31641595531 5805.74835501909 -123476.989976012               0               0               0               0 -8112.62259339755 -115364.367382615               0 132896.857646688 
103950 207.9 -116569.76728848 2422.61445531241 
-116569.76728848 6915.63287533466 5945.28994599324 -123485.400163815               0               0               0               0 -8031.44741541474 -115453.9527484               0 132962.910462794 
104000 208 -116421.99578107 2423.70142149768 
-116421.99578107 7000.20618204973 6017.99664387273 -123422.201963119               0               0               0               0 -8070.46709416957 -115351.73486895               0 133979.725928014 
104050 208.1 -116207.295728822 2424.66904187864 
-116207.295728822 7074.68188532149 6082.02254835092 -123281.977614143               0               0               0               0 -7869.89543738015 -115412.082176763               0 142039.437426807 
104100 208.2 -116012.479781391 2425.55328165731 
-116012.479781391 7213.97099806402 6201.76779459267 -123226.450779455               0               0               0               0 -7902.50189402464 -115323.94888543               0 142903.143134323 
104150 208.3 -115796.742922074 2427.17080448092 
-115796.742922074 7338.77121626749 6309.05710504597 -123135.514138341               0               0               0               0 -8006.22343874535 -115129.290699596               0 142127.639429851 
104200 208.4 -115593.588003253 2428.67565223058 
-115593.588003253 7422.28236863897 6380.85068106752 -123015.870371892               0               0               0               0 -7834.56379983784 -115181.306572054               0 149997.62405773 
104250 208.5 -115410.487352396 2429.86534848295 
-115410.487352396 7489.19794193055 6438.37722886038 -122899.685294327               0               0               0               0 -7617.63697813361 -115282.048316193               0 157221.257128714 
104300 208.6 -115182.973354339 2431.80720828204 
-115182.973354339 7739.92363277702 6653.92321805079 -122922.896987116               0               0               0               0 -7592.26962631378 -115330.627360802               0 160264.118625649 
104350 208.7 -114930.520800615 2432.2166222184 
-114930.520800615  7859.130276043 6756.40379654311 -122789.651076658               0               0               0               0 -7589.99764255489 -115199.653434103               0 162642.130339467 
104400 208.8 -114699.158867296 2433.94310503294 
-114699.158867296 7875.81170908122 6770.74463243112 -122574.970576377               0               0               0               0 -7525.51494036757 -115049.45563601               0 164250.591972128 
104450 208.9 -114355.519564336 2436.1928011382 
-114355.519564336 8158.11197675943 7013.43492172692 -122513.631541095               0               0               0               0 -7391.17699698621 -115122.454544109               0 171922.656878641 
104500 209 -114032.402603156 2437.67370520574 
-114032.402603156 8313.8581472344 7147.32811099008 -122346.260750391               0               0               0               0 -7303.35255741962 -115042.908192971               0 177949.310155071 
104550 209.1 -113651.730807947 2440.00386909916 
-113651.730807947 8571.05030380614 7368.43324629996 -122222.781111753               0               0               0               0 -7068.64441259642 -115154.136699157               0 188639.158581412 
104600 209.2 -113301.987212992 2442.03490635569 
-113301.987212992 8746.6033026024 7519.35413778552 -122048.590515594               0               0               0               0 -7116.53267573535 -114932.057839859               0 190834.618570719 
104650 209.3 -112898.790093603 2443.19694192853 
-112898.790093603 9154.62760099124 7870.12792850886 -122053.417694594               0               0               0               0 -7121.42775228655 -114931.989942307               0 193453.062072804 
104700 209.4 -112408.133635923 2444.53470032702 
-112408.133635923 9506.55767476179 8172.67816028059 -121914.691310684               0               0               0               0 -6900.53501474914 -115014.156295935               0 205992.437398098 
104750 209.5 -111806.791521033 2446.55729495005 
-111806.791521033 9888.64532358123 8501.15451204247 -121695.436844614               0               0               0               0 -6835.92000825034 -114859.516836364               0 214251.668459994 
104800 209.6 -111165.685741116 2448.37210619602 
-111165.685741116 10396.5439231498 8937.7890893881 -121562.229664266               0               0               0               0 -6565.01789085529 -114997.211773411               0 224024.135033609 
104850 209.7 -110338.241205963 2449.23599385816 
-110338.241205963 10724.4347218848 9219.67303323586 -121062.675927848               0               0               0               0 -6322.86355296204 -114739.812374886               0 240500.414516121 
104900 209.8 -109517.926086799 2450.76101076795 
-109517.926086799 11265.093043222 9684.47076614155 -120783.019130021               0               0               0               0 -6166.53833677241 -114616.480793248               0 248753.524746773 
104950 209.9 -108518.06967114 2453.00672852551 
-108518.06967114 11851.263832221 10188.3950433975 -120369.333503361               0               0               0               0 -5974.89917483786 -114394.434328523               0 263593.006027983 
105000 210 -107397.981686827 2453.54502656982 
-107397.981686827 12723.7660322776 10938.475137492 -120121.747719105               0               0               0               0 -5718.70125849089 -114403.046460614               0 282203.285424882 
105050 210.1 -106087.962540585 2455.04326698668 
-106087.962540585 13750.0892109414 11820.7933555704 -119838.051751526               0               0               0               0 -5615.8474839847 -114222.204267542               0 293931.483754706 
105100 210.2 -104592.643677553 2455.46857490515 
-104592.643677553 14818.5308515377 12739.3203303572 -119411.174529091               0               0               0               0 -5219.45439814438 -114191.720130946               0 318707.163345099 
105150 210.3 -103032.384405846 2456.29972999681 
-103032.384405846 15961.8880627659 13722.2513585265 -118994.272468612               0               0               0               0 -5031.54863890453 -113962.723829707               0 342040.727157388 
105200 210.4 -101040.515659486 2458.20232510289 
-101040.515659486 17185.5008410723 14774.1771735303 -118226.016500559               0               0               0               0 -4257.74732493953 -113968.269175619               0 378002.833479797 
105250 210.5 -98823.3404866986 2458.23495985546 
-98823.3404866986 19068.7487905552 16393.1837491695 -117892.089277254               0               0               0               0 -4282.47796802828 -113609.611309225               0 404345.199572513 
105300 210.6 -96469.1831174968 2459.40866232375 
-96469.1831174968 20803.3953847137 17884.4394508543 -117272.57850221               0               0               0               0 -3677.32199394807 -113595.256508262               0 434282.778343326 
105350 210.7 -93469.8256274249 2460.83068478154 
-93469.8256274249 23142.921219632 19895.7028703368 -116612.746847057               0               0               0               0 -3307.66448761877 -113305.082359438               0 471254.338076373 
105400 210.8 -89998.5612233352 2460.79098410858 
-89998.5612233352 25868.4004669183 22238.7659939878 -115866.961690254               0               0               0               0 -2547.86864024163 -113319.093050012               0 528762.897331402 
105450 210.9 -86602.1922421606 2462.94349749515 
-86602.1922421606  28040.26811117 24105.8955976211 -114642.460353331               0               0               0               0 -1661.00821845351 -112981.452134877               0 573016.59145557 
105500 211 -82185.9303766955 2465.17291672345 
-82185.9303766955 31418.3191317201 27009.9671600603 -113604.249508416               0               0               0               0 -690.855739453661 -112913.393768962               0 635520.691937661 
105550 211.1 -76958.7664914608 2464.93037269057 
-76958.7664914608 35701.4423605557 30692.1188776084 -112660.208852016               0               0               0               0 45.5018816766218 -112705.710733693               0 710189.872850071 
105600 211.2 -72020.6530386553 2466.33412000915 
-72020.6530386553 39562.5463468431 34011.4655120983 -111583.199385498               0               0               0               0 728.580415881987 -112311.77980138               0 778046.314468093 
105650 211.3 -67054.4862969733 2467.42223337479 
-67054.4862969733 43423.4129647582 37330.6080837317 -110477.899261732               0               0               0               0 2148.14047959293 -112626.039741324               0 862217.079126589 
105700 211.4 -61189.5300492158 2468.79685734889 
ERROR: Lost atoms: original 9000 current 8998 (../thermo.cpp:441)
Last command: run         ${TCsteps}
