ITEM: TIMESTEP
0
ITEM: NUMBER OF ATOMS
18000
ITEM: BOX BOUNDS pp pp pp
3.6204515785087032e-01 2.6978954842149086e+01
3.6754772776171940e-01 2.6973452272238468e+01
4.3334916322021968e+00 3.2375850836780091e+02
ITEM: ATOMS id type x y z c_peratom fx fy fz 
362 3 5.64306 5.58767 9.74146 -29.5713 0.542297 0.924261 0.91274 
1801 2 5.65936 3.04541 7.12921 -25.6469 -0.493847 0.349528 -0.131994 
3061 3 2.98581 5.76944 7.12637 -29.1313 0.175308 -0.528268 0.226543 
4502 2 2.97651 2.90873 9.76326 -25.5983 0.435319 0.661403 -0.725934 
6001 1 1.49836 1.67587 5.69011 -7.46809 1.23559 -0.156492 0.52639 
7501 1 4.39065 4.43458 8.58417 -7.49293 -0.246876 -1.81079 -1.06143 
9001 1 4.34162 4.465 5.87633 -7.75562 0.0351246 0.483428 0.403798 
10501 1 1.65339 1.44909 8.40792 -7.96911 -0.297505 0.436298 -0.766471 
12001 1 4.31842 1.50549 8.30213 -7.49415 -0.00423777 1.45682 0.747175 
13501 1 1.72976 4.40431 5.73897 -7.5284 -0.735044 0.551367 1.11584 
15001 1 1.77471 4.34312 8.39551 -8.04553 -1.30936 -1.02501 0.353885 
16501 1 4.23745 1.78659 5.77218 -7.38556 -0.601648 -0.471064 -0.321582 
4501 2 2.97657 3.09121 4.46707 -25.7157 -0.12685 -0.154219 -0.0793163 
10801 1 7.00916 1.77182 8.46919 -7.89781 -0.609182 -1.29394 -0.40486 
13801 1 7.00603 4.27797 5.65796 -7.46867 -1.04691 0.886777 0.621993 
301 3 5.71989 0.415611 4.49818 -29.3914 -0.0963172 0.20663 -0.63206 
6301 1 6.82151 1.61166 5.8112 -7.80497 1.74774 0.155351 -0.632162 
10561 1 1.73681 6.94702 8.45269 -7.72504 -0.134613 0.960395 -0.371204 
12061 1 4.3887 6.99534 8.53039 -7.46736 -0.285607 0.823211 -0.69978 
6002 1 1.65624 1.62148 10.9705 -7.25275 -0.630509 -0.722116 0.753749 
361 2 5.58488 5.79297 4.49133 -25.5016 0.212505 -0.217731 -0.74819 
15301 1 7.01894 4.47365 8.35324 -7.16498 -0.431858 -1.56934 0.205468 
662 2 10.9758 5.65195 9.77968 -25.6779 -0.0559175 0.539471 -1.36031 
2101 3 10.8583 2.929 6.99183 -29.3309 0.74675 1.04521 0.1194 
3361 3 8.29389 5.75691 7.01186 -29.9172 0.505794 -1.35229 0.850264 
4802 2 8.25806 3.01727 9.77252 -25.7872 0.445598 1.17888 -0.113901 
6601 1 12.2943 1.58243 5.59679 -7.31404 0.339595 -0.594579 2.12945 
7801 1 9.61556 4.1891 8.25721 -7.01182 0.473033 1.34533 0.731589 
9301 1 9.56344 4.38155 5.655 -7.30301 0.809732 -0.02544 -0.589127 
11101 1 12.2866 1.63024 8.33455 -7.59111 0.320346 1.0862 -0.235727 
12301 1 9.65518 1.69445 8.45275 -7.72265 -0.51187 -1.04905 -0.918312 
14101 1 12.296 4.20437 5.68954 -7.49636 -0.322663 0.754976 0.99939 
15601 1 12.3122 4.37006 8.46114 -7.3728 -0.314929 -0.378927 -1.36691 
16801 1 9.7152 1.71527 5.66585 -7.7768 -1.64539 0.266693 0.383077 
661 2 10.9343 5.74277 4.37805 -25.1677 0.904603 -1.96884 1.41325 
601 3 10.8975 0.432007 4.41417 -29.685 0.176427 -0.516177 -0.585104 
5101 2 13.6361 2.99446 4.34587 -25.6284 1.69099 0.736161 1.3219 
10861 1 7.05237 6.88603 8.4148 -7.1321 -0.343725 2.38266 0.879739 
16861 1 9.60778 7.0017 5.81003 -7.52529 1.2431 0.630578 -0.513529 
12361 1 9.76332 6.96467 8.32661 -7.5217 0.00118479 -0.297639 0.845337 
6661 1 12.3544 6.92003 5.85676 -7.99124 -1.01505 0.688922 -1.36467 
602 2 10.9314 0.449659 9.76148 -25.6327 0.686412 -1.50554 0.711001 
5102 2 13.7277 3.08724 9.68179 -25.3502 -1.53434 -0.44549 1.04496 
3661 2 13.7011 5.66518 7.03067 -25.316 -0.95702 0.593363 0.248624 
962 2 16.3822 5.61831 9.68323 -25.1439 -0.71444 0.883985 0.54941 
2401 3 16.3508 2.99198 7.03962 -28.8003 0.111472 0.178917 -0.463271 
3961 3 19.014 5.5558 7.06488 -29.552 0.808711 0.748568 0.130971 
5402 2 19.0578 3.04896 9.76206 -25.2554 0.646647 -0.836988 -1.28846 
6901 1 17.6469 1.74491 5.57788 -7.84534 -0.451525 -1.06059 0.39325 
8101 1 14.9544 4.44989 8.29668 -8.19417 1.57172 -0.851161 0.699659 
9601 1 15.0354 4.4271 5.65398 -7.9002 0.384946 -0.198211 0.270907 
11401 1 17.7215 1.79919 8.3289 -7.93296 0.117923 -1.49655 -0.38739 
12601 1 15.0339 1.77748 8.47968 -7.82706 0.509285 -0.177427 -1.22754 
14401 1 17.7464 4.35577 5.87589 -7.88489 -0.121566 -0.619185 -0.684354 
15901 1 17.6676 4.3167 8.40134 -7.58386 -0.367769 -0.337734 0.5564 
17101 1 15.0295 1.62537 5.72494 -7.68583 -0.25851 0.676802 0.510951 
17461 1 20.2124 6.8856 5.7697 -7.54518 0.581667 1.1607 0.591453 
3901 3 19.0357 0.405523 7.027 -28.891 0.362055 -0.518395 -0.0649003 
961 3 16.4506 5.69198 4.46202 -29.3111 -0.747203 -0.0617496 -0.462414 
5401 2 18.9538 3.1044 4.38072 -25.3868 0.807729 -0.548041 0.883653 
8401 1 20.3084 4.27432 8.32361 -7.39885 -0.672511 0.597233 -0.0783543 
17401 1 20.2528 1.71887 5.84838 -7.76115 0.00101789 -0.44372 -0.819388 
6961 1 17.6448 6.90454 5.66301 -7.37336 -0.496567 0.366804 0.184664 
11461 1 17.7642 6.83353 8.33191 -7.65661 0.153548 0.998893 0.278346 
902 2 16.388 0.401638 9.74331 -25.4279 -1.3684 -0.064566 0.503383 
61 3 26.9492 5.77944 4.51982 -29.0504 -0.228702 -0.0808984 -0.478944 
12901 1 20.4336 1.62912 8.39711 -7.40854 -2.07004 -0.12745 0.250257 
9901 1 20.5346 4.31951 5.68821 -7.44538 -1.37832 -0.0663133 -0.812106 
1501 2 26.9239 3.02734 7.16722 -25.2537 1.2278 -0.203577 -0.891178 
62 2 26.9547 5.68278 9.77155 -24.9715 0.881619 -0.460408 -0.173888 
1262 3 21.7217 5.59868 9.78285 -29.1985 -0.969323 0.806428 -0.936308 
2701 3 21.6159 2.9238 6.92517 -29.841 0.312602 0.805498 1.24627 
4261 3 24.2257 5.56937 7.16036 -28.7516 -0.524419 0.716587 -1.01232 
5702 2 24.2841 3.09022 9.73146 -24.9853 -0.848903 -0.990316 -0.394677 
7201 1 22.9364 1.47451 5.60567 -7.66668 -0.219092 0.341355 1.65636 
8701 1 25.5239 4.41931 8.42362 -8.31017 0.833655 0.67162 -0.702042 
10201 1 25.6992 4.30082 5.73777 -7.9202 -0.154343 2.06967 -0.00946693 
11701 1 22.9012 1.68397 8.23515 -7.40809 1.24634 -0.554928 0.277476 
13201 1 25.5485 1.79317 8.45252 -7.68437 0.768217 -1.45125 0.641095 
14701 1 23.0563 4.15035 5.89583 -7.55804 1.3359 0.39664 -0.763115 
16201 1 22.8656 4.27463 8.39999 -7.49567 0.82092 0.507186 1.45575 
17701 1 25.5973 1.81437 5.85312 -7.57951 -1.20335 -1.88097 -0.771411 
5701 3 24.3668 3.04872 4.63642 -29.1855 -0.767362 -0.499367 -1.25702 
11761 1 22.884 6.86723 8.32125 -7.71103 1.71859 0.234368 0.798995 
12961 1 20.368 6.99357 8.55623 -7.31292 -0.545332 -0.0216639 -0.260037 
7261 1 22.9043 6.93799 5.71504 -7.84395 0.309365 0.0784902 -0.229958 
9902 1 20.5338 4.2308 10.9715 -7.7673 -1.6645 0.97784 -0.624379 
1201 3 21.7025 0.375144 4.37192 -29.0583 -0.74524 -1.13948 0.826491 
16561 1 4.15618 7.15668 5.79225 -8.09843 0.854897 -0.315371 0.570092 
6061 1 1.5547 7.06023 5.79214 -7.88708 0.354293 -0.328005 0.29276 
422 2 5.62645 11.1023 9.77255 -25.2486 -0.165071 -0.882944 -0.778839 
1861 2 5.54844 8.41605 7.1556 -25.1501 1.23401 -1.22983 -0.734567 
3121 3 2.91212 10.8846 7.09076 -29.1864 -0.355563 1.54977 -0.378106 
4562 2 2.84793 8.41198 9.84445 -25.1513 2.23086 -1.32139 -0.9807 
6121 1 1.7079 12.2926 5.73758 -7.4324 0.839916 0.139907 0.438238 
7561 1 4.25101 9.69328 8.33908 -8.00826 -0.747062 0.0871847 0.807719 
9061 1 4.09266 9.78435 5.67374 -7.67903 1.15268 0.00443135 0.613178 
10621 1 1.54872 12.2463 8.4618 -7.92998 -0.269114 1.2798 -0.545348 
12121 1 4.16743 12.3043 8.35565 -7.42334 0.405006 0.329198 -0.428427 
13561 1 1.5648 9.6998 5.70629 -7.8415 -0.367881 -0.288516 0.248587 
15061 1 1.55497 9.68592 8.48689 -7.70738 1.0534 -0.634039 -1.25584 
16621 1 4.34865 12.4362 5.71636 -7.54878 -0.785551 -1.15428 -1.45807 
15361 1 6.96495 9.74219 8.49896 -7.99285 -0.286959 -0.379448 0.267323 
13861 1 6.91347 9.60499 5.79403 -7.56977 -0.270124 0.707913 -0.145501 
1621 2 0.445912 13.6224 6.95644 -25.4908 -1.00999 0.799131 0.687212 
421 3 5.4968 11.024 4.38287 -29.2155 0.389674 0.463777 0.906361 
4561 3 2.82758 8.37903 4.47369 -29.4016 0.0773656 0.383064 -0.921027 
6421 1 6.94905 12.2508 5.81547 -7.57768 0.374378 0.201832 -0.104569 
10921 1 6.96723 12.4918 8.47497 -7.69558 0.035383 -0.70159 0.416408 
16622 1 4.2434 12.3546 10.9275 -7.48437 -0.0572101 0.228427 0.0286078 
6361 1 7.04286 7.02418 5.87449 -7.54912 -1.82647 -0.4213 -1.04803 
11161 1 12.4719 7.03442 8.43658 -7.46577 -0.179898 0.245123 0.837988 
721 2 10.985 10.936 4.54892 -25.0227 -0.516756 1.80329 -1.3233 
722 3 10.8162 10.967 9.78103 -29.3026 1.74087 -0.794614 0.551083 
2161 3 10.9949 8.2713 7.12058 -29.1564 0.0161303 -0.116455 0.720175 
3421 2 8.35061 11.0116 7.10773 -25.1769 -1.65591 -0.680453 0.289246 
4862 2 8.28454 8.26593 9.78171 -25.6146 0.110773 0.125913 0.0298085 
6721 1 12.2158 12.3961 5.92808 -7.70497 0.366428 -1.68776 -0.683628 
7861 1 9.61162 9.59783 8.52007 -7.62817 -0.134963 0.180217 0.586465 
9361 1 9.69882 9.68741 5.93046 -8.02822 -0.0720915 -0.849482 -0.729459 
11221 1 12.2282 12.3061 8.44656 -7.39435 -0.339171 -0.769348 0.151992 
12421 1 9.62223 12.2077 8.45821 -8.32088 0.295109 0.868568 -0.971626 
14161 1 12.2733 9.56531 5.68082 -8.41084 1.23972 -0.0712745 1.22976 
15661 1 12.1709 9.62251 8.43488 -7.57297 -0.609889 0.483358 -0.494448 
16921 1 9.67372 12.3054 5.70843 -7.92006 -0.469287 0.021109 1.51968 
4861 2 8.34613 8.38593 4.44924 -25.3558 -1.89619 -0.408177 1.61124 
4921 2 8.3014 13.6509 4.52643 -25.5367 -1.21874 0.659197 -1.66864 
3721 3 13.5113 10.8323 7.10869 -28.8957 0.09935 1.51057 0.494686 
4922 3 8.46061 13.4752 9.7634 -28.9144 -0.935919 1.16964 0.11861 
2221 3 10.9191 13.5507 7.14361 -29.002 0.377227 0.951951 0.102749 
5221 3 13.5448 13.6577 4.57904 -29.0182 0.0326039 0.432282 -0.512387 
16922 1 9.69521 12.2596 10.9628 -7.16702 -0.287071 -1.36365 0.013083 
1021 3 16.1185 10.9578 4.49711 -29.0454 0.851274 -0.240664 -0.0226356 
5162 3 13.6929 8.45696 9.74109 -29.3314 -0.425254 -1.15965 0.492767 
5161 3 13.6824 8.27207 4.48867 -29.0674 0.843822 0.493088 0.210456 
17161 1 15.0038 7.18966 5.91493 -7.69423 -0.0548887 -0.852974 0.729298 
12661 1 15.155 7.16142 8.62804 -7.45997 -0.230917 -0.381131 -1.39178 
1022 3 16.1792 11.0219 9.74778 -29.4266 0.487829 -0.722978 -0.0832196 
2461 3 16.311 8.28517 7.20806 -29.388 -0.24518 0.065284 -1.04022 
4021 2 18.9323 10.9541 7.0379 -25.3984 -0.726784 0.337519 0.694414 
5462 3 18.9044 8.17664 9.8686 -28.8702 0.537852 0.634814 -1.08882 
7021 1 17.4807 12.1451 5.82499 -7.6414 -0.617127 1.50064 -0.901008 
8161 1 14.6295 9.68785 8.39808 -7.59089 1.32388 0.57742 0.430499 
9661 1 14.9741 9.75583 5.84399 -7.58474 -0.834075 0.310648 -0.386801 
11521 1 17.5947 12.2207 8.44241 -7.57463 -0.872554 0.10804 -0.0718592 
12721 1 14.8738 12.3336 8.54014 -7.64375 0.908256 -0.285832 -1.85796 
14461 1 17.5675 9.54112 5.77657 -7.70457 0.53845 -0.100862 -0.110119 
15961 1 17.3088 9.46304 8.45053 -7.5532 1.00194 0.908787 0.0215574 
17221 1 14.7823 12.3658 5.78475 -7.92794 0.335642 -0.0256802 0.281984 
5522 3 18.9508 13.6101 9.76003 -29.1765 -0.140069 -0.0769852 -0.637111 
5461 2 18.9195 8.37347 4.37949 -25.3941 0.169967 -0.465518 0.872002 
8461 1 20.187 9.64551 8.40743 -8.27638 -0.166508 0.42243 -0.216621 
17521 1 20.2336 12.4054 5.79692 -7.51331 0.70774 -0.717683 -0.648365 
14462 1 17.6599 9.61543 10.9728 -7.53421 1.09443 -0.447241 0.127581 
13021 1 20.1492 12.477 8.43703 -7.29233 0.310496 -1.96915 -0.388649 
2521 2 16.1616 13.642 7.13196 -25.1469 0.821763 -0.615431 -0.223406 
17522 1 20.1841 12.2382 10.9752 -7.78342 -0.453621 0.299162 0.512817 
17222 1 14.7672 12.2455 10.9852 -7.72879 1.26815 0.811866 1.77924 
17761 1 25.5674 7.04014 5.89911 -8.00139 -0.95598 -0.177003 -0.613016 
1561 2 26.8804 8.40836 7.01736 -25.0868 0.188702 0.537348 1.01149 
122 3 26.9569 11.1078 9.78558 -29.3283 -0.94196 -0.424666 -1.05239 
9961 1 20.3408 9.72333 5.67053 -7.89461 -0.624004 -0.622942 0.0784263 
13261 1 25.7081 7.07191 8.51433 -8.03086 -1.13746 0.168508 -0.201628 
1322 3 21.4541 10.9836 9.64007 -29.2798 1.01207 -0.0689539 1.09733 
2761 2 21.5947 8.32178 7.06337 -25.4071 -0.310611 -1.14105 0.0910247 
4321 3 24.3144 10.9033 6.98215 -29.3146 -0.438983 1.45826 0.477122 
5762 2 24.3073 8.36992 9.71144 -25.0987 0.0953846 -0.0668512 0.131579 
7321 1 23.0718 12.3505 5.74551 -7.44894 -0.348042 -0.574474 0.100747 
8761 1 25.6615 9.83149 8.36085 -7.38844 -0.753961 -1.37579 -0.454226 
10261 1 25.5548 9.83768 5.6452 -8.00028 0.0522212 -0.997204 0.0454738 
11821 1 22.7456 12.2716 8.45042 -7.41572 0.248987 -0.218411 -0.682568 
13321 1 25.3822 12.3148 8.13599 -7.15739 0.996044 1.06044 0.420771 
14761 1 22.9384 9.69305 5.70143 -7.80098 0.332163 -0.830717 0.0512985 
16261 1 23.0278 9.55851 8.35514 -7.9885 -0.993546 0.572068 -0.272513 
17821 1 25.7772 12.5094 5.5066 -7.41168 -0.263956 -0.313784 0.162829 
5761 3 24.2514 8.39087 4.44148 -29.2319 0.841859 -0.0749196 -0.856918 
7322 1 22.7989 12.1827 10.9698 -6.86414 0.190544 0.545609 -0.399212 
10262 1 25.6996 9.69514 10.9593 -8.04535 -0.605275 -0.871834 1.30189 
17822 1 25.49 12.2262 10.9091 -7.45115 0.532568 0.144037 -0.675066 
4622 3 2.9397 13.713 9.61909 -29.4595 0.154216 -0.680506 1.08621 
1921 2 5.57588 13.7199 6.95564 -25.725 -0.0729844 -0.634029 1.07428 
482 2 5.67218 16.3646 9.62663 -25.3725 -0.36693 -0.554847 0.554013 
1981 3 5.72357 18.9402 7.06135 -28.8774 -0.552127 1.18321 0.621607 
3181 3 2.91964 16.4499 7.08855 -28.9676 0.542848 -1.37099 -0.211156 
4682 3 2.95732 19.066 9.72514 -28.6761 0.773211 -0.917189 0.39967 
6181 1 1.70381 17.6421 5.77822 -7.85119 -0.107658 0.263369 1.4575 
7621 1 4.28465 14.989 8.32439 -7.7992 -0.165072 0.424795 -0.211359 
9121 1 4.18094 14.9675 5.52121 -7.64839 0.492226 1.39026 0.897686 
10681 1 1.68487 17.6407 8.45461 -7.92533 0.276884 -0.0171017 -0.626717 
12181 1 4.29413 17.6501 8.4245 -7.79962 -0.394936 0.508167 -0.486148 
13621 1 1.67234 15.0694 5.72481 -7.36038 -0.0999953 -0.660856 0.242952 
15121 1 1.71743 15.0286 8.41871 -7.92017 -0.268508 -0.618714 -0.73194 
16681 1 4.30068 17.6459 5.81897 -8.27556 1.2444 0.416479 0.369424 
4681 2 3.0461 19.0698 4.62777 -25.1611 -0.831863 -0.386017 -1.42606 
13921 1 6.75086 15.0004 5.55175 -7.60515 0.859894 0.398042 -0.425468 
481 3 5.51787 16.2736 4.34994 -28.958 0.730355 -0.509575 -0.000908213 
10981 1 6.9096 17.8535 8.44727 -7.87659 0.976922 -0.892809 0.828614 
15421 1 6.90588 15.0614 8.12675 -7.47353 0.627516 1.67837 1.20987 
15181 1 1.65364 20.1524 8.55084 -7.62908 1.23571 0.189802 -0.301713 
4621 3 3.06288 13.7846 4.34455 -28.9808 -0.90244 -0.673883 0.378596 
13922 1 6.91945 14.9588 10.9599 -8.01469 0.963543 -0.663764 -1.0781 
1681 3 0.387925 18.902 7.1963 -29.262 -0.863268 1.84335 0.415274 
7681 1 4.36184 20.3093 8.32689 -7.98497 0.0379035 -0.588104 1.07999 
13681 1 1.60879 20.2466 5.97425 -8.13811 0.634547 0.455943 0.0490649 
5222 2 13.5268 13.6981 9.7401 -25.5493 -0.0202135 -0.761919 0.0345206 
6481 1 7.09172 17.6412 5.98403 -8.10493 -1.12685 0.0789219 -1.19101 
4981 2 8.21522 18.856 4.51422 -25.1084 1.56971 1.21415 -0.393211 
782 3 11.0126 16.2331 9.7137 -28.666 -0.676945 -0.175006 0.21816 
2281 2 10.9272 18.8871 7.14115 -25.0811 0.318231 0.1185 -0.269084 
3481 3 8.32193 16.3635 7.15244 -28.962 0.103764 -1.10334 -0.224027 
4982 3 8.28728 18.9758 9.86824 -29.1471 0.604689 0.0918522 -0.403064 
6781 1 12.3599 17.5103 5.69273 -8.15975 0.706752 0.840027 0.0925725 
7921 1 9.52622 14.9274 8.47549 -7.61133 0.396325 -0.55178 0.023685 
9421 1 9.50322 14.8671 5.84897 -7.87344 1.22254 1.14907 0.626132 
11281 1 12.4967 17.6158 8.34518 -8.20847 -0.64989 -1.02462 0.300266 
12481 1 9.69076 17.4962 8.45528 -8.30923 0.0252387 1.04378 -0.286544 
14221 1 12.3821 14.9656 5.80505 -7.69504 -0.927652 0.171129 0.566724 
15721 1 12.1508 14.9128 8.4266 -7.85189 -0.484215 0.88098 -0.460183 
16981 1 9.69372 17.5387 5.7771 -7.92367 0.277084 -0.357921 0.639436 
781 3 11.1042 16.316 4.49347 -29.1512 -1.36655 0.0281109 -0.566228 
5282 2 13.6386 18.9479 9.80097 -25.3134 0.576053 -0.613346 -0.0186071 
3781 3 13.6571 16.3305 7.04058 -28.8083 0.317615 -0.226045 0.57795 
14281 1 12.3054 20.1882 5.76038 -8.04937 -0.867433 -0.217118 -1.29416 
9481 1 9.52121 20.1802 5.92459 -8.1243 0.356371 0.934869 -0.711107 
15781 1 12.2828 20.1975 8.33674 -7.52472 -0.683259 0.502694 1.48405 
5281 3 13.6864 19.0319 4.53574 -28.713 -0.324488 -0.858184 -0.546238 
5521 2 18.9955 13.7253 4.38996 -25.3046 -1.15928 0.0587635 0.910259 
1082 2 16.3966 16.2677 9.75165 -25.3476 -1.67171 -0.232325 0.0820355 
2581 3 16.4043 18.949 7.09444 -29.1345 -0.455438 0.000124417 0.1642 
4081 3 18.9004 16.2413 7.15424 -29.1397 0.670303 0.802685 -0.306596 
5582 3 18.9258 18.8858 9.69234 -28.9824 0.566376 0.559964 -0.097482 
7081 1 17.7012 17.7274 5.90514 -7.50299 0.448742 0.0304701 -0.229878 
8221 1 14.7942 15.0145 8.37489 -7.84407 0.445303 -0.499559 0.193447 
9721 1 14.9764 15.0619 5.77117 -8.09996 -0.276853 -0.101505 0.247357 
11581 1 17.6903 17.6736 8.42418 -7.38631 1.87576 -0.182163 -0.0107806 
12781 1 15.2803 17.5272 8.45294 -7.19239 -2.93257 1.84905 -1.24255 
14521 1 17.6063 15.0655 5.78163 -7.89556 -0.414142 -0.94117 -0.563886 
16021 1 17.5941 15.0092 8.37532 -8.13964 0.390527 -1.05493 -0.176126 
17281 1 15.1155 17.7417 5.83092 -8.04252 -1.37853 0.111104 -0.0338916 
1081 3 16.2128 16.288 4.56871 -29.187 1.10917 1.06114 -0.843422 
16081 1 17.5162 20.2761 8.40128 -7.89287 0.988089 -0.700986 -0.692248 
5581 3 18.8992 18.9527 4.5005 -28.9333 -0.221753 1.04175 0.55067 
8281 1 14.8155 20.2872 8.55802 -7.54834 1.61624 -0.28194 -1.39326 
14522 1 17.6109 14.8634 10.952 -7.94378 1.03947 -0.0519589 0.279831 
10021 1 20.2363 14.9911 5.83004 -7.67836 0.188602 1.03612 -0.487431 
8581 1 20.1755 20.3205 8.21408 -7.93335 0.666899 -0.0467624 -0.0736884 
7082 1 17.6864 17.505 10.9862 -8.00631 0.864475 1.25216 0.884742 
5822 2 24.2259 13.6996 9.62208 -25.6883 0.394836 -2.90075 0.43344 
181 3 26.9369 16.5817 4.41943 -29.2104 0.483715 -1.78846 0.529719 
182 2 26.9634 16.3062 9.74299 -25.4174 0.027129 -1.2884 0.499849 
17581 1 20.3351 17.6533 5.85815 -7.8223 -0.631701 0.629524 -0.144017 
13081 1 20.3356 17.6744 8.52634 -7.78961 -0.0156883 0.0978274 -0.504171 
8521 1 20.3453 14.9667 8.48521 -7.52855 -0.774492 1.3992 0.275197 
10082 1 20.3493 20.2243 10.8188 -7.83049 -0.135611 -0.564645 0.441101 
2821 2 21.6565 13.6928 7.10804 -25.812 -0.506673 -0.4052 -0.614916 
1382 2 21.7328 16.348 9.7212 -25.3598 -0.940977 -0.254645 0.696204 
2881 2 21.6591 19.0195 7.12869 -25.1155 -0.649531 -0.181331 -0.786838 
4381 2 24.389 16.4079 7.02775 -25.5006 -0.470395 -0.0588956 0.248774 
5882 3 24.2634 19.1082 9.80609 -28.8741 0.86392 -1.1028 -0.715625 
7381 1 22.9781 17.6366 5.61463 -7.65027 0.746951 0.256846 1.31999 
8821 1 25.6584 14.9484 8.43567 -7.68321 0.812678 0.359173 -0.79107 
10321 1 25.7017 15.2762 5.67128 -7.63159 -0.013126 -0.586171 -0.320802 
11881 1 23.0444 17.7139 8.33895 -8.02337 -0.12668 0.973249 0.837164 
13381 1 25.6884 17.6583 8.53995 -7.81013 -0.525369 0.99983 -0.0913563 
14821 1 22.988 14.975 5.6643 -7.41857 -0.215868 0.357842 -0.417585 
16321 1 23.0244 15.0695 8.2968 -7.83719 -0.335322 -0.0789705 0.386329 
17881 1 25.7045 17.9123 5.95115 -7.80788 -0.3143 -0.565382 -1.06787 
5881 3 24.1982 19.0664 4.53451 -29.3067 0.440667 -0.287119 0.522228 
1381 2 21.573 16.3961 4.42789 -25.2046 0.909259 -0.177245 0.158811 
14881 1 23.025 20.2324 5.92091 -7.45532 -1.20171 0.638052 -0.785664 
14822 1 22.9529 14.876 10.9771 -8.00549 0.033921 0.660075 0.793033 
302 2 5.67212 26.8387 9.7107 -25.4093 -1.32374 0.776556 0.465663 
3001 3 2.9993 26.8582 6.99092 -29.1817 -0.840919 0.822869 0.974694 
2 3 0.389016 26.9646 9.78192 -28.8989 -0.538631 -0.642004 -0.42515 
9181 1 4.40685 20.4381 5.81544 -7.53626 -1.48707 -1.63073 -0.154814 
13981 1 6.87413 20.362 5.77957 -7.80874 1.35747 -0.733767 -0.380042 
542 2 5.67289 21.6595 9.72882 -25.5424 0.089022 -0.499381 -0.340109 
2041 3 5.53002 24.3085 7.08892 -29.2743 0.54172 -0.716836 -0.0354839 
3241 3 3.04337 21.5369 7.12328 -29.2454 -0.453777 1.13483 0.228682 
4742 3 2.93136 24.3217 9.71775 -29.3067 1.08511 -0.907208 -0.318948 
6241 1 1.56186 22.9713 5.75028 -7.79821 0.142473 -0.714917 -0.119761 
7741 1 4.27355 25.5749 8.41975 -7.6671 0.21514 -0.73929 0.340799 
9241 1 4.30383 25.7519 5.82565 -8.18889 0.0339679 -1.06832 -0.0403568 
10741 1 1.5972 22.7079 8.3975 -7.42918 -0.0137672 -0.0471643 -0.187954 
12241 1 4.15388 22.9412 8.44113 -7.45144 0.641137 0.11432 0.551363 
13741 1 1.61125 25.5913 5.79949 -7.42443 0.571316 0.415738 0.484619 
15241 1 1.72427 25.2625 8.33923 -7.4002 -0.164264 1.11779 0.0266539 
16741 1 4.28178 22.9359 5.91335 -7.66086 -1.06072 1.77014 -1.344 
4741 2 3.08677 24.3464 4.52604 -24.9925 -0.832089 -0.951331 0.305052 
6541 1 6.81209 23.0249 5.77894 -7.5451 1.05432 -0.529097 -0.550632 
15541 1 6.91248 25.5868 8.2552 -8.28119 0.4887 0.458472 1.40502 
11041 1 6.88819 23.0039 8.36105 -7.57592 -0.684046 -0.12442 0.322886 
14041 1 6.93928 25.6041 5.67747 -7.34962 -0.572071 0.248601 0.664814 
541 3 5.79422 21.6848 4.43995 -29.4679 -0.674205 -0.697505 0.418727 
242 3 0.418544 21.6101 9.7365 -29.3788 -1.06034 -0.0950075 -0.419894 
1741 3 0.366427 24.2087 7.16748 -29.6451 -0.399108 0.224172 -0.644952 
13742 1 1.78178 25.6128 10.9052 -7.94042 -1.30529 0.144815 1.15505 
3601 2 13.5843 26.8647 7.02604 -25.457 0.588455 0.872499 -0.510294 
3301 2 8.26967 26.9272 7.0988 -25.002 0.252325 1.06567 -0.546905 
15481 1 7.14899 20.3927 8.38685 -7.58359 -0.908488 -0.103425 0.653314 
7981 1 9.73304 20.3558 8.55936 -7.57543 -0.275939 -1.38729 0.292106 
841 3 10.9611 21.5672 4.45608 -28.6623 -0.527008 1.16577 0.255317 
842 3 10.9787 21.4945 9.80616 -28.8868 -0.593625 1.19657 -0.48659 
2341 3 10.9242 24.3527 7.07204 -29.5984 0.265452 -1.06497 0.219718 
3541 3 8.25836 21.6122 7.0929 -29.344 0.23319 0.708354 0.431256 
5042 2 8.28023 24.3099 9.68527 -25.6378 0.543015 -1.2886 1.37039 
6841 1 12.0796 22.8635 5.82152 -7.18713 0.31616 -0.571175 -1.09758 
8041 1 9.74539 25.5923 8.46936 -7.85501 -1.30975 0.393378 -0.673416 
9541 1 9.57408 25.7447 5.8104 -7.72935 0.963544 -0.862558 -0.354788 
11341 1 12.1978 22.9324 8.36286 -7.5097 -0.109989 -0.0689768 1.60898 
12541 1 9.48421 22.951 8.43025 -7.31691 0.791676 -0.339977 -0.0954913 
14341 1 12.2651 25.5001 5.77376 -7.61904 0.0825882 0.160954 0.0910397 
15841 1 12.3465 25.6352 8.44281 -7.04747 -0.316999 -0.764307 -0.88565 
17041 1 9.52797 23.0461 5.78388 -7.68757 -0.387949 -1.27706 0.309294 
3841 2 13.5401 21.5942 7.11562 -25.7083 -0.606112 1.11972 -0.514571 
5342 2 13.6518 24.2026 9.78688 -25.7139 -1.14241 0.779188 -1.12902 
5041 2 8.2613 24.2775 4.45271 -25.7825 0.741834 1.16564 -0.0971509 
14581 1 17.601 20.4272 5.7878 -7.53157 -0.539947 -1.24478 0.232813 
9781 1 14.9146 20.462 5.79769 -8.016 0.580199 -1.37936 0.172781 
1142 2 16.4015 21.5647 9.64537 -25.3128 -1.29803 1.87935 1.41577 
2641 2 16.2309 24.3826 6.99577 -25.2395 1.01124 -0.950436 0.462756 
4141 3 18.9852 21.6991 6.90248 -29.6044 -0.11325 -0.200946 0.544491 
5642 3 19.0041 24.3502 9.64927 -28.9035 -0.0423429 -0.919232 0.523442 
7141 1 17.7553 23.0003 5.7106 -7.52062 -2.2701 -0.00321875 -0.6385 
8341 1 14.9801 25.6737 8.41247 -7.75655 0.736208 -0.278448 -1.27246 
9841 1 14.9893 25.617 5.51739 -7.68702 0.399392 0.974114 1.03383 
11641 1 17.747 23.0219 8.28821 -7.58912 -0.787359 -0.303926 0.673094 
12841 1 14.9314 22.9183 8.29762 -7.75902 0.96168 0.5913 0.634897 
14641 1 17.7878 25.5665 5.9855 -7.61949 -0.616509 1.39294 -0.686844 
16141 1 17.7405 25.6825 8.62087 -7.91143 0.727777 0.390097 -0.91556 
17341 1 14.7724 23.1122 5.67111 -7.64924 0.55073 -0.65577 0.16294 
17641 1 20.2749 22.9961 5.76804 -7.32828 1.34501 0.151723 -0.447869 
5641 3 19.0624 24.2432 4.50043 -29.915 -0.461481 1.20694 -0.096829 
17642 1 20.2244 22.9002 10.934 -7.83011 0.749808 -0.101726 0.117889 
10081 1 20.1829 20.4321 5.54846 -7.58892 1.45592 -0.993222 0.0201511 
1141 2 16.1794 21.7498 4.47177 -25.181 1.26843 0.245972 0.473291 
1202 2 21.7312 26.9449 9.68277 -25.5233 0.119933 0.000698888 0.876402 
10381 1 25.5414 20.4379 5.95529 -7.2643 1.05554 1.26827 -1.42119 
241 3 26.9353 21.5886 4.53894 -28.8442 0.192667 0.388469 1.0856 
8641 1 20.5147 25.5651 8.39352 -7.80213 -2.04975 0.0122133 0.140526 
10141 1 20.3469 25.5963 5.75163 -7.30125 0.709878 0.915086 -0.124525 
8881 1 25.7461 20.4316 8.53955 -7.17741 -0.685033 -0.78112 0.298462 
16381 1 23.0813 20.4639 8.43155 -8.04941 -0.595242 -1.08448 0.630902 
13141 1 20.3574 22.943 8.25791 -7.79493 -0.531702 0.0511518 1.03678 
4201 2 24.227 26.8588 6.98791 -25.385 0.893567 0.467898 1.55006 
1442 2 21.6064 21.6519 9.57181 -25.0058 -0.213096 -0.00649617 1.32545 
2941 3 21.6315 24.1823 7.20961 -29.2865 0.356585 1.39934 -2.17386 
4441 3 24.3007 21.7973 7.12789 -29.645 0.728696 -1.21761 -0.008188 
5942 3 24.4192 24.3126 9.84336 -29.0833 -0.237609 -0.662189 -0.849431 
7441 1 22.9008 22.8173 5.68841 -7.64566 -0.234355 0.193059 0.617174 
8941 1 25.7611 25.6158 8.47287 -7.71529 -0.553833 0.821464 0.254461 
10441 1 25.6016 25.6681 5.76711 -7.58843 0.653149 0.630017 -0.334026 
11941 1 22.9607 23.0291 8.31908 -7.79611 0.538679 -0.265741 0.2791 
13441 1 25.6343 23.0172 8.42913 -7.55925 -0.294145 0.333973 0.374619 
14941 1 23.0316 25.4439 5.7525 -7.63868 -0.905391 -0.316307 0.805935 
16441 1 23.0277 25.5526 8.52636 -7.67284 1.59669 0.390921 -0.908149 
17941 1 25.4395 23.1487 5.86188 -7.65674 0.942253 -1.17213 0.159838 
1441 3 21.7371 21.7706 4.38936 -28.5019 -1.3789 -0.674016 1.54195 
1 3 26.8813 26.9724 4.42483 -29.2681 0.383659 0.0168474 0.842458 
5941 3 24.3377 24.2495 4.48936 -29.267 -0.0880739 1.01497 0.0756535 
9002 1 4.21474 4.23003 11.151 -7.20942 0.812793 0.853418 0.189017 
13802 1 6.83613 4.13751 11.0502 -7.41763 -0.29972 0.864556 -0.106396 
6302 1 6.93874 1.51757 11.1042 -7.32859 -0.178994 -0.268358 0.227854 
16502 1 4.29132 1.62008 11.0189 -7.5395 0.765324 -0.216186 0.537395 
13502 1 1.65221 4.17205 11.1917 -7.40026 -1.18975 1.04626 -0.795548 
363 2 5.76013 5.65169 15.0669 -25.7221 -2.02571 1.44104 0.846467 
1802 3 5.59422 2.97646 12.4104 -29.2742 0.168552 0.0979687 -0.41689 
3062 2 2.94645 5.70587 12.4217 -25.7604 1.00665 -1.2906 0.369258 
4503 2 2.92724 3.18402 15.0636 -25.3636 0.942526 -1.19439 -0.421063 
6003 1 1.76997 1.76917 16.3048 -7.74767 -1.61639 -0.391687 0.177388 
7502 1 4.3547 4.42103 13.7591 -7.69293 -0.923513 -1.26297 -0.0583839 
9003 1 4.40258 4.2793 16.4096 -7.34414 0.0137467 0.0950461 -0.396791 
10502 1 1.68107 1.67603 13.6316 -7.6708 -0.689738 0.334754 0.511895 
12002 1 4.32417 1.64942 13.7572 -7.89893 -0.104461 0.584147 -0.464743 
13503 1 1.71739 4.37767 16.4445 -7.24443 -0.235787 0.843251 -1.13011 
15002 1 1.49199 4.4207 13.7701 -7.94376 0.518066 -0.692109 0.476557 
16503 1 4.33349 1.66736 16.4328 -7.8606 0.644539 -0.22567 0.271343 
15302 1 6.97097 4.43483 13.6563 -7.81472 0.83699 -2.06039 0.227322 
10802 1 6.96281 1.66682 13.763 -7.71149 -0.218432 1.19187 -0.697017 
303 2 5.70708 0.412569 15.0332 -25.5196 -0.353347 -1.35233 1.36508 
10562 1 1.60348 6.98922 13.6878 -7.37785 0.790708 0.613375 1.467 
6362 1 7.00833 6.93215 11.1291 -7.35596 -0.890751 -0.269784 -0.078608 
16563 1 4.45492 6.9408 16.4355 -7.34992 -1.03776 0.278104 0.352276 
6062 1 1.65335 6.90138 11.1401 -7.98332 -0.894455 1.63335 -1.17644 
10862 1 6.98326 6.95536 13.7903 -7.33787 1.21125 0.930618 -0.233153 
9302 1 9.50611 4.45875 11.0482 -7.7128 0.733857 -0.711818 0.837106 
6662 1 12.2803 6.97997 11.2272 -7.77448 0.0358861 0.43182 -0.761757 
6303 1 7.04636 1.84506 16.4738 -7.79887 -0.785562 -0.365598 -0.48383 
13803 1 7.09615 4.51791 16.3491 -7.80907 0.892347 -0.449149 -0.740965 
14102 1 12.3238 4.39065 11.032 -7.51938 0.153544 -0.155816 1.04364 
6602 1 12.1905 1.76372 11.1517 -7.83128 0.790585 -0.682557 -0.68136 
16802 1 9.51015 1.79442 11.1725 -7.57132 0.836072 -0.897703 0.214227 
663 2 10.8946 5.77411 14.9909 -24.8542 2.17933 -0.481022 1.32729 
2102 2 10.9653 3.08117 12.4673 -25.2276 -0.253542 0.0881859 -0.224982 
3362 3 8.36752 5.64375 12.6051 -28.9801 -1.64371 1.23357 -2.84886 
4803 2 8.29715 3.03121 15.0765 -24.8492 0.102611 0.0903178 0.53333 
6603 1 12.4665 1.72508 16.4604 -7.59511 -0.165421 0.168609 -0.354242 
7802 1 9.62155 4.40814 13.7688 -8.79681 0.114392 -0.174648 0.338664 
9303 1 9.77135 4.42828 16.5282 -8.13602 -0.515275 0.590955 -1.34684 
11102 1 12.3019 1.82265 13.8583 -7.73545 0.311879 -0.439244 -0.783408 
12302 1 9.52173 1.6715 13.8582 -7.7279 1.53926 -0.684439 -0.57847 
14103 1 12.3901 4.38991 16.2728 -7.33856 -0.212882 0.233192 -0.142062 
15602 1 12.3815 4.42185 13.6829 -7.42806 0.0161888 0.230042 -0.43268 
16803 1 9.78219 1.81303 16.562 -7.89494 -0.117485 -0.49649 -1.10512 
603 2 11.0856 0.445631 15.0871 -25.256 -0.816007 -0.660013 0.110455 
3363 3 8.43098 5.68546 17.5401 -29.1688 -1.19376 1.18964 2.11606 
11162 1 12.276 7.01277 13.8069 -7.7847 -0.261697 0.681351 -1.17491 
16862 1 9.57305 6.96811 10.9998 -7.44876 1.46213 0.367619 0.882101 
3663 2 13.6634 5.71759 17.6115 -25.3152 0.397644 -1.05063 0.503658 
6902 1 17.6696 1.75017 11.0874 -8.09811 0.421772 -0.227957 -0.416167 
5103 3 13.8526 3.06634 15.1097 -29.4573 -1.1711 0.162792 0.187373 
9602 1 15.0375 4.38791 11.1221 -8.10718 -0.103285 0.402493 -0.56364 
14402 1 17.7554 4.33033 11.1265 -8.32817 0.539544 0.825204 0.627673 
17102 1 14.9625 1.7029 11.1592 -7.67336 0.0469626 0.439814 0.13682 
3662 3 13.6769 5.73841 12.4294 -29.1842 -0.125435 -0.168885 -0.181897 
963 3 16.3686 5.82438 15.0831 -28.5783 -0.489155 -1.92572 -0.432958 
2402 2 16.3784 3.12697 12.4402 -24.8615 -0.736907 -1.05893 1.16724 
3962 3 18.9483 5.70327 12.4356 -28.4666 1.07487 0.0892777 -0.0939903 
5403 2 19.0493 3.05518 15.0237 -25.2918 0.169445 -0.231525 2.95225 
6903 1 17.7917 1.72534 16.4271 -7.29876 0.226739 -0.714798 -0.487356 
8102 1 15.1291 4.50151 13.7691 -8.04074 0.143953 -0.661434 0.0976642 
9603 1 15.0409 4.2604 16.43 -7.48054 0.636714 1.1744 -0.428934 
11402 1 17.7085 1.72261 13.798 -7.87399 -1.05122 -0.0153741 -0.751642 
12602 1 14.9786 1.68998 13.9419 -7.3856 0.236445 0.474265 -2.01799 
14403 1 17.8121 4.31108 16.6446 -7.3511 -0.828442 0.0892781 -0.358988 
15902 1 17.8362 4.4516 13.9669 -8.17029 -1.90479 1.09411 -1.65008 
17103 1 15.1642 1.73234 16.4125 -7.44632 -0.248895 0.125031 1.88038 
17163 1 15.0781 6.96479 16.3001 -8.18529 -0.33768 0.226071 0.262662 
6962 1 17.5645 6.89877 11.0471 -8.17836 1.12527 0.900415 0.161351 
6963 1 17.6496 6.89427 16.2247 -8.04467 0.488253 0.556395 1.04579 
17462 1 20.2416 6.89597 11.1449 -7.94504 -0.0804648 0.175754 0.137678 
17402 1 20.4662 1.55346 11.1162 -7.65026 -1.09203 0.422729 -0.20636 