LAMMPS data file via write_data, version 22 Dec 2022, timestep = 4

8 atoms
2 atom types

2.924173460499802e-09 4.079999997075826 xlo xhi
2.924173460499802e-09 4.079999997075826 ylo yhi
2.924173460499802e-09 4.079999997075826 zlo zhi

Masses

1 58.69
2 12.011

Atoms # atomic

1 1 2.924173791996054e-09 2.924173791996054e-09 2.924173791996054e-09 0 0 0
7 2 2.924173791996054e-09 2.924173791996054e-09 2.0399999999999996 0 0 0
8 2 2.924173791996054e-09 2.0399999999999996 2.924173791996054e-09 0 0 0
2 1 2.924173791996054e-09 2.0399999999999996 2.0399999999999996 0 0 0
5 2 2.0399999999999996 2.924173791996054e-09 2.924173791996054e-09 0 0 0
3 1 2.0399999999999996 2.924173791996054e-09 2.0399999999999996 0 0 0
4 1 2.0399999999999996 2.0399999999999996 2.924173791996054e-09 0 0 0
6 2 2.0399999999999996 2.0399999999999996 2.0399999999999996 0 0 0

Velocities

1 0 0 0
7 0 0 0
8 0 0 0
2 0 0 0
5 0 0 0
3 0 0 0
4 0 0 0
6 0 0 0
