LAMMPS (22 Dec 2022)
  using 1 OpenMP thread(s) per MPI task
Loaded 1 plugins from C:\Program Files\LAMMPS 64-bit 23Jun2022\plugins
Loaded 0 plugins from C:\Program Files\LAMMPS 64-bit 23Jun2022-MPI\plugins
Loaded 1 plugins from C:\Program Files\LAMMPS 64-bit 22Dec2022-MSMPI\plugins
Loaded 1 plugins from C:\Program Files\LAMMPS 64-bit 28Mar2023-MPI\plugins
# Compute elastic constant tensor for a crystal
#
# Written by Aidan Thompson (Sandia, athomps@sandia.gov)
#
#  This script uses the following three include files.
#
#   init.mod      (must be modified for different crystal structures)
# 	       	  Define units, deformation parameters and initial
#		  configuration of the atoms and simulation cell.
#
#
#   potential.mod    (must be modified for different pair styles)
# 		     Define pair style and other attributes
#		     not stored in restart file
#
#
#   displace.mod    (displace.mod should not need to be modified)
# 		    Perform positive and negative box displacements
# 		    in direction ${dir} and size ${up}.
# 		    It uses the resultant changes
#		    in stress to compute one
# 		    row of the elastic stiffness tensor
#
#		    Inputs variables:
#		    	   dir = the Voigt deformation component
#		    		    (1,2,3,4,5,6)
#		    Global constants:
#       	    	   up = the deformation magnitude (strain units)
#       		   cfac = conversion from LAMMPS pressure units to
#               	   output units for elastic constants
#
#
#  To run this on a different system, it should only be necessary to
#  modify the files init.mod and potential.mod. In order to calculate
#  the elastic constants correctly, care must be taken to specify
#  the correct units in init.mod (units, cfac and cunits). It is also
#  important to verify that the minimization of energy w.r.t atom
#  positions in the deformed cell is fully converged.
#  One indication of this is that the elastic constants are insensitive
#  to the choice of the variable ${up} in init.mod. Another is to check
#  the final max and two-norm forces reported in the log file. If you know
#  that minimization is not required, you can set maxiter = 0.0 in
#  init.mod.
#

include init.mod
# NOTE: This script can be modified for different atomic structures,
# units, etc. See in.elastic for more info.
#

# Define the finite deformation size. Try several values of this
# variable to verify that results do not depend on it.
variable up equal 1.0e-6

# Define the amount of random jiggle for atoms
# This prevents atoms from staying on saddle points
variable atomjiggle equal 1.0e-5

# Uncomment one of these blocks, depending on what units
# you are using in LAMMPS and for output

# metal units, elastic constants in eV/A^3
#units		metal
#variable cfac equal 6.2414e-7
#variable cunits string eV/A^3

# metal units, elastic constants in GPa
units		metal
variable cfac equal 1.0e-4
variable cunits string GPa

# real units, elastic constants in GPa
#units		real
#variable cfac equal 1.01325e-4
#variable cunits string GPa

# Define minimization parameters
variable etol equal 0.0
variable ftol equal 1.0e-10
variable maxiter equal 1000
variable maxeval equal 100000
variable dmax equal 1.0e-2

# generate the box and atom positions using a diamond lattice

dimension    3
boundary     p p p
read_data    data.in
Reading data file ...
  orthogonal box = (2.9241735e-09 2.9241735e-09 2.9241735e-09) to (4.08 4.08 4.08)
  1 by 2 by 2 MPI processor grid
  reading atoms ...
  8 atoms
  reading velocities ...
  8 velocities
  read_data CPU = 0.001 seconds
#replicate    2 3 4
replicate    2 3 4
Replication is creating a 2x3x4 = 24 times larger system...
  orthogonal box = (2.9241735e-09 2.9241735e-09 2.9241735e-09) to (8.16 12.24 16.32)
  1 by 2 by 2 MPI processor grid
  192 atoms
  replicate CPU = 0.000 seconds
change_box   all triclinic
Changing box ...
  triclinic box = (2.9241735e-09 2.9241735e-09 2.9241735e-09) to (8.16 12.24 16.32) with tilt (0 0 0)

# Need to set mass to something, just to satisfy LAMMPS
mass 1 1.0e-20

include potential.mod
# NOTE: This script can be modified for different pair styles
# See in.elastic for more info.

# Choose potential
#-----------------------
#pair_style	sw
#pair_coeff * * Si.sw Si
#-----------------------
#pair_style morse	2.83994742	# D0[eV] a[1/A] r0[A] rc[A], 1NN for BCC
#pair_coeff 1 1	2.1173	1.0202	2.4595	2.6497	#	Fe-Fe
#-----------------------
#pair_style smatb # R0(A)   p       q     A(eV)   xi(eV)  Rcs(A)   Rc(A), 4NN: Rcs=4NN, Rc=(4NN+5NN)/2
#pair_coeff 1 1	2.4802	7.0149	2.3779	0.3144	3.0551	4.033	4.176	#	Co	Co
#-----------------------
#pair_style eam/alloy
#pair_coeff * * AlCrFeCoNi_Zhou04.eam.alloy Fe
#-----------------------
pair_style meam
pair_coeff * * ./../../library.meam Ni C ./../../NiC.meam Ni C
#-----------------------

# Setup neighbor style
neighbor 1.0 nsq
neigh_modify once no every 1 delay 0 check yes

# Setup minimization style
min_style	     cg
min_modify	     dmax ${dmax} line quadratic
min_modify	     dmax 0.01 line quadratic

# Setup output
thermo		1
thermo_style custom step temp pe press pxx pyy pzz pxy pxz pyz lx ly lz vol
thermo_modify norm no

# Compute initial state
fix 3 all box/relax  aniso 0.0
minimize ${etol} ${ftol} ${maxiter} ${maxeval}
minimize 0 ${ftol} ${maxiter} ${maxeval}
minimize 0 1e-10 ${maxiter} ${maxeval}
minimize 0 1e-10 1000 ${maxeval}
minimize 0 1e-10 1000 100000
Neighbor list info ...
  update: every = 1 steps, delay = 0 steps, check = yes
  max neighbors/atom: 2000, page size: 100000
  master list distance cutoff = 5
  ghost atom cutoff = 5
  2 neighbor lists, perpetual/occasional/extra = 2 0 0
  (1) pair meam, perpetual
      attributes: full, newton on
      pair build: full/nsq
      stencil: none
      bin: none
  (2) pair meam, perpetual, half/full from (1)
      attributes: half, newton on
      pair build: halffull/newton
      stencil: none
      bin: none
Per MPI rank memory allocation (min/avg/max) = 9.886 | 9.901 | 9.916 Mbytes
   Step          Temp          PotEng         Press           Pxx            Pyy            Pzz            Pxy            Pxz            Pyz             Lx             Ly             Lz           Volume    
         0   0             -949.2096       6.7104292e-10  9.7306047e-10  8.6776246e-10  1.7230584e-10 -1.1243126e-24 -1.2406208e-26 -3.8459244e-25  8.16           12.24          16.32          1630.0155    
         1   0             -949.2096      -1.7282528e-10  2.4710527e-10 -5.9483358e-10 -1.7074751e-10  8.2346203e-25 -1.4391201e-24  1.4391201e-24  8.16           12.24          16.32          1630.0155    
Loop time of 0.00095475 on 4 procs for 1 steps with 192 atoms

0.0% CPU use with 4 MPI tasks x 1 OpenMP threads

Minimization stats:
  Stopping criterion = force tolerance
  Energy initial, next-to-last, final = 
     -949.209600032035  -949.209600032035  -949.209600032035
  Force two-norm initial, final = 1.5537482e-12 9.8525744e-13
  Force max component initial, final = 9.8996811e-13 6.0516925e-13
  Final line search alpha, max atom move = 1 6.0516925e-13
  Iterations, force evaluations = 1 2

MPI task timing breakdown:
Section |  min time  |  avg time  |  max time  |%varavg| %total
---------------------------------------------------------------
Pair    | 0.000541   | 0.00063825 | 0.000738   |   0.0 | 66.85
Neigh   | 0          | 0          | 0          |   0.0 |  0.00
Comm    | 7.9e-05    | 0.000178   | 0.000273   |   0.0 | 18.64
Output  | 0          | 0          | 0          |   0.0 |  0.00
Modify  | 0          | 0          | 0          |   0.0 |  0.00
Other   |            | 0.0001385  |            |       | 14.51

Nlocal:             48 ave          64 max          32 min
Histogram: 2 0 0 0 0 0 0 0 0 2
Nghost:            600 ave         616 max         584 min
Histogram: 2 0 0 0 0 0 0 0 0 2
Neighs:           1920 ave        2560 max        1280 min
Histogram: 2 0 0 0 0 0 0 0 0 2
FullNghs:         3840 ave        5120 max        2560 min
Histogram: 2 0 0 0 0 0 0 0 0 2

Total # of neighbors = 15360
Ave neighs/atom = 80
Neighbor list builds = 0
Dangerous builds = 0

variable tmp equal pxx
variable pxx0 equal ${tmp}
variable pxx0 equal 2.4710526773722e-10
variable tmp equal pyy
variable pyy0 equal ${tmp}
variable pyy0 equal -5.94833581435908e-10
variable tmp equal pzz
variable pzz0 equal ${tmp}
variable pzz0 equal -1.70747513832842e-10
variable tmp equal pyz
variable pyz0 equal ${tmp}
variable pyz0 equal 1.43912008284105e-24
variable tmp equal pxz
variable pxz0 equal ${tmp}
variable pxz0 equal -1.43912008284105e-24
variable tmp equal pxy
variable pxy0 equal ${tmp}
variable pxy0 equal 8.23462030160129e-25

variable tmp equal lx
variable lx0 equal ${tmp}
variable lx0 equal 8.1599999883033
variable tmp equal ly
variable ly0 equal ${tmp}
variable ly0 equal 12.239999982455
variable tmp equal lz
variable lz0 equal ${tmp}
variable lz0 equal 16.3199999766066

# These formulas define the derivatives w.r.t. strain components
# Constants uses $, variables use v_
variable d1 equal -(v_pxx1-${pxx0})/(v_delta/v_len0)*${cfac}
variable d1 equal -(v_pxx1-2.4710526773722e-10)/(v_delta/v_len0)*${cfac}
variable d1 equal -(v_pxx1-2.4710526773722e-10)/(v_delta/v_len0)*0.0001
variable d2 equal -(v_pyy1-${pyy0})/(v_delta/v_len0)*${cfac}
variable d2 equal -(v_pyy1--5.94833581435908e-10)/(v_delta/v_len0)*${cfac}
variable d2 equal -(v_pyy1--5.94833581435908e-10)/(v_delta/v_len0)*0.0001
variable d3 equal -(v_pzz1-${pzz0})/(v_delta/v_len0)*${cfac}
variable d3 equal -(v_pzz1--1.70747513832842e-10)/(v_delta/v_len0)*${cfac}
variable d3 equal -(v_pzz1--1.70747513832842e-10)/(v_delta/v_len0)*0.0001
variable d4 equal -(v_pyz1-${pyz0})/(v_delta/v_len0)*${cfac}
variable d4 equal -(v_pyz1-1.43912008284105e-24)/(v_delta/v_len0)*${cfac}
variable d4 equal -(v_pyz1-1.43912008284105e-24)/(v_delta/v_len0)*0.0001
variable d5 equal -(v_pxz1-${pxz0})/(v_delta/v_len0)*${cfac}
variable d5 equal -(v_pxz1--1.43912008284105e-24)/(v_delta/v_len0)*${cfac}
variable d5 equal -(v_pxz1--1.43912008284105e-24)/(v_delta/v_len0)*0.0001
variable d6 equal -(v_pxy1-${pxy0})/(v_delta/v_len0)*${cfac}
variable d6 equal -(v_pxy1-8.23462030160129e-25)/(v_delta/v_len0)*${cfac}
variable d6 equal -(v_pxy1-8.23462030160129e-25)/(v_delta/v_len0)*0.0001

displace_atoms all random ${atomjiggle} ${atomjiggle} ${atomjiggle} 87287 units box
displace_atoms all random 1e-05 ${atomjiggle} ${atomjiggle} 87287 units box
displace_atoms all random 1e-05 1e-05 ${atomjiggle} 87287 units box
displace_atoms all random 1e-05 1e-05 1e-05 87287 units box
Displacing atoms ...

# Write restart
unfix 3
write_restart restart.equil
System init for write_restart ...

# uxx Perturbation

variable dir equal 1
include displace.mod
# NOTE: This script should not need to be
# modified. See in.elastic for more info.
#
# Find which reference length to use

if "${dir} == 1" then    "variable len0 equal ${lx0}"
variable len0 equal ${lx0}
variable len0 equal 8.1599999883033
if "${dir} == 2" then    "variable len0 equal ${ly0}"
if "${dir} == 3" then    "variable len0 equal ${lz0}"
if "${dir} == 4" then    "variable len0 equal ${lz0}"
if "${dir} == 5" then    "variable len0 equal ${lz0}"
if "${dir} == 6" then    "variable len0 equal ${ly0}"

# Reset box and simulation parameters

clear
  using 1 OpenMP thread(s) per MPI task
Loaded 1 plugins from C:\Program Files\LAMMPS 64-bit 23Jun2022\plugins
Loaded 0 plugins from C:\Program Files\LAMMPS 64-bit 23Jun2022-MPI\plugins
Loaded 1 plugins from C:\Program Files\LAMMPS 64-bit 22Dec2022-MSMPI\plugins
Loaded 1 plugins from C:\Program Files\LAMMPS 64-bit 28Mar2023-MPI\plugins
box tilt large

The 'box' command has been removed and will be ignored

read_restart restart.equil
Reading restart file ...
  restart file = 22 Dec 2022, LAMMPS = 22 Dec 2022
  restoring atom style atomic from restart
  triclinic box = (2.9241727e-09 2.9241724e-09 2.9241732e-09) to (8.16 12.24 16.32) with tilt (0 0 0)
  1 by 2 by 2 MPI processor grid
  pair style meam stores no restart info
  192 atoms
  read_restart CPU = 0.000 seconds
include potential.mod
# NOTE: This script can be modified for different pair styles
# See in.elastic for more info.

# Choose potential
#-----------------------
#pair_style	sw
#pair_coeff * * Si.sw Si
#-----------------------
#pair_style morse	2.83994742	# D0[eV] a[1/A] r0[A] rc[A], 1NN for BCC
#pair_coeff 1 1	2.1173	1.0202	2.4595	2.6497	#	Fe-Fe
#-----------------------
#pair_style smatb # R0(A)   p       q     A(eV)   xi(eV)  Rcs(A)   Rc(A), 4NN: Rcs=4NN, Rc=(4NN+5NN)/2
#pair_coeff 1 1	2.4802	7.0149	2.3779	0.3144	3.0551	4.033	4.176	#	Co	Co
#-----------------------
#pair_style eam/alloy
#pair_coeff * * AlCrFeCoNi_Zhou04.eam.alloy Fe
#-----------------------
pair_style meam
pair_coeff * * ./../../library.meam Ni C ./../../NiC.meam Ni C
#-----------------------

# Setup neighbor style
neighbor 1.0 nsq
neigh_modify once no every 1 delay 0 check yes

# Setup minimization style
min_style	     cg
min_modify	     dmax ${dmax} line quadratic
min_modify	     dmax 0.01 line quadratic

# Setup output
thermo		1
thermo_style custom step temp pe press pxx pyy pzz pxy pxz pyz lx ly lz vol
thermo_modify norm no

# Negative deformation

variable delta equal -${up}*${len0}
variable delta equal -1e-06*${len0}
variable delta equal -1e-06*8.1599999883033
variable deltaxy equal -${up}*xy
variable deltaxy equal -1e-06*xy
variable deltaxz equal -${up}*xz
variable deltaxz equal -1e-06*xz
variable deltayz equal -${up}*yz
variable deltayz equal -1e-06*yz
if "${dir} == 1" then    "change_box all x delta 0 ${delta} xy delta ${deltaxy} xz delta ${deltaxz} remap units box"
change_box all x delta 0 ${delta} xy delta ${deltaxy} xz delta ${deltaxz} remap units box
change_box all x delta 0 -8.1599999883033e-06 xy delta ${deltaxy} xz delta ${deltaxz} remap units box
change_box all x delta 0 -8.1599999883033e-06 xy delta -0 xz delta ${deltaxz} remap units box
change_box all x delta 0 -8.1599999883033e-06 xy delta -0 xz delta -0 remap units box
Changing box ...
  triclinic box = (2.9241727e-09 2.9241724e-09 2.9241732e-09) to (8.1599918 12.24 16.32) with tilt (0 0 0)
  triclinic box = (2.9241727e-09 2.9241724e-09 2.9241732e-09) to (8.1599918 12.24 16.32) with tilt (0 0 0)
  triclinic box = (2.9241727e-09 2.9241724e-09 2.9241732e-09) to (8.1599918 12.24 16.32) with tilt (0 0 0)
if "${dir} == 2" then    "change_box all y delta 0 ${delta} yz delta ${deltayz} remap units box"
if "${dir} == 3" then    "change_box all z delta 0 ${delta} remap units box"
if "${dir} == 4" then    "change_box all yz delta ${delta} remap units box"
if "${dir} == 5" then    "change_box all xz delta ${delta} remap units box"
if "${dir} == 6" then    "change_box all xy delta ${delta} remap units box"

# Relax atoms positions

minimize ${etol} ${ftol} ${maxiter} ${maxeval}
minimize 0 ${ftol} ${maxiter} ${maxeval}
minimize 0 1e-10 ${maxiter} ${maxeval}
minimize 0 1e-10 1000 ${maxeval}
minimize 0 1e-10 1000 100000
Neighbor list info ...
  update: every = 1 steps, delay = 0 steps, check = yes
  max neighbors/atom: 2000, page size: 100000
  master list distance cutoff = 5
  ghost atom cutoff = 5
  2 neighbor lists, perpetual/occasional/extra = 2 0 0
  (1) pair meam, perpetual
      attributes: full, newton on
      pair build: full/nsq
      stencil: none
      bin: none
  (2) pair meam, perpetual, half/full from (1)
      attributes: half, newton on
      pair build: halffull/newton
      stencil: none
      bin: none
Per MPI rank memory allocation (min/avg/max) = 9.867 | 9.87 | 9.874 Mbytes
   Step          Temp          PotEng         Press           Pxx            Pyy            Pzz            Pxy            Pxz            Pyz             Lx             Ly             Lz           Volume    
         1   0             -949.2096       2.5111149      5.9184916      0.80739518     0.80745799     8.9063538e-06 -3.6331919e-06 -1.725919e-05   8.1599918      12.24          16.32          1630.0139    
         2   0             -949.2096       2.5105071      5.9179265      0.80679046     0.80680431    -2.7626077e-06 -4.9707735e-06 -1.7447319e-06  8.1599918      12.24          16.32          1630.0139    
         3   0             -949.2096       2.5104488      5.9178499      0.80674968     0.80674683     1.68142e-06    1.2163475e-06  1.2123521e-07  8.1599918      12.24          16.32          1630.0139    
         4   0             -949.2096       2.510438       5.9178489      0.80672979     0.80673534     2.0533008e-07  5.2792154e-08 -1.655262e-08   8.1599918      12.24          16.32          1630.0139    
         5   0             -949.2096       2.5104359      5.9178489      0.80672865     0.80673022    -1.5003626e-07  4.4281549e-07  1.4080646e-08  8.1599918      12.24          16.32          1630.0139    
         6   0             -949.2096       2.510436       5.9178488      0.80673006     0.80672919    -5.3746913e-08 -6.4298247e-08  1.9700745e-07  8.1599918      12.24          16.32          1630.0139    
         7   0             -949.2096       2.5104365      5.9178494      0.80673004     0.80672995     9.388816e-08  -1.3195123e-08 -1.0583715e-07  8.1599918      12.24          16.32          1630.0139    
         8   0             -949.2096       2.5104369      5.9178497      0.80673035     0.8067306      4.4282835e-08 -5.3491686e-08  3.4117904e-10  8.1599918      12.24          16.32          1630.0139    
         9   0             -949.2096       2.5104369      5.9178497      0.80673044     0.80673063    -2.1962411e-08 -3.4415803e-08 -4.492576e-09   8.1599918      12.24          16.32          1630.0139    
        10   0             -949.2096       2.510437       5.9178499      0.80673056     0.80673064    -1.7748728e-08 -3.1367205e-08  9.2037673e-09  8.1599918      12.24          16.32          1630.0139    
        11   0             -949.2096       2.5104371      5.9178499      0.8067306      0.80673067    -6.7252443e-09 -2.0556827e-08  4.1153671e-09  8.1599918      12.24          16.32          1630.0139    
        12   0             -949.2096       2.5104371      5.9178499      0.80673065     0.80673073    -1.6341682e-09 -6.9326747e-09  2.8564816e-10  8.1599918      12.24          16.32          1630.0139    
        13   0             -949.2096       2.5104372      5.91785        0.80673071     0.8067308      2.5405619e-11 -5.6503775e-09 -6.5954515e-10  8.1599918      12.24          16.32          1630.0139    
        14   0             -949.2096       2.5104372      5.91785        0.80673075     0.80673082    -4.16326e-10   -9.8894221e-10 -1.6573807e-09  8.1599918      12.24          16.32          1630.0139    
        15   0             -949.2096       2.5104372      5.91785        0.80673078     0.80673083    -2.8075416e-09 -2.5818206e-09  1.9395806e-09  8.1599918      12.24          16.32          1630.0139    
        16   0             -949.2096       2.5104372      5.91785        0.80673079     0.80673084    -1.8118659e-09 -3.5312205e-09 -4.5979458e-10  8.1599918      12.24          16.32          1630.0139    
        17   0             -949.2096       2.5104372      5.91785        0.80673081     0.80673085    -1.4388545e-09 -4.6988773e-09  8.199824e-10   8.1599918      12.24          16.32          1630.0139    
        18   0             -949.2096       2.5104372      5.91785        0.80673083     0.80673085    -2.3577345e-09 -4.9226636e-09  6.6912665e-10  8.1599918      12.24          16.32          1630.0139    
        19   0             -949.2096       2.5104372      5.91785        0.80673084     0.80673086    -1.652637e-09  -4.2350156e-09 -5.1206893e-10  8.1599918      12.24          16.32          1630.0139    
        20   0             -949.2096       2.5104372      5.91785        0.80673087     0.80673087    -1.087385e-09  -2.80323e-09   -2.4993859e-10  8.1599918      12.24          16.32          1630.0139    
        21   0             -949.2096       2.5104373      5.91785        0.80673087     0.80673087    -1.2167755e-09 -1.9925828e-09 -1.1709549e-10  8.1599918      12.24          16.32          1630.0139    
        22   0             -949.2096       2.5104373      5.91785        0.80673089     0.80673088    -7.5846859e-10 -3.1686338e-10  7.6962816e-11  8.1599918      12.24          16.32          1630.0139    
        23   0             -949.2096       2.5104373      5.91785        0.8067309      0.80673089    -7.7203191e-10 -1.0581545e-10  2.2218644e-10  8.1599918      12.24          16.32          1630.0139    
        24   0             -949.2096       2.5104373      5.91785        0.8067309      0.80673089    -6.6388845e-10  6.8344235e-11  1.5152763e-10  8.1599918      12.24          16.32          1630.0139    
        25   0             -949.2096       2.5104373      5.91785        0.80673091     0.80673089    -6.340735e-10  -2.028944e-11   7.8651036e-11  8.1599918      12.24          16.32          1630.0139    
        26   0             -949.2096       2.5104373      5.91785        0.80673091     0.8067309     -4.4359943e-10  4.9726182e-11  3.9709976e-11  8.1599918      12.24          16.32          1630.0139    
        27   0             -949.2096       2.5104373      5.91785        0.80673091     0.8067309     -2.8792315e-10 -6.2501774e-11 -5.0038466e-11  8.1599918      12.24          16.32          1630.0139    
        28   0             -949.2096       2.5104373      5.91785        0.80673091     0.8067309     -2.3886752e-10  1.708226e-11  -7.7493616e-12  8.1599918      12.24          16.32          1630.0139    
        29   0             -949.2096       2.5104373      5.91785        0.80673091     0.8067309     -1.9455543e-10  4.1665543e-12  2.4530814e-11  8.1599918      12.24          16.32          1630.0139    
        30   0             -949.2096       2.5104373      5.91785        0.80673091     0.8067309     -1.7326717e-10 -1.8808512e-11 -6.4793603e-12  8.1599918      12.24          16.32          1630.0139    
        31   0             -949.2096       2.5104373      5.91785        0.80673091     0.8067309     -1.7916998e-10 -6.742197e-12   1.8385848e-11  8.1599918      12.24          16.32          1630.0139    
        32   0             -949.2096       2.5104373      5.91785        0.80673091     0.80673091    -1.3519718e-10 -4.2151557e-12  2.2652548e-11  8.1599918      12.24          16.32          1630.0139    
        33   0             -949.2096       2.5104373      5.91785        0.80673091     0.80673091    -1.1640957e-10 -8.6678487e-12  1.5692017e-11  8.1599918      12.24          16.32          1630.0139    
        34   0             -949.2096       2.5104373      5.91785        0.80673091     0.80673091    -9.1424135e-11 -1.1645794e-11  1.2813093e-11  8.1599918      12.24          16.32          1630.0139    
        35   0             -949.2096       2.5104373      5.91785        0.80673091     0.80673091    -6.5250645e-11 -1.1568593e-11  2.8116718e-12  8.1599918      12.24          16.32          1630.0139    
        36   0             -949.2096       2.5104373      5.91785        0.80673091     0.80673091    -5.3038048e-11 -3.2872079e-11 -1.0757359e-11  8.1599918      12.24          16.32          1630.0139    
        37   0             -949.2096       2.5104373      5.91785        0.80673091     0.80673091    -4.3045297e-11 -2.5996143e-11 -2.9918584e-12  8.1599918      12.24          16.32          1630.0139    
        38   0             -949.2096       2.5104373      5.91785        0.80673091     0.80673091    -3.0184768e-11 -2.4986984e-11 -5.2150948e-12  8.1599918      12.24          16.32          1630.0139    
        39   0             -949.2096       2.5104373      5.91785        0.80673091     0.80673091    -1.636993e-11  -2.0255761e-11 -2.9423482e-12  8.1599918      12.24          16.32          1630.0139    
        40   0             -949.2096       2.5104373      5.91785        0.80673091     0.80673091    -9.3943746e-12 -3.7997459e-12  3.6542432e-12  8.1599918      12.24          16.32          1630.0139    
        41   0             -949.2096       2.5104373      5.91785        0.80673091     0.80673091    -9.5571107e-12  1.050436e-11   3.6531273e-12  8.1599918      12.24          16.32          1630.0139    
        42   0             -949.2096       2.5104373      5.91785        0.80673091     0.80673091    -1.3461049e-12  6.7235113e-12  2.3674443e-12  8.1599918      12.24          16.32          1630.0139    
        43   0             -949.2096       2.5104373      5.91785        0.80673091     0.80673091    -4.1177183e-13  2.8043372e-12  1.6869886e-12  8.1599918      12.24          16.32          1630.0139    
        44   0             -949.2096       2.5104373      5.91785        0.80673091     0.80673091     1.3035039e-12 -2.3598304e-12  4.0599336e-12  8.1599918      12.24          16.32          1630.0139    
        45   0             -949.2096       2.5104373      5.91785        0.80673091     0.80673091    -1.4663601e-12 -2.6254769e-12  1.2135844e-12  8.1599918      12.24          16.32          1630.0139    
        46   0             -949.2096       2.5104373      5.91785        0.80673091     0.80673091    -2.7708528e-12 -3.5214284e-12  2.5726514e-12  8.1599918      12.24          16.32          1630.0139    
        47   0             -949.2096       2.5104373      5.91785        0.80673091     0.80673091    -1.0544323e-12 -6.9227502e-13  1.8808809e-12  8.1599918      12.24          16.32          1630.0139    
        48   0             -949.2096       2.5104373      5.91785        0.80673091     0.80673091    -1.5472275e-12  5.2976056e-13  2.3841109e-13  8.1599918      12.24          16.32          1630.0139    
        49   0             -949.2096       2.5104373      5.91785        0.80673091     0.80673091     9.7619138e-13  7.0281738e-13 -4.6914887e-13  8.1599918      12.24          16.32          1630.0139    
        50   0             -949.2096       2.5104373      5.91785        0.80673091     0.80673091    -2.5139849e-13  1.6123188e-12  4.0658913e-13  8.1599918      12.24          16.32          1630.0139    
        51   0             -949.2096       2.5104373      5.91785        0.80673091     0.80673091     1.9183215e-12 -7.5650186e-13  2.9808982e-13  8.1599918      12.24          16.32          1630.0139    
        52   0             -949.2096       2.5104373      5.91785        0.80673091     0.80673091    -1.0768733e-13  6.3457734e-13 -6.7673748e-13  8.1599918      12.24          16.32          1630.0139    
        53   0             -949.2096       2.5104373      5.91785        0.80673091     0.80673091     9.6104212e-13 -6.19653e-13   -9.0075603e-13  8.1599918      12.24          16.32          1630.0139    
        54   0             -949.2096       2.5104373      5.91785        0.80673091     0.80673091    -7.3407803e-13  5.5161829e-13 -1.4770615e-13  8.1599918      12.24          16.32          1630.0139    
        55   0             -949.2096       2.5104373      5.91785        0.80673091     0.80673091     1.3840991e-12  1.2987363e-12  4.9619676e-13  8.1599918      12.24          16.32          1630.0139    
        56   0             -949.2096       2.5104373      5.91785        0.80673091     0.80673091    -4.0837746e-13 -2.9463265e-12  1.1613107e-12  8.1599918      12.24          16.32          1630.0139    
        57   0             -949.2096       2.5104373      5.91785        0.80673091     0.80673091     1.973684e-14  -7.4077335e-13  3.222512e-12   8.1599918      12.24          16.32          1630.0139    
        58   0             -949.2096       2.5104373      5.91785        0.80673091     0.80673091     7.2832982e-13 -2.2129835e-15 -9.6693836e-13  8.1599918      12.24          16.32          1630.0139    
        59   0             -949.2096       2.5104373      5.91785        0.80673091     0.80673091     4.2210397e-13  8.8641712e-13  8.0744046e-13  8.1599918      12.24          16.32          1630.0139    
        60   0             -949.2096       2.5104373      5.91785        0.80673091     0.80673091    -6.5878472e-13  1.2723815e-13  7.5063698e-13  8.1599918      12.24          16.32          1630.0139    
        61   0             -949.2096       2.5104373      5.91785        0.80673091     0.80673091     2.84703e-13   -1.8541757e-12 -2.0101343e-13  8.1599918      12.24          16.32          1630.0139    
        62   0             -949.2096       2.5104373      5.91785        0.80673091     0.80673091    -1.1394991e-12 -1.6503382e-13  1.6350958e-12  8.1599918      12.24          16.32          1630.0139    
        63   0             -949.2096       2.5104373      5.91785        0.80673091     0.80673091     1.0161885e-12 -2.4188535e-12  1.7057738e-12  8.1599918      12.24          16.32          1630.0139    
        64   0             -949.2096       2.5104373      5.91785        0.80673091     0.80673091     9.5864626e-13 -2.6070056e-12 -3.5786707e-13  8.1599918      12.24          16.32          1630.0139    
        65   0             -949.2096       2.5104373      5.91785        0.80673091     0.80673091     1.4763742e-13  1.1699797e-12  6.9470522e-13  8.1599918      12.24          16.32          1630.0139    
        66   0             -949.2096       2.5104373      5.91785        0.80673091     0.80673091     1.8917442e-12  2.3344386e-12  2.6095116e-12  8.1599918      12.24          16.32          1630.0139    
        67   0             -949.2096       2.5104373      5.91785        0.80673091     0.80673091    -2.158384e-12  -1.292913e-13  -1.0316455e-12  8.1599918      12.24          16.32          1630.0139    
        68   0             -949.2096       2.5104373      5.91785        0.80673091     0.80673091     6.1318779e-13  1.7876804e-12  2.1526928e-13  8.1599918      12.24          16.32          1630.0139    
        69   0             -949.2096       2.5104373      5.91785        0.80673091     0.80673091    -2.2676015e-13  9.3051295e-13 -1.1832608e-13  8.1599918      12.24          16.32          1630.0139    
        70   0             -949.2096       2.5104373      5.91785        0.80673091     0.80673091    -3.325112e-13   2.3054429e-14  1.1032752e-12  8.1599918      12.24          16.32          1630.0139    
        71   0             -949.2096       2.5104373      5.91785        0.80673091     0.80673091     1.3256776e-12 -3.2370348e-13 -7.256368e-13   8.1599918      12.24          16.32          1630.0139    
        72   0             -949.2096       2.5104373      5.91785        0.80673091     0.80673091    -2.3432994e-13 -2.5358537e-12 -1.69839e-13    8.1599918      12.24          16.32          1630.0139    
        73   0             -949.2096       2.5104373      5.91785        0.80673091     0.80673091     1.0204446e-12  1.9182598e-12 -1.4099466e-12  8.1599918      12.24          16.32          1630.0139    
        74   0             -949.2096       2.5104373      5.91785        0.80673091     0.80673091    -1.1500004e-12 -1.5703152e-12  8.6822182e-14  8.1599918      12.24          16.32          1630.0139    
Loop time of 0.038124 on 4 procs for 73 steps with 192 atoms

51.2% CPU use with 4 MPI tasks x 1 OpenMP threads

Minimization stats:
  Stopping criterion = force tolerance
  Energy initial, next-to-last, final = 
      -949.20959984493  -949.209600029027  -949.209600029027
  Force two-norm initial, final = 0.0034032434 5.8170245e-11
  Force max component initial, final = 0.00039666185 1.1079593e-11
  Final line search alpha, max atom move = 1 1.1079593e-11
  Iterations, force evaluations = 73 146

MPI task timing breakdown:
Section |  min time  |  avg time  |  max time  |%varavg| %total
---------------------------------------------------------------
Pair    | 0.031052   | 0.031442   | 0.031769   |   0.2 | 82.47
Neigh   | 0          | 0          | 0          |   0.0 |  0.00
Comm    | 0.003911   | 0.004331   | 0.004632   |   0.4 | 11.36
Output  | 0.00107    | 0.0011537  | 0.001306   |   0.3 |  3.03
Modify  | 0          | 0          | 0          |   0.0 |  0.00
Other   |            | 0.001197   |            |       |  3.14

Nlocal:             48 ave          51 max          46 min
Histogram: 2 0 0 0 0 0 1 0 0 1
Nghost:            600 ave         602 max         597 min
Histogram: 1 0 0 0 1 0 0 0 0 2
Neighs:           1920 ave        2075 max        1804 min
Histogram: 1 0 1 0 1 0 0 0 0 1
FullNghs:         3840 ave        4080 max        3680 min
Histogram: 2 0 0 0 0 0 1 0 0 1

Total # of neighbors = 15360
Ave neighs/atom = 80
Neighbor list builds = 0
Dangerous builds = 0

# Obtain new stress tensor

variable tmp equal pxx
variable pxx1 equal ${tmp}
variable pxx1 equal 5.91785001529202
variable tmp equal pyy
variable pyy1 equal ${tmp}
variable pyy1 equal 0.806730909207919
variable tmp equal pzz
variable pzz1 equal ${tmp}
variable pzz1 equal 0.806730909818781
variable tmp equal pxy
variable pxy1 equal ${tmp}
variable pxy1 equal -1.15000044920928e-12
variable tmp equal pxz
variable pxz1 equal ${tmp}
variable pxz1 equal -1.57031523756837e-12
variable tmp equal pyz
variable pyz1 equal ${tmp}
variable pyz1 equal 8.68221817913771e-14

# Compute elastic constant from pressure tensor

variable C1neg equal ${d1}
variable C1neg equal 591.785001504491
variable C2neg equal ${d2}
variable C2neg equal 80.6730909802753
variable C3neg equal ${d3}
variable C3neg equal 80.6730909989529
variable C4neg equal ${d4}
variable C4neg equal 8.6822181789938e-12
variable C5neg equal ${d5}
variable C5neg equal -1.57031523756693e-10
variable C6neg equal ${d6}
variable C6neg equal -1.1500004492101e-10

# Reset box and simulation parameters

clear
  using 1 OpenMP thread(s) per MPI task
Loaded 1 plugins from C:\Program Files\LAMMPS 64-bit 23Jun2022\plugins
Loaded 0 plugins from C:\Program Files\LAMMPS 64-bit 23Jun2022-MPI\plugins
Loaded 1 plugins from C:\Program Files\LAMMPS 64-bit 22Dec2022-MSMPI\plugins
Loaded 1 plugins from C:\Program Files\LAMMPS 64-bit 28Mar2023-MPI\plugins
box tilt large

The 'box' command has been removed and will be ignored

read_restart restart.equil
Reading restart file ...
  restart file = 22 Dec 2022, LAMMPS = 22 Dec 2022
  restoring atom style atomic from restart
  triclinic box = (2.9241727e-09 2.9241724e-09 2.9241732e-09) to (8.16 12.24 16.32) with tilt (0 0 0)
  1 by 2 by 2 MPI processor grid
  pair style meam stores no restart info
  192 atoms
  read_restart CPU = 0.000 seconds
include potential.mod
# NOTE: This script can be modified for different pair styles
# See in.elastic for more info.

# Choose potential
#-----------------------
#pair_style	sw
#pair_coeff * * Si.sw Si
#-----------------------
#pair_style morse	2.83994742	# D0[eV] a[1/A] r0[A] rc[A], 1NN for BCC
#pair_coeff 1 1	2.1173	1.0202	2.4595	2.6497	#	Fe-Fe
#-----------------------
#pair_style smatb # R0(A)   p       q     A(eV)   xi(eV)  Rcs(A)   Rc(A), 4NN: Rcs=4NN, Rc=(4NN+5NN)/2
#pair_coeff 1 1	2.4802	7.0149	2.3779	0.3144	3.0551	4.033	4.176	#	Co	Co
#-----------------------
#pair_style eam/alloy
#pair_coeff * * AlCrFeCoNi_Zhou04.eam.alloy Fe
#-----------------------
pair_style meam
pair_coeff * * ./../../library.meam Ni C ./../../NiC.meam Ni C
#-----------------------

# Setup neighbor style
neighbor 1.0 nsq
neigh_modify once no every 1 delay 0 check yes

# Setup minimization style
min_style	     cg
min_modify	     dmax ${dmax} line quadratic
min_modify	     dmax 0.01 line quadratic

# Setup output
thermo		1
thermo_style custom step temp pe press pxx pyy pzz pxy pxz pyz lx ly lz vol
thermo_modify norm no

# Positive deformation

variable delta equal ${up}*${len0}
variable delta equal 1e-06*${len0}
variable delta equal 1e-06*8.1599999883033
variable deltaxy equal ${up}*xy
variable deltaxy equal 1e-06*xy
variable deltaxz equal ${up}*xz
variable deltaxz equal 1e-06*xz
variable deltayz equal ${up}*yz
variable deltayz equal 1e-06*yz
if "${dir} == 1" then    "change_box all x delta 0 ${delta} xy delta ${deltaxy} xz delta ${deltaxz} remap units box"
change_box all x delta 0 ${delta} xy delta ${deltaxy} xz delta ${deltaxz} remap units box
change_box all x delta 0 8.1599999883033e-06 xy delta ${deltaxy} xz delta ${deltaxz} remap units box
change_box all x delta 0 8.1599999883033e-06 xy delta 0 xz delta ${deltaxz} remap units box
change_box all x delta 0 8.1599999883033e-06 xy delta 0 xz delta 0 remap units box
Changing box ...
  triclinic box = (2.9241727e-09 2.9241724e-09 2.9241732e-09) to (8.1600082 12.24 16.32) with tilt (0 0 0)
  triclinic box = (2.9241727e-09 2.9241724e-09 2.9241732e-09) to (8.1600082 12.24 16.32) with tilt (0 0 0)
  triclinic box = (2.9241727e-09 2.9241724e-09 2.9241732e-09) to (8.1600082 12.24 16.32) with tilt (0 0 0)
if "${dir} == 2" then    "change_box all y delta 0 ${delta} yz delta ${deltayz} remap units box"
if "${dir} == 3" then    "change_box all z delta 0 ${delta} remap units box"
if "${dir} == 4" then    "change_box all yz delta ${delta} remap units box"
if "${dir} == 5" then    "change_box all xz delta ${delta} remap units box"
if "${dir} == 6" then    "change_box all xy delta ${delta} remap units box"

# Relax atoms positions

minimize ${etol} ${ftol} ${maxiter} ${maxeval}
minimize 0 ${ftol} ${maxiter} ${maxeval}
minimize 0 1e-10 ${maxiter} ${maxeval}
minimize 0 1e-10 1000 ${maxeval}
minimize 0 1e-10 1000 100000
Neighbor list info ...
  update: every = 1 steps, delay = 0 steps, check = yes
  max neighbors/atom: 2000, page size: 100000
  master list distance cutoff = 5
  ghost atom cutoff = 5
  2 neighbor lists, perpetual/occasional/extra = 2 0 0
  (1) pair meam, perpetual
      attributes: full, newton on
      pair build: full/nsq
      stencil: none
      bin: none
  (2) pair meam, perpetual, half/full from (1)
      attributes: half, newton on
      pair build: halffull/newton
      stencil: none
      bin: none
Per MPI rank memory allocation (min/avg/max) = 9.867 | 9.87 | 9.874 Mbytes
   Step          Temp          PotEng         Press           Pxx            Pyy            Pzz            Pxy            Pxz            Pyz             Lx             Ly             Lz           Volume    
         1   0             -949.2096      -2.5097309     -5.9171298     -0.80606276    -0.80599995     8.9062135e-06 -3.6332848e-06 -1.7259143e-05  8.1600081      12.24          16.32          1630.0171    
         2   0             -949.2096      -2.5103387     -5.917695      -0.80666749    -0.80665363    -2.7624945e-06 -4.9703391e-06 -1.7447221e-06  8.1600081      12.24          16.32          1630.0171    
         3   0             -949.2096      -2.510397      -5.9177716     -0.80670826    -0.80671111     1.6813827e-06  1.2163803e-06  1.2121143e-07  8.1600081      12.24          16.32          1630.0171    
         4   0             -949.2096      -2.5104078     -5.9177725     -0.80672816    -0.80672261     2.053719e-07   5.2682653e-08 -1.6513701e-08  8.1600081      12.24          16.32          1630.0171    
         5   0             -949.2096      -2.5104099     -5.9177725     -0.8067293     -0.80672773    -1.5000968e-07  4.4293118e-07  1.4051331e-08  8.1600081      12.24          16.32          1630.0171    
         6   0             -949.2096      -2.5104098     -5.9177726     -0.80672788    -0.80672876    -5.3792841e-08 -6.4433821e-08  1.9706085e-07  8.1600081      12.24          16.32          1630.0171    
         7   0             -949.2096      -2.5104093     -5.917772      -0.80672791    -0.806728       9.3911884e-08 -1.3083671e-08 -1.0589693e-07  8.1600081      12.24          16.32          1630.0171    
         8   0             -949.2096      -2.5104089     -5.9177718     -0.8067276     -0.80672735     4.4276844e-08 -5.3551005e-08  3.8072735e-10  8.1600081      12.24          16.32          1630.0171    
         9   0             -949.2096      -2.5104089     -5.9177717     -0.8067275     -0.80672732    -2.1959179e-08 -3.4409082e-08 -4.495112e-09   8.1600081      12.24          16.32          1630.0171    
        10   0             -949.2096      -2.5104088     -5.9177716     -0.80672739    -0.80672731    -1.7745547e-08 -3.1360408e-08  9.2015542e-09  8.1600081      12.24          16.32          1630.0171    
        11   0             -949.2096      -2.5104087     -5.9177716     -0.80672735    -0.80672728    -6.7301011e-09 -2.0573812e-08  4.1149621e-09  8.1600081      12.24          16.32          1630.0171    
        12   0             -949.2096      -2.5104087     -5.9177715     -0.8067273     -0.80672722    -1.634654e-09  -6.9254745e-09  2.8875704e-10  8.1600081      12.24          16.32          1630.0171    
        13   0             -949.2096      -2.5104086     -5.9177715     -0.80672724    -0.80672715     2.4439326e-11 -5.6551158e-09 -6.5919553e-10  8.1600081      12.24          16.32          1630.0171    
        14   0             -949.2096      -2.5104086     -5.9177715     -0.8067272     -0.80672713    -4.1637579e-10 -9.8972324e-10 -1.6573003e-09  8.1600081      12.24          16.32          1630.0171    
        15   0             -949.2096      -2.5104086     -5.9177715     -0.80672717    -0.80672712    -2.8052576e-09 -2.5802825e-09  1.9376665e-09  8.1600081      12.24          16.32          1630.0171    
        16   0             -949.2096      -2.5104086     -5.9177715     -0.80672716    -0.80672711    -1.8140696e-09 -3.5344521e-09 -4.6123244e-10  8.1600081      12.24          16.32          1630.0171    
        17   0             -949.2096      -2.5104086     -5.9177715     -0.80672714    -0.8067271     -1.4393948e-09 -4.7014408e-09  8.1817732e-10  8.1600081      12.24          16.32          1630.0171    
        18   0             -949.2096      -2.5104086     -5.9177715     -0.80672712    -0.80672709    -2.3593763e-09 -4.9271395e-09  6.6920934e-10  8.1600081      12.24          16.32          1630.0171    
        19   0             -949.2096      -2.5104085     -5.9177715     -0.8067271     -0.80672708    -1.6524749e-09 -4.2344082e-09 -5.0991112e-10  8.1600081      12.24          16.32          1630.0171    
        20   0             -949.2096      -2.5104085     -5.9177715     -0.80672708    -0.80672708    -1.0880008e-09 -2.8028527e-09 -2.4692908e-10  8.1600081      12.24          16.32          1630.0171    
        21   0             -949.2096      -2.5104085     -5.9177715     -0.80672707    -0.80672707    -1.2157643e-09 -1.9935784e-09 -1.1851972e-10  8.1600081      12.24          16.32          1630.0171    
        22   0             -949.2096      -2.5104085     -5.9177715     -0.80672706    -0.80672706    -7.5994275e-10 -3.1525421e-10  7.6192064e-11  8.1600081      12.24          16.32          1630.0171    
        23   0             -949.2096      -2.5104085     -5.9177715     -0.80672705    -0.80672706    -7.7155357e-10 -1.05997e-10    2.2297267e-10  8.1600081      12.24          16.32          1630.0171    
        24   0             -949.2096      -2.5104085     -5.9177715     -0.80672704    -0.80672706    -6.6446213e-10  6.9209479e-11  1.5197239e-10  8.1600081      12.24          16.32          1630.0171    
        25   0             -949.2096      -2.5104085     -5.9177715     -0.80672704    -0.80672705    -6.3250643e-10 -1.9072319e-11  7.8925292e-11  8.1600081      12.24          16.32          1630.0171    
        26   0             -949.2096      -2.5104085     -5.9177715     -0.80672704    -0.80672705    -4.4184859e-10  5.1181553e-11  3.8663294e-11  8.1600081      12.24          16.32          1630.0171    
        27   0             -949.2096      -2.5104085     -5.9177715     -0.80672704    -0.80672705    -2.9000668e-10 -6.1853342e-11 -4.7139596e-11  8.1600081      12.24          16.32          1630.0171    
        28   0             -949.2096      -2.5104085     -5.9177715     -0.80672704    -0.80672705    -2.3627434e-10  1.881983e-11  -6.7117963e-12  8.1600081      12.24          16.32          1630.0171    
        29   0             -949.2096      -2.5104085     -5.9177715     -0.80672704    -0.80672704    -1.9722571e-10  2.1808422e-12  2.8399507e-11  8.1600081      12.24          16.32          1630.0171    
        30   0             -949.2096      -2.5104085     -5.9177715     -0.80672704    -0.80672704    -1.7379073e-10 -1.6688394e-11 -6.4907992e-12  8.1600081      12.24          16.32          1630.0171    
        31   0             -949.2096      -2.5104085     -5.9177715     -0.80672704    -0.80672704    -1.7700846e-10 -7.5860949e-12  1.6446922e-11  8.1600081      12.24          16.32          1630.0171    
        32   0             -949.2096      -2.5104085     -5.9177715     -0.80672704    -0.80672704    -1.3207076e-10 -3.5190459e-12  1.928008e-11   8.1600081      12.24          16.32          1630.0171    
        33   0             -949.2096      -2.5104085     -5.9177715     -0.80672704    -0.80672704    -1.1513922e-10 -1.1026191e-11  1.6554418e-11  8.1600081      12.24          16.32          1630.0171    
        34   0             -949.2096      -2.5104085     -5.9177715     -0.80672704    -0.80672704    -9.1515681e-11 -1.3849901e-11  1.2252232e-11  8.1600081      12.24          16.32          1630.0171    
        35   0             -949.2096      -2.5104085     -5.9177715     -0.80672704    -0.80672704    -6.5859752e-11 -1.3744291e-11  3.4948703e-13  8.1600081      12.24          16.32          1630.0171    
        36   0             -949.2096      -2.5104085     -5.9177715     -0.80672704    -0.80672704    -5.4017782e-11 -3.0651489e-11 -1.1840297e-11  8.1600081      12.24          16.32          1630.0171    
        37   0             -949.2096      -2.5104085     -5.9177715     -0.80672704    -0.80672704    -4.3065208e-11 -2.4722427e-11 -2.1206362e-12  8.1600081      12.24          16.32          1630.0171    
        38   0             -949.2096      -2.5104085     -5.9177715     -0.80672704    -0.80672704    -3.0165925e-11 -2.6419998e-11 -1.0086503e-11  8.1600081      12.24          16.32          1630.0171    
        39   0             -949.2096      -2.5104085     -5.9177715     -0.80672704    -0.80672704    -1.5684979e-11 -1.9165074e-11  1.8848492e-12  8.1600081      12.24          16.32          1630.0171    
        40   0             -949.2096      -2.5104085     -5.9177715     -0.80672704    -0.80672704    -1.0376901e-11 -1.4649825e-14  2.5053827e-12  8.1600081      12.24          16.32          1630.0171    
        41   0             -949.2096      -2.5104085     -5.9177715     -0.80672704    -0.80672704    -1.0589367e-11  6.6208815e-12  2.7393729e-12  8.1600081      12.24          16.32          1630.0171    
        42   0             -949.2096      -2.5104085     -5.9177715     -0.80672704    -0.80672704     2.3440772e-13  6.8613417e-12  2.4622907e-12  8.1600081      12.24          16.32          1630.0171    
        43   0             -949.2096      -2.5104085     -5.9177715     -0.80672704    -0.80672704     1.7806633e-13 -7.6435102e-14  3.177173e-12   8.1600081      12.24          16.32          1630.0171    
        44   0             -949.2096      -2.5104085     -5.9177715     -0.80672704    -0.80672704     1.0936874e-12 -4.2011471e-13 -2.0570287e-12  8.1600081      12.24          16.32          1630.0171    
        45   0             -949.2096      -2.5104085     -5.9177715     -0.80672704    -0.80672704    -7.626468e-14  -3.8344035e-12  2.5547034e-12  8.1600081      12.24          16.32          1630.0171    
        46   0             -949.2096      -2.5104085     -5.9177715     -0.80672704    -0.80672704    -5.4958336e-13 -3.6795066e-12  1.6797568e-12  8.1600081      12.24          16.32          1630.0171    
        47   0             -949.2096      -2.5104085     -5.9177715     -0.80672704    -0.80672704    -2.1419771e-12 -1.4804067e-12 -1.0935422e-12  8.1600081      12.24          16.32          1630.0171    
        48   0             -949.2096      -2.5104085     -5.9177715     -0.80672704    -0.80672704    -3.1415749e-13 -5.1788244e-13  1.5072106e-12  8.1600081      12.24          16.32          1630.0171    
        49   0             -949.2096      -2.5104085     -5.9177715     -0.80672704    -0.80672704     7.9816247e-13 -1.7802033e-12 -5.6431938e-13  8.1600081      12.24          16.32          1630.0171    
        50   0             -949.2096      -2.5104085     -5.9177715     -0.80672704    -0.80672704     1.4986074e-12  1.94289e-13   -4.7361976e-13  8.1600081      12.24          16.32          1630.0171    
        51   0             -949.2096      -2.5104085     -5.9177715     -0.80672704    -0.80672704     1.3818781e-12  1.2419887e-12  3.4724308e-13  8.1600081      12.24          16.32          1630.0171    
        52   0             -949.2096      -2.5104085     -5.9177715     -0.80672704    -0.80672704    -4.2340716e-13 -1.0524513e-12 -1.385645e-12   8.1600081      12.24          16.32          1630.0171    
        53   0             -949.2096      -2.5104085     -5.9177715     -0.80672704    -0.80672704    -1.303522e-12  -2.1353611e-12 -9.9249551e-13  8.1600081      12.24          16.32          1630.0171    
        54   0             -949.2096      -2.5104085     -5.9177715     -0.80672704    -0.80672704    -6.817735e-13   1.2498402e-12 -3.2756052e-12  8.1600081      12.24          16.32          1630.0171    
        55   0             -949.2096      -2.5104085     -5.9177715     -0.80672704    -0.80672704     2.2994916e-13 -2.1894511e-12 -1.968657e-12   8.1600081      12.24          16.32          1630.0171    
        56   0             -949.2096      -2.5104085     -5.9177715     -0.80672704    -0.80672704     1.8800957e-13 -7.4106789e-13 -2.5506469e-12  8.1600081      12.24          16.32          1630.0171    
        57   0             -949.2096      -2.5104085     -5.9177715     -0.80672704    -0.80672704     1.8652733e-12 -3.2780395e-14 -5.7948867e-14  8.1600081      12.24          16.32          1630.0171    
        58   0             -949.2096      -2.5104085     -5.9177715     -0.80672704    -0.80672704     1.2210294e-12 -3.6487755e-13  1.7131638e-12  8.1600081      12.24          16.32          1630.0171    
        59   0             -949.2096      -2.5104085     -5.9177715     -0.80672704    -0.80672704     1.8145421e-13  5.2709945e-13 -3.194468e-13   8.1600081      12.24          16.32          1630.0171    
        60   0             -949.2096      -2.5104085     -5.9177715     -0.80672704    -0.80672704    -8.0318312e-13  1.1108861e-13  8.2222784e-13  8.1600081      12.24          16.32          1630.0171    
        61   0             -949.2096      -2.5104085     -5.9177715     -0.80672704    -0.80672704    -1.5996148e-12  1.9789634e-13  9.9862313e-13  8.1600081      12.24          16.32          1630.0171    
        62   0             -949.2096      -2.5104085     -5.9177715     -0.80672704    -0.80672704     6.6631253e-13  1.543763e-12  -2.0176856e-12  8.1600081      12.24          16.32          1630.0171    
        63   0             -949.2096      -2.5104085     -5.9177715     -0.80672704    -0.80672704    -3.0385063e-13 -6.5677297e-13  2.1699755e-12  8.1600081      12.24          16.32          1630.0171    
        64   0             -949.2096      -2.5104085     -5.9177715     -0.80672704    -0.80672704     3.3778007e-13 -3.2594931e-13  3.826453e-13   8.1600081      12.24          16.32          1630.0171    
        65   0             -949.2096      -2.5104085     -5.9177715     -0.80672704    -0.80672704    -9.4711456e-13  1.1619914e-12 -3.4263425e-12  8.1600081      12.24          16.32          1630.0171    
        66   0             -949.2096      -2.5104085     -5.9177715     -0.80672704    -0.80672704    -6.7657533e-13  1.6671343e-12  1.3368442e-12  8.1600081      12.24          16.32          1630.0171    
        67   0             -949.2096      -2.5104085     -5.9177715     -0.80672704    -0.80672704    -1.3923457e-12  2.3762222e-12 -1.7843652e-12  8.1600081      12.24          16.32          1630.0171    
        68   0             -949.2096      -2.5104085     -5.9177715     -0.80672704    -0.80672704     9.0737021e-13 -1.4458331e-12 -3.0216964e-13  8.1600081      12.24          16.32          1630.0171    
        69   0             -949.2096      -2.5104085     -5.9177715     -0.80672704    -0.80672704     1.7475274e-13 -1.1234003e-12 -2.845024e-12   8.1600081      12.24          16.32          1630.0171    
        70   0             -949.2096      -2.5104085     -5.9177715     -0.80672704    -0.80672704    -2.3421063e-14 -1.6496284e-12 -9.5344248e-13  8.1600081      12.24          16.32          1630.0171    
        71   0             -949.2096      -2.5104085     -5.9177715     -0.80672704    -0.80672704     8.1391448e-13 -1.5649342e-12  6.1367951e-13  8.1600081      12.24          16.32          1630.0171    
        72   0             -949.2096      -2.5104085     -5.9177715     -0.80672704    -0.80672704    -2.2887486e-13 -5.1002048e-13  7.8465718e-13  8.1600081      12.24          16.32          1630.0171    
        73   0             -949.2096      -2.5104085     -5.9177715     -0.80672704    -0.80672704    -2.4143513e-12 -7.6569292e-13 -4.6051408e-13  8.1600081      12.24          16.32          1630.0171    
        74   0             -949.2096      -2.5104085     -5.9177715     -0.80672704    -0.80672704    -6.9049578e-13 -2.6822635e-13 -3.6235987e-14  8.1600081      12.24          16.32          1630.0171    
Loop time of 0.0353612 on 4 procs for 73 steps with 192 atoms

55.2% CPU use with 4 MPI tasks x 1 OpenMP threads

Minimization stats:
  Stopping criterion = force tolerance
  Energy initial, next-to-last, final = 
     -949.209599844931  -949.209600029027  -949.209600029027
  Force two-norm initial, final = 0.0034032163 5.821024e-11
  Force max component initial, final = 0.0003966616 9.7689207e-12
  Final line search alpha, max atom move = 1 9.7689207e-12
  Iterations, force evaluations = 73 146

MPI task timing breakdown:
Section |  min time  |  avg time  |  max time  |%varavg| %total
---------------------------------------------------------------
Pair    | 0.029006   | 0.029361   | 0.029783   |   0.2 | 83.03
Neigh   | 0          | 0          | 0          |   0.0 |  0.00
Comm    | 0.00344    | 0.0038447  | 0.00418    |   0.5 | 10.87
Output  | 0.00101    | 0.001137   | 0.00121    |   0.2 |  3.22
Modify  | 0          | 0          | 0          |   0.0 |  0.00
Other   |            | 0.001019   |            |       |  2.88

Nlocal:             48 ave          51 max          46 min
Histogram: 2 0 0 0 0 0 1 0 0 1
Nghost:            600 ave         602 max         597 min
Histogram: 1 0 0 0 1 0 0 0 0 2
Neighs:           1920 ave        2075 max        1804 min
Histogram: 1 0 1 0 1 0 0 0 0 1
FullNghs:         3840 ave        4080 max        3680 min
Histogram: 2 0 0 0 0 0 1 0 0 1

Total # of neighbors = 15360
Ave neighs/atom = 80
Neighbor list builds = 0
Dangerous builds = 0

# Obtain new stress tensor

variable tmp equal pe
variable e1 equal ${tmp}
variable e1 equal -949.209600029027
variable tmp equal press
variable p1 equal ${tmp}
variable p1 equal -2.51040851129654
variable tmp equal pxx
variable pxx1 equal ${tmp}
variable pxx1 equal -5.91777145693904
variable tmp equal pyy
variable pyy1 equal ${tmp}
variable pyy1 equal -0.806727038845397
variable tmp equal pzz
variable pzz1 equal ${tmp}
variable pzz1 equal -0.806727038105194
variable tmp equal pxy
variable pxy1 equal ${tmp}
variable pxy1 equal -6.90495778134778e-13
variable tmp equal pxz
variable pxz1 equal ${tmp}
variable pxz1 equal -2.68226353608351e-13
variable tmp equal pyz
variable pyz1 equal ${tmp}
variable pyz1 equal -3.62359872063125e-14

# Compute elastic constant from pressure tensor

variable C1pos equal ${d1}
variable C1pos equal 591.777145718615
variable C2pos equal ${d2}
variable C2pos equal 80.6727038250563
variable C3pos equal ${d3}
variable C3pos equal 80.6727037934447
variable C4pos equal ${d4}
variable C4pos equal 3.62359872077516e-12
variable C5pos equal ${d5}
variable C5pos equal 2.68226353606912e-11
variable C6pos equal ${d6}
variable C6pos equal 6.90495778135601e-11

# Combine positive and negative

variable C1${dir} equal 0.5*(${C1neg}+${C1pos})
variable C11 equal 0.5*(${C1neg}+${C1pos})
variable C11 equal 0.5*(591.785001504491+${C1pos})
variable C11 equal 0.5*(591.785001504491+591.777145718615)
variable C2${dir} equal 0.5*(${C2neg}+${C2pos})
variable C21 equal 0.5*(${C2neg}+${C2pos})
variable C21 equal 0.5*(80.6730909802753+${C2pos})
variable C21 equal 0.5*(80.6730909802753+80.6727038250563)
variable C3${dir} equal 0.5*(${C3neg}+${C3pos})
variable C31 equal 0.5*(${C3neg}+${C3pos})
variable C31 equal 0.5*(80.6730909989529+${C3pos})
variable C31 equal 0.5*(80.6730909989529+80.6727037934447)
variable C4${dir} equal 0.5*(${C4neg}+${C4pos})
variable C41 equal 0.5*(${C4neg}+${C4pos})
variable C41 equal 0.5*(8.6822181789938e-12+${C4pos})
variable C41 equal 0.5*(8.6822181789938e-12+3.62359872077516e-12)
variable C5${dir} equal 0.5*(${C5neg}+${C5pos})
variable C51 equal 0.5*(${C5neg}+${C5pos})
variable C51 equal 0.5*(-1.57031523756693e-10+${C5pos})
variable C51 equal 0.5*(-1.57031523756693e-10+2.68226353606912e-11)
variable C6${dir} equal 0.5*(${C6neg}+${C6pos})
variable C61 equal 0.5*(${C6neg}+${C6pos})
variable C61 equal 0.5*(-1.1500004492101e-10+${C6pos})
variable C61 equal 0.5*(-1.1500004492101e-10+6.90495778135601e-11)

# Delete dir to make sure it is not reused

variable dir delete

# uyy Perturbation

variable dir equal 2
include displace.mod
# NOTE: This script should not need to be
# modified. See in.elastic for more info.
#
# Find which reference length to use

if "${dir} == 1" then    "variable len0 equal ${lx0}"
if "${dir} == 2" then    "variable len0 equal ${ly0}"
variable len0 equal ${ly0}
variable len0 equal 12.239999982455
if "${dir} == 3" then    "variable len0 equal ${lz0}"
if "${dir} == 4" then    "variable len0 equal ${lz0}"
if "${dir} == 5" then    "variable len0 equal ${lz0}"
if "${dir} == 6" then    "variable len0 equal ${ly0}"

# Reset box and simulation parameters

clear
  using 1 OpenMP thread(s) per MPI task
Loaded 1 plugins from C:\Program Files\LAMMPS 64-bit 23Jun2022\plugins
Loaded 0 plugins from C:\Program Files\LAMMPS 64-bit 23Jun2022-MPI\plugins
Loaded 1 plugins from C:\Program Files\LAMMPS 64-bit 22Dec2022-MSMPI\plugins
Loaded 1 plugins from C:\Program Files\LAMMPS 64-bit 28Mar2023-MPI\plugins
box tilt large

The 'box' command has been removed and will be ignored

read_restart restart.equil
Reading restart file ...
  restart file = 22 Dec 2022, LAMMPS = 22 Dec 2022
  restoring atom style atomic from restart
  triclinic box = (2.9241727e-09 2.9241724e-09 2.9241732e-09) to (8.16 12.24 16.32) with tilt (0 0 0)
  1 by 2 by 2 MPI processor grid
  pair style meam stores no restart info
  192 atoms
  read_restart CPU = 0.000 seconds
include potential.mod
# NOTE: This script can be modified for different pair styles
# See in.elastic for more info.

# Choose potential
#-----------------------
#pair_style	sw
#pair_coeff * * Si.sw Si
#-----------------------
#pair_style morse	2.83994742	# D0[eV] a[1/A] r0[A] rc[A], 1NN for BCC
#pair_coeff 1 1	2.1173	1.0202	2.4595	2.6497	#	Fe-Fe
#-----------------------
#pair_style smatb # R0(A)   p       q     A(eV)   xi(eV)  Rcs(A)   Rc(A), 4NN: Rcs=4NN, Rc=(4NN+5NN)/2
#pair_coeff 1 1	2.4802	7.0149	2.3779	0.3144	3.0551	4.033	4.176	#	Co	Co
#-----------------------
#pair_style eam/alloy
#pair_coeff * * AlCrFeCoNi_Zhou04.eam.alloy Fe
#-----------------------
pair_style meam
pair_coeff * * ./../../library.meam Ni C ./../../NiC.meam Ni C
#-----------------------

# Setup neighbor style
neighbor 1.0 nsq
neigh_modify once no every 1 delay 0 check yes

# Setup minimization style
min_style	     cg
min_modify	     dmax ${dmax} line quadratic
min_modify	     dmax 0.01 line quadratic

# Setup output
thermo		1
thermo_style custom step temp pe press pxx pyy pzz pxy pxz pyz lx ly lz vol
thermo_modify norm no

# Negative deformation

variable delta equal -${up}*${len0}
variable delta equal -1e-06*${len0}
variable delta equal -1e-06*12.239999982455
variable deltaxy equal -${up}*xy
variable deltaxy equal -1e-06*xy
variable deltaxz equal -${up}*xz
variable deltaxz equal -1e-06*xz
variable deltayz equal -${up}*yz
variable deltayz equal -1e-06*yz
if "${dir} == 1" then    "change_box all x delta 0 ${delta} xy delta ${deltaxy} xz delta ${deltaxz} remap units box"
if "${dir} == 2" then    "change_box all y delta 0 ${delta} yz delta ${deltayz} remap units box"
change_box all y delta 0 ${delta} yz delta ${deltayz} remap units box
change_box all y delta 0 -1.2239999982455e-05 yz delta ${deltayz} remap units box
change_box all y delta 0 -1.2239999982455e-05 yz delta -0 remap units box
Changing box ...
  triclinic box = (2.9241727e-09 2.9241724e-09 2.9241732e-09) to (8.16 12.239988 16.32) with tilt (0 0 0)
  triclinic box = (2.9241727e-09 2.9241724e-09 2.9241732e-09) to (8.16 12.239988 16.32) with tilt (0 0 0)
if "${dir} == 3" then    "change_box all z delta 0 ${delta} remap units box"
if "${dir} == 4" then    "change_box all yz delta ${delta} remap units box"
if "${dir} == 5" then    "change_box all xz delta ${delta} remap units box"
if "${dir} == 6" then    "change_box all xy delta ${delta} remap units box"

# Relax atoms positions

minimize ${etol} ${ftol} ${maxiter} ${maxeval}
minimize 0 ${ftol} ${maxiter} ${maxeval}
minimize 0 1e-10 ${maxiter} ${maxeval}
minimize 0 1e-10 1000 ${maxeval}
minimize 0 1e-10 1000 100000
Neighbor list info ...
  update: every = 1 steps, delay = 0 steps, check = yes
  max neighbors/atom: 2000, page size: 100000
  master list distance cutoff = 5
  ghost atom cutoff = 5
  2 neighbor lists, perpetual/occasional/extra = 2 0 0
  (1) pair meam, perpetual
      attributes: full, newton on
      pair build: full/nsq
      stencil: none
      bin: none
  (2) pair meam, perpetual, half/full from (1)
      attributes: half, newton on
      pair build: halffull/newton
      stencil: none
      bin: none
Per MPI rank memory allocation (min/avg/max) = 9.867 | 9.87 | 9.874 Mbytes
   Step          Temp          PotEng         Press           Pxx            Pyy            Pzz            Pxy            Pxz            Pyz             Lx             Ly             Lz           Volume    
         1   0             -949.2096       2.5111149      0.80737252     5.9185143      0.807458       8.9063323e-06 -3.6332414e-06 -1.725931e-05   8.16           12.239988      16.32          1630.0139    
         2   0             -949.2096       2.5105071      0.80680738     5.9179096      0.80680431    -2.7625863e-06 -4.9705221e-06 -1.7447785e-06  8.16           12.239988      16.32          1630.0139    
         3   0             -949.2096       2.5104488      0.80673075     5.9178688      0.80674683     1.6814291e-06  1.216335e-06   1.2125506e-07  8.16           12.239988      16.32          1630.0139    
         4   0             -949.2096       2.510438       0.80672983     5.9178489      0.80673534     2.0535327e-07  5.2789698e-08 -1.6517147e-08  8.16           12.239988      16.32          1630.0139    
         5   0             -949.2096       2.5104359      0.80672982     5.9178478      0.80673022    -1.4999923e-07  4.4283892e-07  1.403775e-08   8.16           12.239988      16.32          1630.0139    
         6   0             -949.2096       2.510436       0.80672974     5.9178492      0.80672919    -5.3805033e-08 -6.4345213e-08  1.9709754e-07  8.16           12.239988      16.32          1630.0139    
         7   0             -949.2096       2.5104365      0.80673034     5.9178491      0.80672995     9.3917709e-08 -1.3156234e-08 -1.0591016e-07  8.16           12.239988      16.32          1630.0139    
         8   0             -949.2096       2.5104369      0.80673058     5.9178495      0.8067306      4.4275382e-08 -5.3517046e-08  3.7970249e-10  8.16           12.239988      16.32          1630.0139    
         9   0             -949.2096       2.5104369      0.80673062     5.9178495      0.80673063    -2.1960935e-08 -3.4412678e-08 -4.498872e-09   8.16           12.239988      16.32          1630.0139    
        10   0             -949.2096       2.510437       0.80673079     5.9178497      0.80673064    -1.7747306e-08 -3.1363896e-08  9.2076767e-09  8.16           12.239988      16.32          1630.0139    
        11   0             -949.2096       2.5104371      0.8067308      5.9178497      0.80673067    -6.729341e-09  -2.0568217e-08  4.1130593e-09  8.16           12.239988      16.32          1630.0139    
        12   0             -949.2096       2.5104371      0.80673084     5.9178498      0.80673073    -1.6332253e-09 -6.9284558e-09  2.8228033e-10  8.16           12.239988      16.32          1630.0139    
        13   0             -949.2096       2.5104372      0.80673087     5.9178498      0.8067308      2.4603264e-11 -5.6492738e-09 -6.5987583e-10  8.16           12.239988      16.32          1630.0139    
        14   0             -949.2096       2.5104372      0.80673089     5.9178499      0.80673082    -4.1870889e-10 -9.9004044e-10 -1.6565582e-09  8.16           12.239988      16.32          1630.0139    
        15   0             -949.2096       2.5104372      0.8067309      5.9178499      0.80673083    -2.806451e-09  -2.5727407e-09  1.9409025e-09  8.16           12.239988      16.32          1630.0139    
        16   0             -949.2096       2.5104372      0.8067309      5.9178499      0.80673084    -1.8139312e-09 -3.5350671e-09 -4.5995701e-10  8.16           12.239988      16.32          1630.0139    
        17   0             -949.2096       2.5104372      0.8067309      5.9178499      0.80673084    -1.4400168e-09 -4.6987552e-09  8.1957953e-10  8.16           12.239988      16.32          1630.0139    
        18   0             -949.2096       2.5104372      0.8067309      5.9178499      0.80673085    -2.3582298e-09 -4.9268588e-09  6.6542163e-10  8.16           12.239988      16.32          1630.0139    
        19   0             -949.2096       2.5104372      0.80673091     5.9178499      0.80673086    -1.6529392e-09 -4.2339271e-09 -5.1283482e-10  8.16           12.239988      16.32          1630.0139    
        20   0             -949.2096       2.5104372      0.80673091     5.91785        0.80673087    -1.0880073e-09 -2.8035967e-09 -2.5115536e-10  8.16           12.239988      16.32          1630.0139    
        21   0             -949.2096       2.5104373      0.80673091     5.91785        0.80673087    -1.215922e-09  -1.9926507e-09 -1.1798438e-10  8.16           12.239988      16.32          1630.0139    
        22   0             -949.2096       2.5104373      0.80673091     5.91785        0.80673088    -7.6144362e-10 -3.1720719e-10  7.9760969e-11  8.16           12.239988      16.32          1630.0139    
        23   0             -949.2096       2.5104373      0.80673091     5.91785        0.80673089    -7.7279075e-10 -1.0507401e-10  2.1844766e-10  8.16           12.239988      16.32          1630.0139    
        24   0             -949.2096       2.5104373      0.80673091     5.91785        0.80673089    -6.6456926e-10  6.7807572e-11  1.5462698e-10  8.16           12.239988      16.32          1630.0139    
        25   0             -949.2096       2.5104373      0.80673091     5.91785        0.8067309     -6.3568918e-10 -2.3308324e-11  8.1504265e-11  8.16           12.239988      16.32          1630.0139    
        26   0             -949.2096       2.5104373      0.80673091     5.91785        0.8067309     -4.4430964e-10  4.9877043e-11  3.8175267e-11  8.16           12.239988      16.32          1630.0139    
        27   0             -949.2096       2.5104373      0.80673091     5.91785        0.8067309     -2.9083478e-10 -6.3127882e-11 -4.2888224e-11  8.16           12.239988      16.32          1630.0139    
        28   0             -949.2096       2.5104373      0.80673091     5.91785        0.8067309     -2.3814443e-10  1.5943826e-11 -5.7595989e-12  8.16           12.239988      16.32          1630.0139    
        29   0             -949.2096       2.5104373      0.80673091     5.91785        0.8067309     -1.9710066e-10  3.0578272e-12  2.7166348e-11  8.16           12.239988      16.32          1630.0139    
        30   0             -949.2096       2.5104373      0.80673091     5.91785        0.8067309     -1.7465152e-10 -1.9774746e-11 -9.0646427e-12  8.16           12.239988      16.32          1630.0139    
        31   0             -949.2096       2.5104373      0.80673091     5.91785        0.80673091    -1.7840654e-10 -7.5441198e-12  2.0423403e-11  8.16           12.239988      16.32          1630.0139    
        32   0             -949.2096       2.5104373      0.80673091     5.91785        0.80673091    -1.3312183e-10 -5.0947649e-12  2.1025272e-11  8.16           12.239988      16.32          1630.0139    
        33   0             -949.2096       2.5104373      0.80673091     5.91785        0.80673091    -1.1465083e-10 -8.0450286e-12  1.2819079e-11  8.16           12.239988      16.32          1630.0139    
        34   0             -949.2096       2.5104373      0.80673091     5.91785        0.80673091    -9.1063182e-11 -1.2454944e-11  1.3434714e-11  8.16           12.239988      16.32          1630.0139    
        35   0             -949.2096       2.5104373      0.80673091     5.91785        0.80673091    -6.6043355e-11 -1.4284878e-11  3.6813219e-13  8.16           12.239988      16.32          1630.0139    
        36   0             -949.2096       2.5104373      0.80673091     5.91785        0.80673091    -5.4088934e-11 -3.2851314e-11 -1.2299037e-11  8.16           12.239988      16.32          1630.0139    
        37   0             -949.2096       2.5104373      0.80673091     5.91785        0.80673091    -4.1322772e-11 -2.3499482e-11 -5.8249259e-12  8.16           12.239988      16.32          1630.0139    
        38   0             -949.2096       2.5104373      0.80673091     5.91785        0.80673091    -2.9668584e-11 -2.422751e-11  -1.9460285e-12  8.16           12.239988      16.32          1630.0139    
        39   0             -949.2096       2.5104373      0.80673091     5.91785        0.80673091    -1.3873689e-11 -1.7979418e-11 -7.3892432e-14  8.16           12.239988      16.32          1630.0139    
        40   0             -949.2096       2.5104373      0.80673091     5.91785        0.80673091    -8.8813883e-12 -1.531717e-12   3.6629507e-12  8.16           12.239988      16.32          1630.0139    
        41   0             -949.2096       2.5104373      0.80673091     5.91785        0.80673091    -1.0613464e-11  9.0133161e-12  5.7486367e-12  8.16           12.239988      16.32          1630.0139    
        42   0             -949.2096       2.5104373      0.80673091     5.91785        0.80673091    -2.7434776e-12  7.3239789e-12  2.9759847e-12  8.16           12.239988      16.32          1630.0139    
        43   0             -949.2096       2.5104373      0.80673091     5.91785        0.80673091     1.6333774e-14  6.7354427e-12  4.8004941e-12  8.16           12.239988      16.32          1630.0139    
        44   0             -949.2096       2.5104373      0.80673091     5.91785        0.80673091     8.6769689e-13 -1.2630694e-12 -1.0226534e-12  8.16           12.239988      16.32          1630.0139    
        45   0             -949.2096       2.5104373      0.80673091     5.91785        0.80673091    -1.5263752e-12 -2.9905948e-12  7.2312697e-13  8.16           12.239988      16.32          1630.0139    
        46   0             -949.2096       2.5104373      0.80673091     5.91785        0.80673091    -2.0971367e-12 -4.6683026e-12  1.3996249e-12  8.16           12.239988      16.32          1630.0139    
        47   0             -949.2096       2.5104373      0.80673091     5.91785        0.80673091     8.4161129e-13 -2.9309308e-12  6.4837265e-13  8.16           12.239988      16.32          1630.0139    
        48   0             -949.2096       2.5104373      0.80673091     5.91785        0.80673091    -1.2546186e-12 -1.2392322e-12  3.9484535e-12  8.16           12.239988      16.32          1630.0139    
        49   0             -949.2096       2.5104373      0.80673091     5.91785        0.80673091     1.2302739e-12 -6.8742151e-14  1.5909957e-12  8.16           12.239988      16.32          1630.0139    
        50   0             -949.2096       2.5104373      0.80673091     5.91785        0.80673091     2.1791448e-12  1.4069395e-12  1.190731e-12   8.16           12.239988      16.32          1630.0139    
        51   0             -949.2096       2.5104373      0.80673091     5.91785        0.80673091     3.2181374e-13  3.4976221e-13  2.360974e-12   8.16           12.239988      16.32          1630.0139    
        52   0             -949.2096       2.5104373      0.80673091     5.91785        0.80673091    -7.1677644e-13 -1.0382926e-12 -1.4618556e-12  8.16           12.239988      16.32          1630.0139    
        53   0             -949.2096       2.5104373      0.80673091     5.91785        0.80673091    -5.0304131e-14 -4.5069511e-13  4.0350092e-13  8.16           12.239988      16.32          1630.0139    
        54   0             -949.2096       2.5104373      0.80673091     5.91785        0.80673091     9.4163842e-13 -3.0609085e-13  2.574616e-12   8.16           12.239988      16.32          1630.0139    
        55   0             -949.2096       2.5104373      0.80673091     5.91785        0.80673091     2.9889306e-13  2.0753837e-13 -1.9205751e-12  8.16           12.239988      16.32          1630.0139    
        56   0             -949.2096       2.5104373      0.80673091     5.91785        0.80673091     3.2194394e-13 -5.1560802e-13 -7.5312276e-13  8.16           12.239988      16.32          1630.0139    
        57   0             -949.2096       2.5104373      0.80673091     5.91785        0.80673091    -9.9508772e-13 -4.8486872e-13 -7.4618043e-13  8.16           12.239988      16.32          1630.0139    
        58   0             -949.2096       2.5104373      0.80673091     5.91785        0.80673091     1.1896011e-13 -1.5519753e-12  8.3735296e-13  8.16           12.239988      16.32          1630.0139    
        59   0             -949.2096       2.5104373      0.80673091     5.91785        0.80673091    -3.0318595e-13 -2.5987838e-12  6.196653e-13   8.16           12.239988      16.32          1630.0139    
        60   0             -949.2096       2.5104373      0.80673091     5.91785        0.80673091     1.3114666e-13 -1.3470635e-12 -1.2065034e-12  8.16           12.239988      16.32          1630.0139    
        61   0             -949.2096       2.5104373      0.80673091     5.91785        0.80673091     9.2477769e-13 -7.3889528e-13 -4.6581109e-13  8.16           12.239988      16.32          1630.0139    
        62   0             -949.2096       2.5104373      0.80673091     5.91785        0.80673091    -3.3455607e-13  1.3577714e-12  4.433476e-13   8.16           12.239988      16.32          1630.0139    
        63   0             -949.2096       2.5104373      0.80673091     5.91785        0.80673091     1.6622879e-12 -1.2879667e-12 -5.484046e-12   8.16           12.239988      16.32          1630.0139    
        64   0             -949.2096       2.5104373      0.80673091     5.91785        0.80673091    -4.7934335e-13 -9.1046518e-14  1.514189e-12   8.16           12.239988      16.32          1630.0139    
        65   0             -949.2096       2.5104373      0.80673091     5.91785        0.80673091     4.1111172e-13  3.0910338e-14  2.3991723e-12  8.16           12.239988      16.32          1630.0139    
        66   0             -949.2096       2.5104373      0.80673091     5.91785        0.80673091    -1.3131432e-12  1.6880401e-12 -9.1065167e-13  8.16           12.239988      16.32          1630.0139    
        67   0             -949.2096       2.5104373      0.80673091     5.91785        0.80673091    -1.9059722e-13  3.5131631e-13 -9.9383631e-13  8.16           12.239988      16.32          1630.0139    
        68   0             -949.2096       2.5104373      0.80673091     5.91785        0.80673091    -2.0570545e-13  1.1329991e-12  1.5014735e-12  8.16           12.239988      16.32          1630.0139    
        69   0             -949.2096       2.5104373      0.80673091     5.91785        0.80673091     9.7982681e-13  4.3139753e-13  1.1411622e-12  8.16           12.239988      16.32          1630.0139    
        70   0             -949.2096       2.5104373      0.80673091     5.91785        0.80673091    -1.2846924e-12  6.074246e-13   2.4699582e-12  8.16           12.239988      16.32          1630.0139    
        71   0             -949.2096       2.5104373      0.80673091     5.91785        0.80673091    -1.6134106e-12 -7.5533318e-13  6.5170136e-14  8.16           12.239988      16.32          1630.0139    
        72   0             -949.2096       2.5104373      0.80673091     5.91785        0.80673091    -9.0220958e-13  9.4020035e-13  2.7501662e-12  8.16           12.239988      16.32          1630.0139    
        73   0             -949.2096       2.5104373      0.80673091     5.91785        0.80673091     5.0396546e-13 -1.5908131e-12  1.84654e-12    8.16           12.239988      16.32          1630.0139    
        74   0             -949.2096       2.5104373      0.80673091     5.91785        0.80673091     1.2996674e-12 -1.7311662e-12 -2.0410427e-12  8.16           12.239988      16.32          1630.0139    
Loop time of 0.033619 on 4 procs for 73 steps with 192 atoms

34.9% CPU use with 4 MPI tasks x 1 OpenMP threads

Minimization stats:
  Stopping criterion = force tolerance
  Energy initial, next-to-last, final = 
     -949.209599844929  -949.209600029027  -949.209600029027
  Force two-norm initial, final = 0.003403245 5.4842913e-11
  Force max component initial, final = 0.00039666193 9.7195126e-12
  Final line search alpha, max atom move = 1 9.7195126e-12
  Iterations, force evaluations = 73 146

MPI task timing breakdown:
Section |  min time  |  avg time  |  max time  |%varavg| %total
---------------------------------------------------------------
Pair    | 0.027747   | 0.028056   | 0.028648   |   0.2 | 83.45
Neigh   | 0          | 0          | 0          |   0.0 |  0.00
Comm    | 0.002926   | 0.0034927  | 0.003827   |   0.6 | 10.39
Output  | 0.000867   | 0.00095375 | 0.001089   |   0.0 |  2.84
Modify  | 0          | 0          | 0          |   0.0 |  0.00
Other   |            | 0.001117   |            |       |  3.32

Nlocal:             48 ave          51 max          46 min
Histogram: 2 0 0 0 0 0 1 0 0 1
Nghost:            600 ave         602 max         597 min
Histogram: 1 0 0 0 1 0 0 0 0 2
Neighs:           1920 ave        2075 max        1804 min
Histogram: 1 0 1 0 1 0 0 0 0 1
FullNghs:         3840 ave        4080 max        3680 min
[...]
        38   0             -949.2096      -8.0368998e-07 -6.2084353e-09 -2.1730288e-06 -2.3183274e-07 -0.19496007    -2.5350746e-11 -5.504538e-12   8.16           12.24          16.32          1630.0155    
        39   0             -949.2096      -8.0373012e-07 -6.3677894e-09 -2.1730587e-06 -2.3176387e-07 -0.19496007    -1.5540916e-11 -6.8085176e-13  8.16           12.24          16.32          1630.0155    
        40   0             -949.2096      -8.0345582e-07 -6.2635611e-09 -2.1728465e-06 -2.3125742e-07 -0.19496007    -2.598289e-12   7.0402473e-12  8.16           12.24          16.32          1630.0155    
        41   0             -949.2096      -8.0345047e-07 -6.2910837e-09 -2.1728262e-06 -2.3123413e-07 -0.19496007     8.3847349e-12  2.2313987e-12  8.16           12.24          16.32          1630.0155    
        42   0             -949.2096      -8.0345696e-07 -6.3400862e-09 -2.1728458e-06 -2.3118498e-07 -0.19496007     7.7342312e-12  1.8376216e-12  8.16           12.24          16.32          1630.0155    
        43   0             -949.2096      -8.0351757e-07 -6.4518923e-09 -2.1728987e-06 -2.3120206e-07 -0.19496007     2.5891325e-12  9.2588215e-13  8.16           12.24          16.32          1630.0155    
        44   0             -949.2096      -8.0343492e-07 -6.3889719e-09 -2.172863e-06  -2.3105275e-07 -0.19496007    -1.7909654e-12 -1.0995307e-12  8.16           12.24          16.32          1630.0155    
        45   0             -949.2096      -8.033373e-07  -6.3958371e-09 -2.1728263e-06 -2.3078973e-07 -0.19496007    -3.5607329e-12  9.6323264e-13  8.16           12.24          16.32          1630.0155    
        46   0             -949.2096      -8.0339932e-07 -6.3218943e-09 -2.1727869e-06 -2.3108913e-07 -0.19496007    -4.5595333e-12  3.3563052e-12  8.16           12.24          16.32          1630.0155    
        47   0             -949.2096      -8.0342881e-07 -6.3635661e-09 -2.1728396e-06 -2.3108323e-07 -0.19496007    -3.4439252e-12 -1.6767915e-12  8.16           12.24          16.32          1630.0155    
        48   0             -949.2096      -8.0342814e-07 -6.4028766e-09 -2.1727719e-06 -2.3110959e-07 -0.19496007    -6.4521633e-13 -1.5054497e-12  8.16           12.24          16.32          1630.0155    
        49   0             -949.2096      -8.0341883e-07 -6.4154893e-09 -2.1727666e-06 -2.3107435e-07 -0.19496007    -6.9508337e-13  2.5763285e-13  8.16           12.24          16.32          1630.0155    
        50   0             -949.2096      -8.0333671e-07 -6.3652072e-09 -2.1727426e-06 -2.3090237e-07 -0.19496007     4.0981144e-13  4.6138933e-12  8.16           12.24          16.32          1630.0155    
        51   0             -949.2096      -8.0346138e-07 -6.5031816e-09 -2.1727515e-06 -2.311295e-07  -0.19496007    -2.3251688e-13  1.750071e-12   8.16           12.24          16.32          1630.0155    
        52   0             -949.2096      -8.0348347e-07 -6.4745634e-09 -2.1728012e-06 -2.3117461e-07 -0.19496007    -6.8004161e-13 -9.3926634e-13  8.16           12.24          16.32          1630.0155    
        53   0             -949.2096      -8.0340733e-07 -6.383614e-09  -2.1727547e-06 -2.3108365e-07 -0.19496007     5.7885188e-13 -2.5731751e-12  8.16           12.24          16.32          1630.0155    
        54   0             -949.2096      -8.0349393e-07 -6.39907e-09   -2.1728891e-06 -2.3119357e-07 -0.19496007     1.7363462e-12  1.6994486e-12  8.16           12.24          16.32          1630.0155    
        55   0             -949.2096      -8.0343442e-07 -6.3960178e-09 -2.1727562e-06 -2.3115102e-07 -0.19496007     1.3715487e-12 -3.5378502e-13  8.16           12.24          16.32          1630.0155    
        56   0             -949.2096      -8.0339054e-07 -6.3305146e-09 -2.1727671e-06 -2.3107398e-07 -0.19496007     1.274498e-12   1.4773813e-12  8.16           12.24          16.32          1630.0155    
        57   0             -949.2096      -8.0343456e-07 -6.3756136e-09 -2.1727871e-06 -2.3114096e-07 -0.19496007    -4.4831026e-13  9.7857868e-13  8.16           12.24          16.32          1630.0155    
        58   0             -949.2096      -8.0341503e-07 -6.3513333e-09 -2.1727962e-06 -2.3109754e-07 -0.19496007     3.0326625e-12  9.1148602e-14  8.16           12.24          16.32          1630.0155    
        59   0             -949.2096      -8.0338051e-07 -6.3038967e-09 -2.1727639e-06 -2.3107371e-07 -0.19496007     2.4732866e-12 -8.6139976e-13  8.16           12.24          16.32          1630.0155    
        60   0             -949.2096      -8.0349975e-07 -6.4664016e-09 -2.1728325e-06 -2.3120038e-07 -0.19496007     5.8196657e-13  5.9508671e-14  8.16           12.24          16.32          1630.0155    
        61   0             -949.2096      -8.0335193e-07 -6.3588708e-09 -2.1727056e-06 -2.3099134e-07 -0.19496007     8.3548611e-13  5.2806588e-13  8.16           12.24          16.32          1630.0155    
        62   0             -949.2096      -8.0333849e-07 -6.364879e-09  -2.1727356e-06 -2.3091498e-07 -0.19496007    -3.2994221e-13  3.6659072e-13  8.16           12.24          16.32          1630.0155    
        63   0             -949.2096      -8.0342865e-07 -6.3742283e-09 -2.172787e-06  -2.3112468e-07 -0.19496007     3.9513582e-13 -1.2133796e-12  8.16           12.24          16.32          1630.0155    
        64   0             -949.2096      -8.0335014e-07 -6.3248064e-09 -2.1727744e-06 -2.3095126e-07 -0.19496007    -6.8726301e-13  3.5554453e-12  8.16           12.24          16.32          1630.0155    
        65   0             -949.2096      -8.0347503e-07 -6.4385635e-09 -2.1728378e-06 -2.3114872e-07 -0.19496007    -2.2403686e-13  1.7903132e-12  8.16           12.24          16.32          1630.0155    
        66   0             -949.2096      -8.0342145e-07 -6.4000506e-09 -2.1728892e-06 -2.3097508e-07 -0.19496007    -4.5468168e-13  8.8112646e-13  8.16           12.24          16.32          1630.0155    
        67   0             -949.2096      -8.0343756e-07 -6.4539238e-09 -2.1728774e-06 -2.3098132e-07 -0.19496007     7.2576046e-13 -1.56595e-12    8.16           12.24          16.32          1630.0155    
        68   0             -949.2096      -8.0344861e-07 -6.3579757e-09 -2.1728434e-06 -2.3114449e-07 -0.19496007     1.3189135e-12 -3.8920006e-13  8.16           12.24          16.32          1630.0155    
        69   0             -949.2096      -8.0350241e-07 -6.4719558e-09 -2.1729542e-06 -2.3108105e-07 -0.19496007     2.1845963e-12 -2.3637486e-12  8.16           12.24          16.32          1630.0155    
        70   0             -949.2096      -8.0360964e-07 -6.5839323e-09 -2.1729843e-06 -2.312607e-07  -0.19496007    -9.6633588e-13 -1.7944976e-12  8.16           12.24          16.32          1630.0155    
        71   0             -949.2096      -8.035338e-07  -6.4908782e-09 -2.1730293e-06 -2.3108127e-07 -0.19496007     5.6995442e-13  1.644611e-12   8.16           12.24          16.32          1630.0155    
        72   0             -949.2096      -8.0354976e-07 -6.4581535e-09 -2.1730279e-06 -2.3116319e-07 -0.19496007    -1.8177525e-12  1.4647781e-12  8.16           12.24          16.32          1630.0155    
        73   0             -949.2096      -8.0367487e-07 -6.5583313e-09 -2.173151e-06  -2.3131524e-07 -0.19496007    -5.8117412e-13 -1.7284684e-12  8.16           12.24          16.32          1630.0155    
        74   0             -949.2096      -8.0348052e-07 -6.4024991e-09 -2.1730373e-06 -2.310018e-07  -0.19496007     1.4188653e-12 -8.014773e-14   8.16           12.24          16.32          1630.0155    
Loop time of 0.0302925 on 4 procs for 73 steps with 192 atoms

38.7% CPU use with 4 MPI tasks x 1 OpenMP threads

Minimization stats:
  Stopping criterion = force tolerance
  Energy initial, next-to-last, final = 
     -949.209599847842  -949.209600031939  -949.209600031938
  Force two-norm initial, final = 0.0034032297 5.4654322e-11
  Force max component initial, final = 0.00039666173 9.8018646e-12
  Final line search alpha, max atom move = 1 9.8018646e-12
  Iterations, force evaluations = 73 146

MPI task timing breakdown:
Section |  min time  |  avg time  |  max time  |%varavg| %total
---------------------------------------------------------------
Pair    | 0.025322   | 0.025616   | 0.025784   |   0.1 | 84.56
Neigh   | 0          | 0          | 0          |   0.0 |  0.00
Comm    | 0.002819   | 0.0029915  | 0.003249   |   0.3 |  9.88
Output  | 0.000789   | 0.000825   | 0.000927   |   0.0 |  2.72
Modify  | 0          | 0          | 0          |   0.0 |  0.00
Other   |            | 0.0008595  |            |       |  2.84

Nlocal:             48 ave          51 max          46 min
Histogram: 2 0 0 0 0 0 1 0 0 1
Nghost:            600 ave         602 max         597 min
Histogram: 1 0 0 0 1 0 0 0 0 2
Neighs:           1920 ave        2075 max        1804 min
Histogram: 1 0 1 0 1 0 0 0 0 1
FullNghs:         3840 ave        4080 max        3680 min
Histogram: 2 0 0 0 0 0 1 0 0 1

Total # of neighbors = 15360
Ave neighs/atom = 80
Neighbor list builds = 0
Dangerous builds = 0

# Obtain new stress tensor

variable tmp equal pe
variable e1 equal ${tmp}
variable e1 equal -949.209600031938
variable tmp equal press
variable p1 equal ${tmp}
variable p1 equal -8.03480521203545e-07
variable tmp equal pxx
variable pxx1 equal ${tmp}
variable pxx1 equal -6.40249912680783e-09
variable tmp equal pyy
variable pyy1 equal ${tmp}
variable pyy1 equal -2.17303726859534e-06
variable tmp equal pzz
variable pzz1 equal ${tmp}
variable pzz1 equal -2.31001795888483e-07
variable tmp equal pxy
variable pxy1 equal ${tmp}
variable pxy1 equal -0.194960069475197
variable tmp equal pxz
variable pxz1 equal ${tmp}
variable pxz1 equal 1.41886532739052e-12
variable tmp equal pyz
variable pyz1 equal ${tmp}
variable pyz1 equal -8.01477299101742e-14

# Compute elastic constant from pressure tensor

variable C1pos equal ${d1}
variable C1pos equal 6.64960439454505e-07
variable C2pos equal ${d2}
variable C2pos equal 0.00021724424350139
variable C3pos equal ${d3}
variable C3pos equal 2.3083104837465e-05
variable C4pos equal ${d4}
variable C4pos equal 8.01477299116133e-12
variable C5pos equal ${d5}
variable C5pos equal -1.41886532739196e-10
variable C6pos equal ${d6}
variable C6pos equal 19.4960069475197

# Combine positive and negative

variable C1${dir} equal 0.5*(${C1neg}+${C1pos})
variable C16 equal 0.5*(${C1neg}+${C1pos})
variable C16 equal 0.5*(-6.74176797349769e-07+${C1pos})
variable C16 equal 0.5*(-6.74176797349769e-07+6.64960439454505e-07)
variable C2${dir} equal 0.5*(${C2neg}+${C2pos})
variable C26 equal 0.5*(${C2neg}+${C2pos})
variable C26 equal 0.5*(-0.000217245690511705+${C2pos})
variable C26 equal 0.5*(-0.000217245690511705+0.00021724424350139)
variable C3${dir} equal 0.5*(${C3neg}+${C3pos})
variable C36 equal 0.5*(${C3neg}+${C3pos})
variable C36 equal 0.5*(-2.31030513527707e-05+${C3pos})
variable C36 equal 0.5*(-2.31030513527707e-05+2.3083104837465e-05)
variable C4${dir} equal 0.5*(${C4neg}+${C4pos})
variable C46 equal 0.5*(${C4neg}+${C4pos})
variable C46 equal 0.5*(1.30835421971408e-10+${C4pos})
variable C46 equal 0.5*(1.30835421971408e-10+8.01477299116133e-12)
variable C5${dir} equal 0.5*(${C5neg}+${C5pos})
variable C56 equal 0.5*(${C5neg}+${C5pos})
variable C56 equal 0.5*(-2.84177538729679e-11+${C5pos})
variable C56 equal 0.5*(-2.84177538729679e-11+-1.41886532739196e-10)
variable C6${dir} equal 0.5*(${C6neg}+${C6pos})
variable C66 equal 0.5*(${C6neg}+${C6pos})
variable C66 equal 0.5*(19.4960069474429+${C6pos})
variable C66 equal 0.5*(19.4960069474429+19.4960069475197)

# Delete dir to make sure it is not reused

variable dir delete

# Output final values

variable C11all equal ${C11}
variable C11all equal 591.781073611553
variable C22all equal ${C22}
variable C22all equal 591.78107366015
variable C33all equal ${C33}
variable C33all equal 591.781073611086

variable C12all equal 0.5*(${C12}+${C21})
variable C12all equal 0.5*(80.6728974062499+${C21})
variable C12all equal 0.5*(80.6728974062499+80.6728974026658)
variable C13all equal 0.5*(${C13}+${C31})
variable C13all equal 0.5*(80.6728973930711+${C31})
variable C13all equal 0.5*(80.6728973930711+80.6728973961988)
variable C23all equal 0.5*(${C23}+${C32})
variable C23all equal 0.5*(80.6728973982357+${C32})
variable C23all equal 0.5*(80.6728973982357+80.6728974033448)

variable C44all equal ${C44}
variable C44all equal 19.4960069477518
variable C55all equal ${C55}
variable C55all equal 19.4960069473721
variable C66all equal ${C66}
variable C66all equal 19.4960069474813

variable C14all equal 0.5*(${C14}+${C41})
variable C14all equal 0.5*(-2.58236135655053e-09+${C41})
variable C14all equal 0.5*(-2.58236135655053e-09+6.15290844988448e-12)
variable C15all equal 0.5*(${C15}+${C51})
variable C15all equal 0.5*(1.80319921318002e-09+${C51})
variable C15all equal 0.5*(1.80319921318002e-09+-6.51044441980009e-11)
variable C16all equal 0.5*(${C16}+${C61})
variable C16all equal 0.5*(-4.60817894763197e-09+${C61})
variable C16all equal 0.5*(-4.60817894763197e-09+-2.29752335537249e-11)

variable C24all equal 0.5*(${C24}+${C42})
variable C24all equal 0.5*(5.40959990120152e-09+${C42})
variable C24all equal 0.5*(5.40959990120152e-09+-1.05658841500214e-10)
variable C25all equal 0.5*(${C25}+${C52})
variable C25all equal 0.5*(5.23150792054992e-09+${C52})
variable C25all equal 0.5*(5.23150792054992e-09+6.7821280275655e-12)
variable C26all equal 0.5*(${C26}+${C62})
variable C26all equal 0.5*(-7.23505157491249e-10+${C62})
variable C26all equal 0.5*(-7.23505157491249e-10+2.00707686962093e-11)

variable C34all equal 0.5*(${C34}+${C43})
variable C34all equal 0.5*(-2.58235930100485e-09+${C43})
variable C34all equal 0.5*(-2.58235930100485e-09+-1.87965066492807e-10)
variable C35all equal 0.5*(${C35}+${C53})
variable C35all equal 0.5*(-4.8641893620068e-09+${C53})
variable C35all equal 0.5*(-4.8641893620068e-09+-1.10934038693874e-10)
variable C36all equal 0.5*(${C36}+${C63})
variable C36all equal 0.5*(-9.97325765285126e-09+${C63})
variable C36all equal 0.5*(-9.97325765285126e-09+7.50354127823699e-12)

variable C45all equal 0.5*(${C45}+${C54})
variable C45all equal 0.5*(1.18858742376982e-11+${C54})
variable C45all equal 0.5*(1.18858742376982e-11+-2.75973940274816e-11)
variable C46all equal 0.5*(${C46}+${C64})
variable C46all equal 0.5*(6.94250974812847e-11+${C64})
variable C46all equal 0.5*(6.94250974812847e-11+2.13036526577686e-11)
variable C56all equal 0.5*(${C56}+${C65})
variable C56all equal 0.5*(-8.5152143306082e-11+${C65})
variable C56all equal 0.5*(-8.5152143306082e-11+-3.70883733673755e-12)

# Average moduli for cubic crystals

variable C11cubic equal (${C11all}+${C22all}+${C33all})/3.0
variable C11cubic equal (591.781073611553+${C22all}+${C33all})/3.0
variable C11cubic equal (591.781073611553+591.78107366015+${C33all})/3.0
variable C11cubic equal (591.781073611553+591.78107366015+591.781073611086)/3.0
variable C12cubic equal (${C12all}+${C13all}+${C23all})/3.0
variable C12cubic equal (80.6728974044578+${C13all}+${C23all})/3.0
variable C12cubic equal (80.6728974044578+80.672897394635+${C23all})/3.0
variable C12cubic equal (80.6728974044578+80.672897394635+80.6728974007902)/3.0
variable C44cubic equal (${C44all}+${C55all}+${C66all})/3.0
variable C44cubic equal (19.4960069477518+${C55all}+${C66all})/3.0
variable C44cubic equal (19.4960069477518+19.4960069473721+${C66all})/3.0
variable C44cubic equal (19.4960069477518+19.4960069473721+19.4960069474813)/3.0

variable bulkmodulus equal (${C11cubic}+2*${C12cubic})/3.0
variable bulkmodulus equal (591.781073627596+2*${C12cubic})/3.0
variable bulkmodulus equal (591.781073627596+2*80.672897399961)/3.0
variable shearmodulus1 equal ${C44cubic}
variable shearmodulus1 equal 19.4960069475351
variable shearmodulus2 equal (${C11cubic}-${C12cubic})/2.0
variable shearmodulus2 equal (591.781073627596-${C12cubic})/2.0
variable shearmodulus2 equal (591.781073627596-80.672897399961)/2.0
variable poissonratio equal 1.0/(1.0+${C11cubic}/${C12cubic})
variable poissonratio equal 1.0/(1.0+591.781073627596/${C12cubic})
variable poissonratio equal 1.0/(1.0+591.781073627596/80.672897399961)

# For Stillinger-Weber silicon, the analytical results
# are known to be (E. R. Cowley, 1988):
#               C11 = 151.4 GPa
#               C12 = 76.4 GPa
#               C44 = 56.4 GPa

print "========================================="
=========================================
print "Components of the Elastic Constant Tensor"
Components of the Elastic Constant Tensor
print "========================================="
=========================================

print "Elastic Constant C11all = ${C11all} ${cunits}"
Elastic Constant C11all = 591.781073611553 GPa
print "Elastic Constant C22all = ${C22all} ${cunits}"
Elastic Constant C22all = 591.78107366015 GPa
print "Elastic Constant C33all = ${C33all} ${cunits}"
Elastic Constant C33all = 591.781073611086 GPa

print "Elastic Constant C12all = ${C12all} ${cunits}"
Elastic Constant C12all = 80.6728974044578 GPa
print "Elastic Constant C13all = ${C13all} ${cunits}"
Elastic Constant C13all = 80.672897394635 GPa
print "Elastic Constant C23all = ${C23all} ${cunits}"
Elastic Constant C23all = 80.6728974007902 GPa

print "Elastic Constant C44all = ${C44all} ${cunits}"
Elastic Constant C44all = 19.4960069477518 GPa
print "Elastic Constant C55all = ${C55all} ${cunits}"
Elastic Constant C55all = 19.4960069473721 GPa
print "Elastic Constant C66all = ${C66all} ${cunits}"
Elastic Constant C66all = 19.4960069474813 GPa

print "Elastic Constant C14all = ${C14all} ${cunits}"
Elastic Constant C14all = -1.28810422405032e-09 GPa
print "Elastic Constant C15all = ${C15all} ${cunits}"
Elastic Constant C15all = 8.6904738449101e-10 GPa
print "Elastic Constant C16all = ${C16all} ${cunits}"
Elastic Constant C16all = -2.31557709059285e-09 GPa

print "Elastic Constant C24all = ${C24all} ${cunits}"
Elastic Constant C24all = 2.65197052985065e-09 GPa
print "Elastic Constant C25all = ${C25all} ${cunits}"
Elastic Constant C25all = 2.61914502428874e-09 GPa
print "Elastic Constant C26all = ${C26all} ${cunits}"
Elastic Constant C26all = -3.5171719439752e-10 GPa

print "Elastic Constant C34all = ${C34all} ${cunits}"
Elastic Constant C34all = -1.38516218374883e-09 GPa
print "Elastic Constant C35all = ${C35all} ${cunits}"
Elastic Constant C35all = -2.48756170035034e-09 GPa
print "Elastic Constant C36all = ${C36all} ${cunits}"
Elastic Constant C36all = -4.98287705578651e-09 GPa

print "Elastic Constant C45all = ${C45all} ${cunits}"
Elastic Constant C45all = -7.8557598948917e-12 GPa
print "Elastic Constant C46all = ${C46all} ${cunits}"
Elastic Constant C46all = 4.53643750695267e-11 GPa
print "Elastic Constant C56all = ${C56all} ${cunits}"
Elastic Constant C56all = -4.44304903214098e-11 GPa

print "========================================="
=========================================
print "Average properties for a cubic crystal"
Average properties for a cubic crystal
print "========================================="
=========================================

print "Bulk Modulus = ${bulkmodulus} ${cunits}"
Bulk Modulus = 251.042289475839 GPa
print "Shear Modulus 1 = ${shearmodulus1} ${cunits}"
Shear Modulus 1 = 19.4960069475351 GPa
print "Shear Modulus 2 = ${shearmodulus2} ${cunits}"
Shear Modulus 2 = 255.554088113817 GPa
print "Poisson Ratio = ${poissonratio}"
Poisson Ratio = 0.11996790988785
Total wall time: 0:00:00
