# LAMMPS data file written by OVITO Basic 3.8.4

2 atoms
1 atom types

0.0 2.84005168 xlo xhi
0.0 2.84005168 ylo yhi
0.0 2.84005168 zlo zhi

Masses

1 55.845  # Fe

Atoms  # atomic

1 1 0.0 0.0 0.0
2 1 1.42002584 1.42002584 1.42002584