 # File generated with Atomsk by inukai on 2024-10-10 17:24:19
  
         816  atoms
           1  atom types
 
      0.000000000000      51.356652000000  xlo xhi
      0.000000000000      49.563500000000  ylo yhi
      0.000000000000      25.000000000000  zlo zhi
 
Masses
 
            1   10.81000000             # B
 
Atoms # charge
 
         1    1   0.000000        0.819814795318       1.457750000000      12.500000000000
         2    1   0.000000        5.937411013256       1.457750000000      12.500000000000
         3    1   0.000000        2.585901582062       1.457750000000      12.500000000000
         4    1   0.000000        7.703497800000       1.457750000000      12.500000000000
         5    1   0.000000        5.089889304184       0.000000000000      12.500000000000
         6    1   0.000000        3.433423291134       0.000000000000      12.500000000000
         7    1   0.000000        1.702858188690       0.000000000000      12.500000000000
         8    1   0.000000        6.820454406628       0.000000000000      12.500000000000
         9    1   0.000000        9.379256795318       1.457750000000      12.500000000000
        10    1   0.000000       14.496853013256       1.457750000000      12.500000000000
        11    1   0.000000       11.145343582062       1.457750000000      12.500000000000
        12    1   0.000000       16.262939800000       1.457750000000      12.500000000000
        13    1   0.000000       13.649331304184       0.000000000000      12.500000000000
        14    1   0.000000       11.992865291134       0.000000000000      12.500000000000
        15    1   0.000000       10.262300188690       0.000000000000      12.500000000000
        16    1   0.000000       15.379896406628       0.000000000000      12.500000000000
        17    1   0.000000       17.938698795318       1.457750000000      12.500000000000
        18    1   0.000000       23.056295013256       1.457750000000      12.500000000000
        19    1   0.000000       19.704785582062       1.457750000000      12.500000000000
        20    1   0.000000       24.822381800000       1.457750000000      12.500000000000
        21    1   0.000000       22.208773304184       0.000000000000      12.500000000000
        22    1   0.000000       20.552307291134       0.000000000000      12.500000000000
        23    1   0.000000       18.821742188690       0.000000000000      12.500000000000
        24    1   0.000000       23.939338406628       0.000000000000      12.500000000000
        25    1   0.000000       26.498140795318       1.457750000000      12.500000000000
        26    1   0.000000       31.615737013256       1.457750000000      12.500000000000
        27    1   0.000000       28.264227582062       1.457750000000      12.500000000000
        28    1   0.000000       33.381823800000       1.457750000000      12.500000000000
        29    1   0.000000       30.768215304184       0.000000000000      12.500000000000
        30    1   0.000000       29.111749291134       0.000000000000      12.500000000000
        31    1   0.000000       27.381184188690       0.000000000000      12.500000000000
        32    1   0.000000       32.498780406628       0.000000000000      12.500000000000
        33    1   0.000000       35.057582795318       1.457750000000      12.500000000000
        34    1   0.000000       40.175179013256       1.457750000000      12.500000000000
        35    1   0.000000       36.823669582062       1.457750000000      12.500000000000
        36    1   0.000000       41.941265800000       1.457750000000      12.500000000000
        37    1   0.000000       39.327657304184       0.000000000000      12.500000000000
        38    1   0.000000       37.671191291134       0.000000000000      12.500000000000
        39    1   0.000000       35.940626188690       0.000000000000      12.500000000000
        40    1   0.000000       41.058222406628       0.000000000000      12.500000000000
        41    1   0.000000       43.617024795318       1.457750000000      12.500000000000
        42    1   0.000000       48.734621013256       1.457750000000      12.500000000000
        43    1   0.000000       45.383111582062       1.457750000000      12.500000000000
        44    1   0.000000       50.500707800000       1.457750000000      12.500000000000
        45    1   0.000000       47.887099304184       0.000000000000      12.500000000000
        46    1   0.000000       46.230633291134       0.000000000000      12.500000000000
        47    1   0.000000       44.500068188690       0.000000000000      12.500000000000
        48    1   0.000000       49.617664406628       0.000000000000      12.500000000000
        49    1   0.000000        0.819814795318       4.373250000000      12.500000000000
        50    1   0.000000        5.937411013256       4.373250000000      12.500000000000
        51    1   0.000000        2.585901582062       4.373250000000      12.500000000000
        52    1   0.000000        7.703497800000       4.373250000000      12.500000000000
        53    1   0.000000        5.089889304184       2.915500000000      12.500000000000
        54    1   0.000000        3.433423291134       2.915500000000      12.500000000000
        55    1   0.000000        1.702858188690       2.915500000000      12.500000000000
        56    1   0.000000        6.820454406628       2.915500000000      12.500000000000
        57    1   0.000000        9.379256795318       4.373250000000      12.500000000000
        58    1   0.000000       14.496853013256       4.373250000000      12.500000000000
        59    1   0.000000       11.145343582062       4.373250000000      12.500000000000
        60    1   0.000000       16.262939800000       4.373250000000      12.500000000000
        61    1   0.000000       13.649331304184       2.915500000000      12.500000000000
        62    1   0.000000       11.992865291134       2.915500000000      12.500000000000
        63    1   0.000000       10.262300188690       2.915500000000      12.500000000000
        64    1   0.000000       15.379896406628       2.915500000000      12.500000000000
        65    1   0.000000       17.938698795318       4.373250000000      12.500000000000
        66    1   0.000000       23.056295013256       4.373250000000      12.500000000000
        67    1   0.000000       19.704785582062       4.373250000000      12.500000000000
        68    1   0.000000       24.822381800000       4.373250000000      12.500000000000
        69    1   0.000000       22.208773304184       2.915500000000      12.500000000000
        70    1   0.000000       20.552307291134       2.915500000000      12.500000000000
        71    1   0.000000       18.821742188690       2.915500000000      12.500000000000
        72    1   0.000000       23.939338406628       2.915500000000      12.500000000000
        73    1   0.000000       26.498140795318       4.373250000000      12.500000000000
        74    1   0.000000       31.615737013256       4.373250000000      12.500000000000
        75    1   0.000000       28.264227582062       4.373250000000      12.500000000000
        76    1   0.000000       33.381823800000       4.373250000000      12.500000000000
        77    1   0.000000       30.768215304184       2.915500000000      12.500000000000
        78    1   0.000000       29.111749291134       2.915500000000      12.500000000000
        79    1   0.000000       27.381184188690       2.915500000000      12.500000000000
        80    1   0.000000       32.498780406628       2.915500000000      12.500000000000
        81    1   0.000000       35.057582795318       4.373250000000      12.500000000000
        82    1   0.000000       40.175179013256       4.373250000000      12.500000000000
        83    1   0.000000       36.823669582062       4.373250000000      12.500000000000
        84    1   0.000000       41.941265800000       4.373250000000      12.500000000000
        85    1   0.000000       39.327657304184       2.915500000000      12.500000000000
        86    1   0.000000       37.671191291134       2.915500000000      12.500000000000
        87    1   0.000000       35.940626188690       2.915500000000      12.500000000000
        88    1   0.000000       41.058222406628       2.915500000000      12.500000000000
        89    1   0.000000       43.617024795318       4.373250000000      12.500000000000
        90    1   0.000000       48.734621013256       4.373250000000      12.500000000000
        91    1   0.000000       45.383111582062       4.373250000000      12.500000000000
        92    1   0.000000       50.500707800000       4.373250000000      12.500000000000
        93    1   0.000000       47.887099304184       2.915500000000      12.500000000000
        94    1   0.000000       46.230633291134       2.915500000000      12.500000000000
        95    1   0.000000       44.500068188690       2.915500000000      12.500000000000
        96    1   0.000000       49.617664406628       2.915500000000      12.500000000000
        97    1   0.000000        0.819814795318       7.288750000000      12.500000000000
        98    1   0.000000        5.937411013256       7.288750000000      12.500000000000
        99    1   0.000000        2.585901582062       7.288750000000      12.500000000000
       100    1   0.000000        7.703497800000       7.288750000000      12.500000000000
       101    1   0.000000        5.089889304184       5.831000000000      12.500000000000
       102    1   0.000000        3.433423291134       5.831000000000      12.500000000000
       103    1   0.000000        1.702858188690       5.831000000000      12.500000000000
       104    1   0.000000        6.820454406628       5.831000000000      12.500000000000
       105    1   0.000000        9.379256795318       7.288750000000      12.500000000000
       106    1   0.000000       14.496853013256       7.288750000000      12.500000000000
       107    1   0.000000       11.145343582062       7.288750000000      12.500000000000
       108    1   0.000000       16.262939800000       7.288750000000      12.500000000000
       109    1   0.000000       13.649331304184       5.831000000000      12.500000000000
       110    1   0.000000       11.992865291134       5.831000000000      12.500000000000
       111    1   0.000000       10.262300188690       5.831000000000      12.500000000000
       112    1   0.000000       15.379896406628       5.831000000000      12.500000000000
       113    1   0.000000       17.938698795318       7.288750000000      12.500000000000
       114    1   0.000000       23.056295013256       7.288750000000      12.500000000000
       115    1   0.000000       19.704785582062       7.288750000000      12.500000000000
       116    1   0.000000       24.822381800000       7.288750000000      12.500000000000
       117    1   0.000000       22.208773304184       5.831000000000      12.500000000000
       118    1   0.000000       20.552307291134       5.831000000000      12.500000000000
       119    1   0.000000       18.821742188690       5.831000000000      12.500000000000
       120    1   0.000000       23.939338406628       5.831000000000      12.500000000000
       121    1   0.000000       26.498140795318       7.288750000000      12.500000000000
       122    1   0.000000       31.615737013256       7.288750000000      12.500000000000
       123    1   0.000000       28.264227582062       7.288750000000      12.500000000000
       124    1   0.000000       33.381823800000       7.288750000000      12.500000000000
       125    1   0.000000       30.768215304184       5.831000000000      12.500000000000
       126    1   0.000000       29.111749291134       5.831000000000      12.500000000000
       127    1   0.000000       27.381184188690       5.831000000000      12.500000000000
       128    1   0.000000       32.498780406628       5.831000000000      12.500000000000
       129    1   0.000000       35.057582795318       7.288750000000      12.500000000000
       130    1   0.000000       40.175179013256       7.288750000000      12.500000000000
       131    1   0.000000       36.823669582062       7.288750000000      12.500000000000
       132    1   0.000000       41.941265800000       7.288750000000      12.500000000000
       133    1   0.000000       39.327657304184       5.831000000000      12.500000000000
       134    1   0.000000       37.671191291134       5.831000000000      12.500000000000
       135    1   0.000000       35.940626188690       5.831000000000      12.500000000000
       136    1   0.000000       41.058222406628       5.831000000000      12.500000000000
       137    1   0.000000       43.617024795318       7.288750000000      12.500000000000
       138    1   0.000000       48.734621013256       7.288750000000      12.500000000000
       139    1   0.000000       45.383111582062       7.288750000000      12.500000000000
       140    1   0.000000       50.500707800000       7.288750000000      12.500000000000
       141    1   0.000000       47.887099304184       5.831000000000      12.500000000000
       142    1   0.000000       46.230633291134       5.831000000000      12.500000000000
       143    1   0.000000       44.500068188690       5.831000000000      12.500000000000
       144    1   0.000000       49.617664406628       5.831000000000      12.500000000000
       145    1   0.000000        0.819814795318      10.204250000000      12.500000000000
       146    1   0.000000        5.937411013256      10.204250000000      12.500000000000
       147    1   0.000000        2.585901582062      10.204250000000      12.500000000000
       148    1   0.000000        7.703497800000      10.204250000000      12.500000000000
       149    1   0.000000        5.089889304184       8.746500000000      12.500000000000
       150    1   0.000000        3.433423291134       8.746500000000      12.500000000000
       151    1   0.000000        1.702858188690       8.746500000000      12.500000000000
       152    1   0.000000        6.820454406628       8.746500000000      12.500000000000
       153    1   0.000000        9.379256795318      10.204250000000      12.500000000000
       154    1   0.000000       14.496853013256      10.204250000000      12.500000000000
       155    1   0.000000       11.145343582062      10.204250000000      12.500000000000
       156    1   0.000000       16.262939800000      10.204250000000      12.500000000000
       157    1   0.000000       13.649331304184       8.746500000000      12.500000000000
       158    1   0.000000       11.992865291134       8.746500000000      12.500000000000
       159    1   0.000000       10.262300188690       8.746500000000      12.500000000000
       160    1   0.000000       15.379896406628       8.746500000000      12.500000000000
       161    1   0.000000       17.938698795318      10.204250000000      12.500000000000
       162    1   0.000000       23.056295013256      10.204250000000      12.500000000000
       163    1   0.000000       19.704785582062      10.204250000000      12.500000000000
       164    1   0.000000       24.822381800000      10.204250000000      12.500000000000
       165    1   0.000000       22.208773304184       8.746500000000      12.500000000000
       166    1   0.000000       20.552307291134       8.746500000000      12.500000000000
       167    1   0.000000       18.821742188690       8.746500000000      12.500000000000
       168    1   0.000000       23.939338406628       8.746500000000      12.500000000000
       169    1   0.000000       26.498140795318      10.204250000000      12.500000000000
       170    1   0.000000       31.615737013256      10.204250000000      12.500000000000
       171    1   0.000000       28.264227582062      10.204250000000      12.500000000000
       172    1   0.000000       33.381823800000      10.204250000000      12.500000000000
       173    1   0.000000       30.768215304184       8.746500000000      12.500000000000
       174    1   0.000000       29.111749291134       8.746500000000      12.500000000000
       175    1   0.000000       27.381184188690       8.746500000000      12.500000000000
       176    1   0.000000       32.498780406628       8.746500000000      12.500000000000
       177    1   0.000000       35.057582795318      10.204250000000      12.500000000000
       178    1   0.000000       40.175179013256      10.204250000000      12.500000000000
       179    1   0.000000       36.823669582062      10.204250000000      12.500000000000
       180    1   0.000000       41.941265800000      10.204250000000      12.500000000000
       181    1   0.000000       39.327657304184       8.746500000000      12.500000000000
       182    1   0.000000       37.671191291134       8.746500000000      12.500000000000
       183    1   0.000000       35.940626188690       8.746500000000      12.500000000000
       184    1   0.000000       41.058222406628       8.746500000000      12.500000000000
       185    1   0.000000       43.617024795318      10.204250000000      12.500000000000
       186    1   0.000000       48.734621013256      10.204250000000      12.500000000000
       187    1   0.000000       45.383111582062      10.204250000000      12.500000000000
       188    1   0.000000       50.500707800000      10.204250000000      12.500000000000
       189    1   0.000000       47.887099304184       8.746500000000      12.500000000000
       190    1   0.000000       46.230633291134       8.746500000000      12.500000000000
       191    1   0.000000       44.500068188690       8.746500000000      12.500000000000
       192    1   0.000000       49.617664406628       8.746500000000      12.500000000000
       193    1   0.000000        0.819814795318      13.119750000000      12.500000000000
       194    1   0.000000        5.937411013256      13.119750000000      12.500000000000
       195    1   0.000000        2.585901582062      13.119750000000      12.500000000000
       196    1   0.000000        7.703497800000      13.119750000000      12.500000000000
       197    1   0.000000        5.089889304184      11.662000000000      12.500000000000
       198    1   0.000000        3.433423291134      11.662000000000      12.500000000000
       199    1   0.000000        1.702858188690      11.662000000000      12.500000000000
       200    1   0.000000        6.820454406628      11.662000000000      12.500000000000
       201    1   0.000000        9.379256795318      13.119750000000      12.500000000000
       202    1   0.000000       14.496853013256      13.119750000000      12.500000000000
       203    1   0.000000       11.145343582062      13.119750000000      12.500000000000
       204    1   0.000000       16.262939800000      13.119750000000      12.500000000000
       205    1   0.000000       13.649331304184      11.662000000000      12.500000000000
       206    1   0.000000       11.992865291134      11.662000000000      12.500000000000
       207    1   0.000000       10.262300188690      11.662000000000      12.500000000000
       208    1   0.000000       15.379896406628      11.662000000000      12.500000000000
       209    1   0.000000       17.938698795318      13.119750000000      12.500000000000
       210    1   0.000000       23.056295013256      13.119750000000      12.500000000000
       211    1   0.000000       19.704785582062      13.119750000000      12.500000000000
       212    1   0.000000       24.822381800000      13.119750000000      12.500000000000
       213    1   0.000000       22.208773304184      11.662000000000      12.500000000000
       214    1   0.000000       20.552307291134      11.662000000000      12.500000000000
       215    1   0.000000       18.821742188690      11.662000000000      12.500000000000
       216    1   0.000000       23.939338406628      11.662000000000      12.500000000000
       217    1   0.000000       26.498140795318      13.119750000000      12.500000000000
       218    1   0.000000       31.615737013256      13.119750000000      12.500000000000
       219    1   0.000000       28.264227582062      13.119750000000      12.500000000000
       220    1   0.000000       33.381823800000      13.119750000000      12.500000000000
       221    1   0.000000       30.768215304184      11.662000000000      12.500000000000
       222    1   0.000000       29.111749291134      11.662000000000      12.500000000000
       223    1   0.000000       27.381184188690      11.662000000000      12.500000000000
       224    1   0.000000       32.498780406628      11.662000000000      12.500000000000
       225    1   0.000000       35.057582795318      13.119750000000      12.500000000000
       226    1   0.000000       40.175179013256      13.119750000000      12.500000000000
       227    1   0.000000       36.823669582062      13.119750000000      12.500000000000
       228    1   0.000000       41.941265800000      13.119750000000      12.500000000000
       229    1   0.000000       39.327657304184      11.662000000000      12.500000000000
       230    1   0.000000       37.671191291134      11.662000000000      12.500000000000
       231    1   0.000000       35.940626188690      11.662000000000      12.500000000000
       232    1   0.000000       41.058222406628      11.662000000000      12.500000000000
       233    1   0.000000       43.617024795318      13.119750000000      12.500000000000
       234    1   0.000000       48.734621013256      13.119750000000      12.500000000000
       235    1   0.000000       45.383111582062      13.119750000000      12.500000000000
       236    1   0.000000       50.500707800000      13.119750000000      12.500000000000
       237    1   0.000000       47.887099304184      11.662000000000      12.500000000000
       238    1   0.000000       46.230633291134      11.662000000000      12.500000000000
       239    1   0.000000       44.500068188690      11.662000000000      12.500000000000
       240    1   0.000000       49.617664406628      11.662000000000      12.500000000000
       241    1   0.000000        0.819814795318      16.035250000000      12.500000000000
       242    1   0.000000        5.937411013256      16.035250000000      12.500000000000
       243    1   0.000000        2.585901582062      16.035250000000      12.500000000000
       244    1   0.000000        7.703497800000      16.035250000000      12.500000000000
       245    1   0.000000        5.089889304184      14.577500000000      12.500000000000
       246    1   0.000000        3.433423291134      14.577500000000      12.500000000000
       247    1   0.000000        1.702858188690      14.577500000000      12.500000000000
       248    1   0.000000        6.820454406628      14.577500000000      12.500000000000
       249    1   0.000000        9.379256795318      16.035250000000      12.500000000000
       250    1   0.000000       14.496853013256      16.035250000000      12.500000000000
       251    1   0.000000       11.145343582062      16.035250000000      12.500000000000
       252    1   0.000000       16.262939800000      16.035250000000      12.500000000000
       253    1   0.000000       13.649331304184      14.577500000000      12.500000000000
       254    1   0.000000       11.992865291134      14.577500000000      12.500000000000
       255    1   0.000000       10.262300188690      14.577500000000      12.500000000000
       256    1   0.000000       15.379896406628      14.577500000000      12.500000000000
       257    1   0.000000       17.938698795318      16.035250000000      12.500000000000
       258    1   0.000000       23.056295013256      16.035250000000      12.500000000000
       259    1   0.000000       19.704785582062      16.035250000000      12.500000000000
       260    1   0.000000       24.822381800000      16.035250000000      12.500000000000
       261    1   0.000000       22.208773304184      14.577500000000      12.500000000000
       262    1   0.000000       20.552307291134      14.577500000000      12.500000000000
       263    1   0.000000       18.821742188690      14.577500000000      12.500000000000
       264    1   0.000000       23.939338406628      14.577500000000      12.500000000000
       265    1   0.000000       26.498140795318      16.035250000000      12.500000000000
       266    1   0.000000       31.615737013256      16.035250000000      12.500000000000
       267    1   0.000000       28.264227582062      16.035250000000      12.500000000000
       268    1   0.000000       33.381823800000      16.035250000000      12.500000000000
       269    1   0.000000       30.768215304184      14.577500000000      12.500000000000
       270    1   0.000000       29.111749291134      14.577500000000      12.500000000000
       271    1   0.000000       27.381184188690      14.577500000000      12.500000000000
       272    1   0.000000       32.498780406628      14.577500000000      12.500000000000
       273    1   0.000000       35.057582795318      16.035250000000      12.500000000000
       274    1   0.000000       40.175179013256      16.035250000000      12.500000000000
       275    1   0.000000       36.823669582062      16.035250000000      12.500000000000
       276    1   0.000000       41.941265800000      16.035250000000      12.500000000000
       277    1   0.000000       39.327657304184      14.577500000000      12.500000000000
       278    1   0.000000       37.671191291134      14.577500000000      12.500000000000
       279    1   0.000000       35.940626188690      14.577500000000      12.500000000000
       280    1   0.000000       41.058222406628      14.577500000000      12.500000000000
       281    1   0.000000       43.617024795318      16.035250000000      12.500000000000
       282    1   0.000000       48.734621013256      16.035250000000      12.500000000000
       283    1   0.000000       45.383111582062      16.035250000000      12.500000000000
       284    1   0.000000       50.500707800000      16.035250000000      12.500000000000
       285    1   0.000000       47.887099304184      14.577500000000      12.500000000000
       286    1   0.000000       46.230633291134      14.577500000000      12.500000000000
       287    1   0.000000       44.500068188690      14.577500000000      12.500000000000
       288    1   0.000000       49.617664406628      14.577500000000      12.500000000000
       289    1   0.000000        0.819814795318      18.950750000000      12.500000000000
       290    1   0.000000        5.937411013256      18.950750000000      12.500000000000
       291    1   0.000000        2.585901582062      18.950750000000      12.500000000000
       292    1   0.000000        7.703497800000      18.950750000000      12.500000000000
       293    1   0.000000        5.089889304184      17.493000000000      12.500000000000
       294    1   0.000000        3.433423291134      17.493000000000      12.500000000000
       295    1   0.000000        1.702858188690      17.493000000000      12.500000000000
       296    1   0.000000        6.820454406628      17.493000000000      12.500000000000
       297    1   0.000000        9.379256795318      18.950750000000      12.500000000000
       298    1   0.000000       14.496853013256      18.950750000000      12.500000000000
       299    1   0.000000       11.145343582062      18.950750000000      12.500000000000
       300    1   0.000000       16.262939800000      18.950750000000      12.500000000000
       301    1   0.000000       13.649331304184      17.493000000000      12.500000000000
       302    1   0.000000       11.992865291134      17.493000000000      12.500000000000
       303    1   0.000000       10.262300188690      17.493000000000      12.500000000000
       304    1   0.000000       15.379896406628      17.493000000000      12.500000000000
       305    1   0.000000       17.938698795318      18.950750000000      12.500000000000
       306    1   0.000000       23.056295013256      18.950750000000      12.500000000000
       307    1   0.000000       19.704785582062      18.950750000000      12.500000000000
       308    1   0.000000       24.822381800000      18.950750000000      12.500000000000
       309    1   0.000000       22.208773304184      17.493000000000      12.500000000000
       310    1   0.000000       20.552307291134      17.493000000000      12.500000000000
       311    1   0.000000       18.821742188690      17.493000000000      12.500000000000
       312    1   0.000000       23.939338406628      17.493000000000      12.500000000000
       313    1   0.000000       26.498140795318      18.950750000000      12.500000000000
       314    1   0.000000       31.615737013256      18.950750000000      12.500000000000
       315    1   0.000000       28.264227582062      18.950750000000      12.500000000000
       316    1   0.000000       33.381823800000      18.950750000000      12.500000000000
       317    1   0.000000       30.768215304184      17.493000000000      12.500000000000
       318    1   0.000000       29.111749291134      17.493000000000      12.500000000000
       319    1   0.000000       27.381184188690      17.493000000000      12.500000000000
       320    1   0.000000       32.498780406628      17.493000000000      12.500000000000
       321    1   0.000000       35.057582795318      18.950750000000      12.500000000000
       322    1   0.000000       40.175179013256      18.950750000000      12.500000000000
       323    1   0.000000       36.823669582062      18.950750000000      12.500000000000
       324    1   0.000000       41.941265800000      18.950750000000      12.500000000000
       325    1   0.000000       39.327657304184      17.493000000000      12.500000000000