ITEM: TIMESTEP
0
ITEM: NUMBER OF ATOMS
18000
ITEM: BOX BOUNDS pp pp pp
3.3952065412851340e-02 2.7307047934587100e+01
3.6923672348315506e-02 2.7304076327651558e+01
1.5817063446667134e-01 3.2793382936553655e+02
ITEM: ATOMS id type x y z c_peratom fx fy fz 
362 3 5.35164 5.30679 5.83096 -28.2759 0.136254 -0.786901 0.837992 
1801 2 5.58658 2.70403 2.73304 -24.1273 -0.234141 0.122312 0.204885 
3061 3 2.72257 5.06372 3.02856 -28.4471 0.788221 1.99916 -2.98988 
4502 2 2.71456 2.72921 5.56724 -25.5111 -0.430098 -0.179608 0.690256 
15001 1 1.20076 4.14049 3.99339 -8.41578 1.04703 0.587748 0.332564 
16502 1 3.99646 1.87773 3.82318 -7.16815 -1.91311 -1.81978 0.710248 
10860 1 3.94407 4.27366 4.43714 -7.60561 -0.233837 1.31097 0.830842 
13560 1 0.949843 3.99375 1.21146 -7.019 -0.419414 -1.3107 2.74424 
17702 1 1.15323 1.54695 4.7246 -6.7712 -0.218401 0.358342 -1.92132 
12960 1 1.52179 1.47088 1.91502 -8.17614 0.829771 -0.355696 -0.940083 
6422 1 6.65661 3.93494 4.38288 -8.35284 -0.953877 4.94799 -2.49562 
7502 1 6.73835 1.50489 4.61911 -7.83667 -1.72149 -4.46443 -0.884088 
10201 1 4.44634 1.22054 1.309 -7.98598 -1.39994 -1.75224 0.224159 
3001 3 3.04842 0.156612 2.60011 -28.0836 -0.755305 0.0233165 2.25589 
7801 1 3.951 1.3487 6.75191 -7.67778 0.611442 -3.88897 0.0445005 
15660 1 3.85869 3.74708 1.46255 -7.72894 1.42114 0.978258 1.23828 
62 2 0.232015 5.57732 5.56122 -24.377 -0.343726 0.0720188 0.239387 
16560 1 4.46474 6.13605 2.41794 -6.33238 -0.99792 1.09675 -1.11881 
9060 1 1.58239 6.45721 1.48096 -7.4248 -0.409698 2.60053 0.772504 
9002 1 2.05093 6.0785 6.50359 -7.84805 1.28739 0.420379 1.24475 
1 3 0.202331 0.216465 0.232185 -27.6473 -0.633987 -1.58622 0.60585 
15541 1 7.01255 1.20996 1.39966 -8.62986 1.12398 1.27041 1.35249 
10801 1 9.38792 1.66282 4.22315 -6.99104 0.528832 -3.62326 0.00532755 
662 2 11.0445 5.77832 6.27334 -25.1074 -0.833815 -2.62132 0.0304295 
2101 3 11.1352 2.606 3.15112 -28.2608 -1.98964 1.14159 -0.158054 
3361 3 7.86942 5.5487 2.89239 -26.4752 1.71126 0.377751 1.51471 
4802 2 8.03649 2.89425 5.54311 -24.8184 6.46279 -0.416754 -0.346602 
7860 1 11.823 4.09351 1.48177 -7.42313 -0.222024 -0.810787 1.02307 
16801 1 9.18816 5.96897 1.13749 -8.97306 -1.17121 0.321468 1.41678 
17101 1 9.499 3.93544 3.93618 -6.05505 -2.18136 1.98739 -1.58641 
12360 1 11.0155 0.470944 2.63075 -6.45091 1.08528 0.610657 -0.14435 
5102 2 13.5779 2.87443 5.88314 -24.789 5.1154 4.07022 -1.00389 
11520 1 13.1377 1.04563 0.831977 -6.88837 -1.89635 0.793915 0.337917 
16800 1 9.76239 2.10059 0.841721 -7.78587 0.0874122 0.0804771 1.69167 
602 2 10.6123 0.163091 5.52143 -24.3471 0.800146 0.822216 0.91848 
17042 1 12.0457 1.92708 6.66819 -6.34078 -4.65877 -4.68836 0.653767 
12362 1 11.9868 4.42851 4.63841 -7.3036 1.47548 -0.948018 -0.58878 
3661 2 13.2932 5.69416 3.28887 -25.8974 2.3694 -0.894655 -1.00295 
14161 1 11.9794 6.83404 1.89272 -8.13687 -2.08483 0.807492 -0.0242866 
16919 1 6.97901 4.2107 1.43328 -10.0938 -0.400813 -0.864071 0.981927 
6602 1 9.64749 6.51839 4.52102 -7.38803 -1.12934 0.781018 -0.794062 
12481 1 12.775 1.72957 4.26178 -8.21455 0.336341 -1.51303 -3.15041 
12662 1 9.27374 1.52605 6.90793 -7.38799 -1.45807 -3.77039 -0.179933 
5101 2 13.6187 3.05284 0.309128 -25.4048 2.30906 1.34137 -0.108924 
3601 2 13.8056 0.149462 2.78603 -24.5786 -2.8469 1.00935 -1.80286 
12660 1 14.4461 3.83912 2.23546 -6.685 0.153559 -0.322633 -0.741617 
11101 1 16.0089 1.90216 4.75842 -7.14253 -2.12284 -0.409022 0.593158 
14102 1 14.7789 4.62387 4.68373 -6.91738 0.280515 -0.938894 1.97866 
962 2 16.7042 5.44926 5.91886 -24.9639 -1.59141 -1.26339 -3.2859 
2401 3 16.6056 2.78932 3.15685 -27.789 -0.276208 0.0117833 -0.819234 
3961 3 19.0337 5.23209 2.63628 -29.1641 1.61801 3.72965 1.42894 
5402 2 19.1589 2.45745 5.88703 -24.6956 -0.337726 3.55717 2.57974 
6901 1 18.176 3.96604 4.73959 -7.84926 -1.1394 1.31872 -3.57899 
11460 1 18.1852 1.46498 1.96028 -7.38057 1.25016 4.08498 -2.53414 
11341 1 15.4036 1.38742 1.78641 -7.51388 2.12079 -0.22338 0.944648 
7201 1 18.4183 1.21511 4.42517 -7.41937 1.16205 -2.87057 -0.346941 
11880 1 20.272 6.11581 0.895368 -7.04107 0.813988 -1.24831 0.592849 
8101 1 20.3618 3.56461 2.05682 -7.80782 -2.52254 -0.196656 0.839424 
12901 1 17.4101 4.64723 1.65214 -7.80107 -0.172766 -5.68863 0.291607 
14101 1 14.5644 6.61466 1.29537 -6.45126 1.34427 -1.58045 1.87509 
17462 1 16.978 6.37938 3.91884 -6.16931 0.576043 -1.91938 1.68534 
5401 2 19.6144 2.36667 0.250617 -22.5835 -4.31739 2.58704 1.0851 
3901 3 19.6454 0.0710374 2.83131 -26.9446 -4.41337 0.946764 3.10359 
16562 1 20.3552 4.40033 6.73222 -6.60379 -2.61313 -0.103452 -0.0150887 
8162 1 15.3064 6.83137 6.63058 -7.40945 0.0160604 1.7927 0.705154 
11761 1 18.502 6.46731 6.69283 -8.36779 -0.963801 1.71365 -0.904975 
901 3 16.3739 0.115728 0.255941 -27.908 -1.17074 2.74947 0.692342 
14941 1 26.098 6.4384 4.06158 -8.02405 -0.212419 -0.610343 -1.28249 
7261 1 21.0924 5.61019 3.85796 -6.28208 -0.172231 -3.34322 -1.50597 
10141 1 21.3611 0.819197 2.57088 -8.80711 1.19966 0.64847 -1.05934 
11820 1 23.6418 2.21893 1.81691 -7.12658 0.367704 -0.750219 3.21542 
8641 1 21.0884 2.68365 4.73736 -7.781 0.1203 -1.0633 0.459101 
11401 1 23.4004 1.26952 4.40859 -8.36911 1.0517 0.447221 0.110071 
1501 2 27.1195 2.68854 3.00302 -24.6816 0.762442 -1.25306 -0.429281 
12001 1 25.5813 4.15173 1.81975 -8.65638 1.84742 0.728122 0.344551 
11701 1 23.8141 6.48032 6.83078 -8.39538 -0.139145 0.211711 0.160542 
1262 3 22.0437 5.32996 5.69738 -29.0614 -0.453059 -0.199635 -1.37329 
2701 3 22.1765 2.92945 3.08972 -28.5665 -0.0890493 1.17474 -1.4838 
4261 3 24.1998 5.74554 2.46396 -27.3231 2.28919 0.220987 5.28014 
5702 2 24.6183 2.72159 5.93533 -23.632 -2.02076 0.00743923 -0.0829381 
8701 1 26.3122 3.82315 5.40434 -7.53123 -0.0548472 -0.921314 -1.95251 
10441 1 26.16 1.21734 1.35066 -7.92824 -0.196989 1.81418 -0.36037 
13020 1 23.6231 4.39183 4.45439 -7.88134 -0.500931 -3.8803 0.840183 
2 3 27.2326 0.0407174 5.68877 -29.1363 1.96264 -0.919383 -1.05598 
1202 2 21.7785 0.287343 5.8529 -23.1774 1.04748 1.27957 -3.15266 
12962 1 23.0844 4.62148 1.54728 -8.09588 -1.49442 0.3775 -0.814917 
16201 1 23.3927 6.82235 4.043 -6.62581 0.808299 2.38613 2.32035 
61 3 26.9613 5.36376 0.493901 -28.1212 3.04593 0.854337 -1.68684 
17460 1 26.2675 0.625067 3.69894 -7.69403 -2.02569 -0.539249 1.94384 
4201 2 24.3937 0.226348 2.55683 -23.789 0.930803 0.691043 -1.34862 
12902 1 25.9237 1.14145 6.83004 -8.4303 -0.197756 0.741568 0.142884 
10861 1 6.46468 6.87316 3.85307 -7.99643 3.97894 -2.37739 2.09474 
4561 3 2.63402 8.08351 0.352917 -27.9795 0.45979 -2.27612 -0.421695 
15362 1 4.18897 6.9812 5.3118 -7.96826 -0.0766321 0.862562 -0.307678 
10262 1 1.43477 7.00231 3.98638 -7.81161 2.12559 -1.67521 1.28581 
7680 1 0.987849 12.8191 1.45459 -8.53048 -0.0356691 -1.35587 1.00574 
422 2 5.19376 11.2112 5.79483 -24.2026 0.314943 -1.96778 -0.263402 
1861 2 5.04122 8.40649 3.81242 -24.0511 -0.643578 0.846011 -2.12426 
3121 3 2.15286 11.3411 2.99452 -28.7786 1.72888 -2.0577 0.758952 
4562 2 2.39031 8.27517 5.69963 -24.9034 -1.70087 1.08281 1.11462 
7561 1 2.79496 9.27549 2.22511 -7.29758 -0.671731 -1.19415 -0.810719 
14761 1 3.5751 10.0386 4.76577 -8.22368 2.17798 -1.28648 -0.0315501 
15122 1 1.08674 12.1316 4.46653 -7.36475 -0.819952 2.10753 -1.06343 
13381 1 3.75422 12.6199 3.91535 -7.26372 0.225748 -0.539149 2.61265 
6062 1 0.943726 9.53939 4.52811 -6.56713 -0.584553 -0.31315 0.469996 
16501 1 0.272392 10.2836 2.06954 -8.76604 -0.636092 -0.235715 -1.98757 
10921 1 6.07082 9.36299 2.12825 -6.6403 -0.831498 0.656192 0.452234 
11040 1 6.76475 11.9784 1.21346 -8.44747 -2.10245 0.870578 0.48739 
1561 2 0.153384 8.18178 2.76762 -24.1375 0.210138 0.145114 1.65687 
17761 1 3.71308 11.9611 1.55624 -7.39083 0.415139 -0.743564 -2.50303 
4622 3 2.85529 13.6079 5.87995 -28.7122 -2.89596 -0.550603 -2.25679 
1921 2 5.30701 13.6403 2.60217 -23.9503 2.49508 -4.35456 2.97786 
121 3 0.11032 10.8427 0.196084 -26.6676 -1.21196 1.60296 -2.4729 
12121 1 5.93509 13.2223 5.73341 -7.16245 0.0375358 -0.367913 -0.702142 
11163 1 6.25481 8.69549 6.06092 -8.15881 0.319606 -0.0517622 -1.71301 
6361 1 8.60507 8.15049 2.8352 -6.71823 -0.590394 -3.39471 1.00034 
12062 1 7.03276 10.7791 4.54732 -7.09968 -2.6798 0.314589 0.496936 
721 2 11.2722 11.119 0.409616 -23.9758 -0.692764 -0.248681 -0.483823 
9061 1 9.93784 12.3189 4.32352 -7.35534 1.20524 -2.8285 0.995195 
15662 1 12.1175 7.07643 4.94631 -8.15814 1.2885 1.36609 -0.848794 
12480 1 7.91035 13.3121 3.25835 -6.69707 -3.16742 -1.65983 -0.784638 
7922 1 9.58147 9.65051 4.605 -7.34024 0.927009 -1.04239 0.807292 
16920 1 12.5387 9.41121 1.75962 -8.64477 -0.976827 1.13159 -1.93271 
10919 1 9.58518 12.3705 1.37653 -7.56881 1.32515 -1.59286 2.4902 
722 3 10.972 10.841 5.83092 -28.786 -0.887749 1.03385 -1.13126 
2161 3 11.0395 8.23176 3.25908 -27.5945 -1.44237 0.375336 0.687971 
3421 2 8.29855 11.0287 2.94383 -25.3615 1.29837 -0.195552 -1.19384 
4862 2 8.23809 7.91748 5.49893 -23.8759 0.341889 1.80669 -1.96353 
9421 1 12.7689 11.9957 4.64257 -6.89371 -0.633906 0.511503 1.32908 
17162 1 12.1548 9.64923 4.30376 -7.59327 -0.56583 -1.71308 -0.542132 
15360 1 9.57144 9.80353 1.58 -7.58332 3.34223 1.00907 -1.52509 
7980 1 12.2018 9.42661 6.85909 -7.59187 -3.64952 1.6559 0.535509 
2221 3 10.5037 13.5483 2.8647 -28.7221 2.81189 0.230191 0.717333 
5222 2 13.5186 13.501 5.95807 -24.3146 -0.940244 -0.338775 -2.39625 
4861 2 8.47035 8.05682 0.694216 -23.7548 -1.34711 2.93234 -0.889212 
4921 2 8.01195 13.5807 0.357215 -25.0718 2.73107 0.128222 -0.910106 
12419 1 12.5684 12.3487 1.98783 -7.03992 -4.03173 -1.89441 -1.92402 
1021 3 16.6872 10.8471 0.516478 -27.8374 -1.65558 0.112033 -0.943612 
5521 2 19.2165 13.5584 0.296079 -24.9071 1.53983 2.19404 -0.12975 
3721 3 13.6921 10.6135 3.10389 -28.4581 -2.1256 2.64299 -2.98775 
5162 3 13.6707 8.55362 5.80072 -28.9052 -0.181569 -2.6188 -1.24184 
5161 3 13.8611 8.20386 0.464777 -28.0511 -1.19673 -1.42492 -0.0590207 
12661 1 19.5606 7.4169 3.36566 -6.04605 -4.75937 -1.28572 0.810324 
13923 1 15.3957 12.9528 5.30369 -8.36912 3.28692 -1.53125 -1.42206 
6661 1 14.5089 7.49668 3.82045 -6.944 -1.0657 1.44893 0.533964 
14221 1 18.0034 12.4196 1.54823 -8.31707 -4.82874 -1.81294 1.725 
12780 1 15.236 9.2595 1.70832 -7.76651 -0.672637 1.16384 -0.11499 
6662 1 14.8722 11.8268 1.59269 -6.98853 3.32819 0.150641 0.847372 
15661 1 14.7211 10.1824 4.47033 -8.12436 4.18959 -0.823322 2.71378 
1022 3 16.3083 11.0021 5.77841 -27.8322 -0.186648 -1.36491 1.91213 
2461 3 16.4598 7.9936 2.7522 -30.3423 1.12087 -0.870278 1.69318 
4021 2 19.1135 11.0064 3.0673 -24.3087 -0.903179 -4.27521 0.939878 
5462 3 19.2831 8.04918 5.64185 -28.1787 -1.56352 0.0402488 -2.73451 
6781 1 17.6258 11.6163 4.40006 -8.61223 -2.12036 2.23257 0.132519 
9661 1 17.7541 6.92635 1.56309 -6.1353 -0.524442 1.94012 -2.49945 
6962 1 17.7571 9.60139 1.8816 -7.66106 1.23159 2.08829 -1.1536 
6961 1 20.0616 12.7613 4.10342 -7.25258 -0.891697 -1.19552 2.99751 
17582 1 17.6491 8.86881 4.5082 -6.48934 -0.602823 1.47044 1.90858 
13081 1 19.9437 11.9192 6.82933 -8.25665 2.88398 -0.549936 -1.76855 
2521 2 16.5197 13.5863 3.38343 -24.032 -0.68019 2.14163 -1.47717 
7439 1 20.3734 11.9753 1.8802 -6.0896 2.44242 0.996977 -5.64501 
17401 1 21.1838 7.22307 5.66473 -7.73471 0.135448 1.06461 2.90189 
8461 1 21.1756 9.14226 1.4554 -7.07104 -1.99128 0.159333 -1.05047 
7022 1 20.534 9.65005 4.24465 -8.36817 -1.91789 2.02811 2.75614 
8941 1 26.0214 7.16246 1.30974 -9.07704 0.548709 -0.0753798 3.06089 
12961 1 23.1835 7.32676 1.75318 -7.63246 -0.516802 -1.31499 -2.26669 
122 3 26.9378 10.8996 6.24089 -28.8049 4.84392 0.788688 -2.12315 
1321 2 22.0456 10.827 0.261002 -25.5052 -0.71875 1.63833 2.0131 
17461 1 25.5587 9.11305 3.72882 -7.70833 0.789445 -0.304691 -2.08264 
6121 1 23.944 9.84262 1.29477 -7.50246 2.14544 1.00261 0.21561 
17280 1 22.7358 12.3273 1.7696 -6.18539 2.52775 -0.603992 -0.707002 
16260 1 22.8034 12.3908 4.75997 -7.1691 -1.39091 1.3521 1.64519 
15061 1 23.0893 10.1186 4.22465 -5.88383 -0.00679071 -2.58987 -0.674882 
1322 3 21.5971 10.7953 5.71791 -27.8508 2.23499 -0.371507 -1.13112 
2761 2 21.4555 7.93594 3.24922 -25.7631 6.43991 -1.04326 0.0970088 
4321 3 24.6359 10.8264 3.07952 -29.0746 -2.52814 0.657908 1.03095 
5762 2 25.0546 7.83054 5.42061 -24.7667 -3.35762 0.865791 0.308445 
9961 1 25.3579 12.2528 1.70601 -8.07261 3.19884 -0.824801 0.608255 
7322 1 22.7496 9.27352 6.86139 -7.48034 0.559184 1.14775 0.293349 
1621 2 26.9686 13.6144 3.13668 -23.9424 1.59126 -0.951931 -0.561185 
5822 2 24.3517 13.5018 5.95007 -24.0271 0.782498 -0.740941 -0.996599 
5761 3 24.3335 8.12455 0.412896 -27.7482 -1.33798 1.05304 -3.96671 
17762 1 27.0438 7.70907 6.38598 -8.14245 -0.45147 -0.925833 0.0600903 
14762 1 25.3837 9.95695 6.25942 -7.48044 -2.42074 -2.37828 0.849427 
13562 1 25.6011 12.3089 4.41477 -8.383 0.55254 0.059752 0.76115 
16261 1 4.61022 15.0854 3.90825 -7.5009 -0.222658 4.28054 2.36366 
482 2 5.46455 16.3364 5.77793 -24.2087 -1.44195 -1.13587 0.300765 
1981 3 5.59945 18.8851 2.70998 -28.0338 -2.61821 3.00228 3.9229 
3181 3 2.49647 16.5577 3.15166 -27.7143 0.398932 -2.08289 -1.17653 
4682 3 2.33799 18.8491 5.50345 -27.9217 2.18209 2.40368 0.724558 
12181 1 1.7133 14.9572 4.55732 -7.22766 -0.00616331 0.712447 -2.12833 
7681 1 1.57291 15.5316 1.77488 -7.08001 -0.939823 0.327885 0.502277 
6241 1 4.28053 17.1661 1.65582 -8.17587 -1.86515 1.75802 2.49598 
16982 1 6.79468 17.6415 1.75474 -8.38179 1.77779 0.231996 0.525218 
15181 1 3.55068 17.7797 4.37946 -8.13073 1.05214 -1.62857 -1.6914 
6181 1 5.58729 19.8215 1.06016 -7.77363 3.08081 0.441849 -3.20991 
12240 1 3.44903 19.9084 2.12583 -7.03676 -2.31026 0.163114 0.675524 
9182 1 0.867737 17.7873 4.28269 -8.25973 2.44593 -2.01358 0.255397 
8882 1 1.49734 17.94 6.94212 -8.2563 -2.5744 -1.90965 1.57099 
1681 3 0.138499 19.0569 2.82446 -30.1708 -4.40482 2.62359 -0.195681 
4681 2 3.15585 18.731 0.383623 -24.8908 -2.74089 -0.337468 0.522951 
8881 1 4.31534 20.4003 4.40711 -6.60542 -2.90308 -1.62052 0.853463 
8940 1 1.26725 20.4062 4.39572 -8.17669 3.04806 -1.35982 0.847389 
12540 1 6.50451 20.2284 6.79542 -7.21915 1.74607 0.198389 -0.814265 
15180 1 1.26294 18.3231 1.45185 -6.94442 0.448164 -0.518462 3.61138 
13921 1 4.2173 14.5343 1.19683 -7.83449 -1.87555 0.838508 -4.25145 
481 3 5.42625 16.1029 0.429357 -28.1362 1.03262 -0.00722213 -0.587542 
16682 1 4.10183 17.7752 6.91707 -7.11937 -1.78637 -2.82319 -0.714359 
16681 1 4.04096 14.7242 6.91033 -7.96069 1.2395 2.44874 1.59618 
13321 1 1.44848 15.0035 6.94901 -6.88892 1.53908 1.62605 1.66609 
10981 1 9.44466 17.6163 1.9681 -9.01481 0.162982 -2.02693 -1.19203 
5281 3 13.4344 19.3078 0.74614 -28.8042 1.28833 -2.20462 -1.79309 
15540 1 6.86354 15.184 1.83689 -8.23784 0.159414 -1.08074 -0.642543 
4922 3 8.14949 13.7623 5.46243 -29.3754 0.218837 -3.5591 2.7258 
6482 1 6.97413 18.4667 4.48476 -8.24841 -1.98508 -3.3913 -1.05668 
15361 1 9.47171 14.72 4.35391 -7.59242 4.92557 4.69503 -1.95238 
8221 1 12.3909 14.907 1.76584 -6.51443 -0.764589 2.42978 -1.65707 
12721 1 9.61537 17.7536 4.58391 -8.6623 0.39568 -3.72576 -0.858718 
15479 1 9.89085 14.8167 1.44923 -7.83473 -2.44899 2.19032 0.241226 
13861 1 12.3462 14.8279 4.22122 -6.98577 -2.34042 -1.99852 2.34815 
782 3 10.9015 16.0821 5.28073 -28.2361 -0.135781 -1.06139 3.36857 
2281 2 10.8659 18.9784 2.92877 -23.5643 -0.762503 -2.32933 1.14903 
3481 3 8.12445 16.4036 3.44523 -26.5918 0.25895 -0.0658353 -2.84742 
4982 3 8.58545 19.2616 5.25119 -27.3527 -1.074 0.94852 4.12785 
14281 1 8.99257 19.9957 3.53916 -7.69186 0.117288 1.85319 -1.40837 
3781 3 13.5841 16.1434 3.0631 -29.0609 -0.422963 -0.179968 -1.41586 
5282 2 13.2275 19.1635 5.18644 -24.7189 6.2849 -2.04501 2.13311 
11221 1 11.9661 17.8005 0.7269 -7.76666 -2.60081 -0.288769 0.363074 
6722 1 12.2539 17.1996 4.56863 -7.10684 -1.70234 2.1528 -4.11677 
11281 1 13.1232 18.8042 2.81569 -8.04419 0.928107 1.1363 1.91578 
12182 1 7.39581 15.4884 5.02154 -8.2078 -3.5643 4.2958 0.216767 
14282 1 11.331 19.8058 5.14426 -8.39845 -3.48927 1.94029 -0.94064 
12840 1 9.19843 20.2724 0.903737 -8.3709 2.97887 6.04536 1.01461 
781 3 10.6819 16.19 0.26464 -27.4897 0.602593 -0.485231 0.0336366 
7921 1 9.74569 15.3552 6.84225 -6.96277 -1.27737 -0.144231 0.480401 
4981 2 8.17665 18.7162 0.359919 -22.8107 -2.9815 -4.53299 -2.41758 
5581 3 19.2998 19.0808 0.17348 -28.3735 -2.86109 -2.00705 1.48676 
1081 3 16.1812 16.1907 0.459947 -29.6154 0.352913 -0.129749 0.69636 
15781 1 15.4855 19.6201 4.9897 -7.20546 1.22993 -0.580043 -1.88232 
9480 1 14.9094 15.2692 4.1289 -7.15496 3.13757 -0.165594 1.66737 
5522 3 19.2606 13.9208 5.68998 -28.5436 -1.14132 -1.20555 0.858362 
10081 1 17.9411 17.5418 1.27321 -7.45959 -0.554606 2.40482 -0.6576 
9662 1 17.7358 14.8538 4.90194 -7.71042 -1.74636 -1.23078 -1.99576 
17283 1 14.908 14.8078 1.67379 -6.97425 1.90958 -0.636146 0.228453 
7021 1 17.7215 15.2554 2.26689 -6.80578 -1.93843 -2.52494 0.43135 
1082 2 16.1646 16.3087 5.83429 -24.1806 1.55147 -0.639946 -1.52522 
2581 3 16.6012 19.2394 2.39733 -27.5044 0.0927153 -3.93312 -1.96413 
4081 3 19.1899 16.3791 2.85914 -28.7599 -1.44139 1.45561 0.367123 
5582 3 18.1879 18.9325 5.31646 -28.3337 3.6987 -0.829838 0.00951684 
8222 1 20.3912 17.8865 4.04864 -8.39869 -1.34006 -2.54781 1.65517 
8522 1 17.4238 17.4501 4.17306 -8.05084 -0.970937 -0.116726 0.61844 
11881 1 20.0102 19.6099 6.59609 -5.8506 -0.828287 0.221644 -0.0743194 
17282 1 15.0119 17.5159 1.68509 -7.15408 0.884043 -1.18902 2.10612 
14820 1 20.3116 15.1423 1.75028 -7.52484 1.12951 -1.34094 -1.04416 
16321 1 18.2594 19.7051 3.21712 -7.23024 -0.695314 0.824527 0.275206 
9841 1 14.1567 17.1099 5.92024 -6.8748 1.57367 0.894055 1.93029 
6783 1 20.0547 17.0845 6.93458 -7.04697 1.92552 0.874694 -0.642097 
5221 3 13.7017 13.6948 0.37783 -29.3012 -0.690027 -0.942735 2.0298 
7080 1 15.7812 19.3302 0.220298 -7.11828 0.809012 0.793383 -1.34391 
16382 1 23.0288 14.9211 1.44605 -7.07554 0.871012 2.05964 0.211649 
5881 3 24.4995 19.3796 0.28698 -28.7456 -0.877442 -4.92099 1.71547 
2821 2 21.8596 13.6862 3.2655 -25.6147 -0.775312 -0.462192 -3.38035 
7381 1 25.7999 20.2129 1.40172 -6.9427 0.588977 0.906075 -2.30311 
10321 1 25.9223 14.9806 1.43293 -8.45552 0.355811 -1.71666 1.01521 
8821 1 20.5833 17.7459 1.38365 -8.18412 0.341734 0.407926 1.39663 
8581 1 20.5142 15.1506 4.47879 -7.77898 1.5832 3.05846 -2.95718 
10022 1 20.5686 14.5064 6.77293 -6.39013 3.37037 -1.17813 2.97367 
182 2 27.1565 16.1156 5.8955 -24.1232 3.38404 2.57501 1.05811 
14881 1 25.9565 17.5455 1.70255 -6.09884 1.91179 -1.50383 -2.7365 
11821 1 23.6329 14.7417 4.15571 -8.21531 -1.44641 0.889356 0.991026 
7740 1 25.7275 18.3027 3.95367 -5.33962 0.404295 -4.13941 0.557542 
7321 1 26.217 15.3726 4.20154 -8.36046 -0.0136969 -1.03974 -1.0262 
1382 2 21.8727 16.66 5.45088 -23.7643 -3.60525 -2.81959 5.16892 
2881 2 21.9302 18.834 3.06429 -24.5314 1.97006 4.09569 -2.31738 
4381 2 24.6722 16.1705 2.96168 -24.9526 -0.282768 4.88572 -3.27101 
5882 3 24.9902 19.2569 5.31937 -28.5838 -1.18857 2.2954 -1.59939 
14822 1 23.4181 17.6554 4.60868 -8.2806 0.294484 -0.0679778 -1.98914 
17640 1 23.4305 17.8573 1.66841 -7.82205 -2.62391 -0.643453 -0.360732 
13741 1 26.9244 20.0492 6.38762 -7.16976 0.945301 -0.999138 1.09531 
10382 1 22.3342 20.0127 4.95217 -7.04781 1.38362 -1.36517 -1.857 
14462 1 23.265 15.2215 6.89248 -7.67732 -0.102202 -3.10113 -2.85932 
11581 1 25.513 17.888 6.67618 -8.92184 -0.951602 -2.66928 -0.087445 
10383 1 26.2486 14.3732 6.69165 -7.66512 -3.19648 -1.50309 0.38771 
181 3 27.1068 16.2059 0.217427 -28.9548 0.404193 2.19349 0.729464 
302 2 5.52157 27.1389 5.84168 -24.3568 -1.0086 -0.489719 -2.8615 
541 3 5.0128 21.6799 0.300012 -26.7141 1.31491 -0.14785 2.54486 
4741 2 2.72495 24.456 0.499297 -23.8346 -1.51938 0.0418099 0.381293 
11940 1 0.442228 21.5112 2.38054 -5.97629 1.50732 0.319565 -1.85367 
10681 1 1.98543 23.45 2.42627 -6.85145 -2.15102 3.4048 -1.27058 
7741 1 2.00956 22.9089 4.97452 -7.37391 -3.42808 -1.34259 -0.296075 
12241 1 3.99965 26.4787 4.06574 -6.62274 -1.637 -0.39707 3.37839 
13201 1 4.20298 25.6563 1.84742 -8.40659 -1.27387 -1.31383 -4.37207 
10501 1 4.15909 22.5798 1.95597 -7.4828 2.08853 1.00465 -3.05855 
542 2 5.37604 21.6548 5.7125 -25.3152 -0.60148 -0.449772 -1.90481 
2041 3 5.38111 24.2846 3.06102 -28.7929 -0.450952 0.0262056 0.232388 
3241 3 2.80756 21.6449 3.45663 -29.8824 0.723329 0.749869 -2.39093 
4742 3 2.6859 24.4659 5.68676 -27.8055 0.2834 1.59954 0.190797 
13742 1 1.06847 25.9451 4.49669 -7.38291 -0.265613 -1.82869 -1.28668 
13981 1 4.29995 23.1546 4.45496 -7.42772 1.19533 2.1284 0.220576 
9540 1 6.66993 25.8056 1.27803 -8.39583 1.77345 -1.6233 -0.765088 
6542 1 6.43023 21.1793 3.46836 -5.88605 2.10572 -1.00101 -0.291895 
15299 1 1.43121 26.0432 1.64295 -8.60213 -0.0108226 -0.106379 -0.0269408 
10802 1 6.39776 25.8286 4.05042 -7.23622 2.20353 2.61424 1.35099 
11043 1 6.66564 23.2654 6.22497 -7.12821 0.0719043 -2.14689 1.64662 
17941 1 4.17293 25.5871 6.81603 -8.3996 -1.74302 2.78348 -1.67757 
301 3 5.39523 26.9507 0.231809 -27.9907 0.526159 2.61509 -2.97656 
15840 1 11.64 20.6366 2.03564 -8.44584 1.52176 4.16823 -1.82888 
9542 1 7.05592 25.5712 6.81437 -7.2513 -3.9243 3.90794 1.81781 
6841 1 9.36705 26.1291 4.07679 -8.58788 1.20183 -3.17539 2.07052 
13681 1 6.93781 22.7396 1.02288 -8.25641 -0.24506 -0.802962 0.322575 
11100 1 7.19923 23.6151 3.54379 -6.79939 1.9603 0.754952 -1.01435 
11041 1 9.27621 22.4102 4.39675 -7.81814 0.577208 0.853843 1.04913 
16022 1 11.9572 25.964 0.709335 -7.15622 1.36345 0.156965 -1.60665 
3301 2 8.06865 27.0902 2.80363 -23.6784 -1.24936 1.08321 -1.48112 
842 3 10.6922 21.9622 5.7872 -28.2306 2.41975 0.869383 1.42755 
2341 3 11.1328 24.9228 2.007 -27.2943 -1.14672 0.409432 2.22298 
3541 3 8.3346 22.0482 2.64201 -28.1745 -1.96648 -1.3491 0.527344 
5042 2 8.27378 24.5211 5.44834 -25.1716 0.705193 -1.73233 -0.848638 
13982 1 9.77522 23.4023 1.26997 -8.42087 -0.976295 -2.1826 2.23453 
12600 1 11.8122 23.3054 4.53571 -7.41899 -0.905387 -0.74832 -1.686 
5342 2 13.2763 24.4757 5.59405 -24.04 2.08196 -1.00178 -1.65315 
6660 1 12.5359 23.5177 1.40991 -7.86311 -1.06801 -0.36013 2.84689 
9001 1 9.50014 25.9552 1.11651 -8.09052 -3.1383 1.31666 -0.454024 
3841 2 13.6198 21.9839 2.72911 -24.1548 -0.485978 0.7592 0.34271 
14642 1 12.6646 25.7042 3.86411 -7.6744 -1.10986 1.1552 -1.17122 
15481 1 9.77328 20.6682 6.95094 -7.93151 -3.79769 -1.73997 -1.69589 
6601 1 12.4042 26.061 6.8702 -8.49457 -1.02443 -0.698683 -1.45266 
12542 1 13.5617 21.4515 5.21512 -7.45351 -0.290753 -0.319601 -1.76122 
14341 1 9.36828 25.8931 6.86105 -7.21095 3.5576 2.30401 -0.480497 
17281 1 14.0064 21.267 0.595379 -7.30458 -0.149263 -0.525715 -1.38358 
902 2 16.6241 26.974 5.63854 -24.9949 -0.913662 2.44165 -1.51258 
1141 2 16.4242 22.0455 0.242299 -24.9536 -0.214191 -0.822741 1.89293 
5641 3 19.1563 25.1573 0.65894 -25.2142 -1.28272 -1.9974 -1.63201 
5341 3 13.7715 24.6328 0.242016 -28.7499 -2.16439 -0.180598 -2.7806 
7081 1 15.6767 20.8291 2.55197 -8.10037 -0.778564 1.43755 2.11547 
11700 1 17.9111 26.4115 1.83181 -8.79225 -0.652802 -4.47988 -1.2664 
16381 1 18.2992 20.8684 0.746549 -7.69623 -0.198589 1.27782 0.921388 
7141 1 17.6078 23.2443 1.94218 -8.21265 3.16223 1.24047 -2.21282 
8400 1 15.2659 26.3736 3.86764 -7.98744 1.94332 0.89998 2.04965 
8100 1 14.8462 25.8901 1.24841 -8.64589 1.93773 0.934221 1.24665 
17341 1 14.9961 23.6322 4.05118 -7.93433 -1.43996 -1.60639 2.13593 
1142 2 16.1062 21.8425 4.99156 -24.7571 0.287574 -0.119707 -0.466312 
2641 2 16.292 24.8028 2.70467 -24.3716 1.47873 -0.00357421 2.20895 
4141 3 19.3485 22.0293 2.89331 -27.2353 -4.729 1.14116 0.804066 
5642 3 19.3474 24.4915 5.65336 -29.4292 -2.84128 0.170358 1.49989 
13142 1 17.9164 23.1389 4.48127 -6.39742 -0.963268 -2.63232 -0.652278 
12782 1 15.3376 22.4381 6.94867 -8.00338 -0.523551 -1.29134 -0.893949 
10142 1 17.9628 25.5606 4.54904 -6.56421 -1.30638 1.89921 -2.65958 
8639 1 20.4261 23.396 4.3091 -8.84295 2.46379 -1.31595 -0.163356 
14340 1 15.1147 23.2234 1.61021 -7.2097 0.127061 2.50084 -1.61037 
9782 1 17.9139 20.7123 5.61748 -6.75709 -1.32774 2.23049 0.696685 
17641 1 20.4495 26.1551 4.85113 -8.13609 2.00769 1.27484 -1.37118 
16141 1 15.2616 25.235 6.7378 -8.32094 -2.84839 0.281513 0.721264 
1201 3 21.9641 27.2597 0.518706 -25.9307 1.79949 2.30199 -1.14629 
1441 3 21.6801 22.0092 0.419534 -27.8138 2.58177 -2.50185 -0.631312 
15901 1 20.634 25.7376 1.97332 -9.84829 -1.17268 -0.141306 -0.567664 
11882 1 23.2821 20.6637 2.19081 -6.91154 -2.75633 -3.45442 0.316475 
6002 1 25.9485 25.6644 1.43833 -8.84223 0.448269 1.37352 0.39831 
11941 1 25.8869 20.5418 3.75688 -5.92852 -0.878095 3.90119 2.66393 
242 3 27.1842 21.7882 5.15276 -28.6589 -1.28386 -0.508727 -0.531624 
1741 3 27.2248 24.7928 2.67973 -26.3249 1.56345 -1.17085 1.5831 
15060 1 25.7967 23.5293 4.59973 -7.97567 1.747 0.568635 -0.468444 
10800 1 20.5206 20.7509 2.6839 -7.33103 3.39193 -1.33156 -0.222624 
17581 1 23.1207 25.8174 0.82844 -8.75577 0.067727 -0.927215 0.279439 
13682 1 24.7944 21.2453 5.95666 -7.59508 -1.05094 0.644712 1.66857 
7142 1 23.1925 22.8198 4.05507 -7.43736 -1.65435 1.92654 0.725204 
1442 2 21.5496 21.7944 5.74918 -23.9249 -1.5531 1.67069 -4.12142 
2941 3 21.9511 24.4666 2.54844 -26.4162 2.95375 -1.55109 1.87256 
4441 3 24.4717 21.9289 2.70704 -29.4065 2.12479 -0.545009 2.3454 
5942 3 24.0904 24.6757 5.33852 -27.0109 1.26914 -1.46633 -0.824477 
17642 1 23.4631 25.7409 3.43724 -9.17323 -0.108436 -1.05797 1.6164 
10500 1 23.3215 23.2259 1.53764 -7.46 -3.21081 1.52463 -1.53822 
13500 1 25.6363 23.1641 1.82553 -7.52504 4.3326 1.34597 0.0010617 
10442 1 25.7506 25.8147 6.11997 -7.89972 -0.5315 -0.549075 0.906506 
10322 1 20.6667 23.1718 1.53831 -9.50273 -2.3627 1.36511 -0.0253637 
14942 1 23.0884 26.1089 6.47446 -8.26644 0.562476 -2.36067 0.956948 
12781 1 22.8265 23.3671 6.60295 -8.88214 2.31938 0.755509 0.734142 
241 3 26.9111 21.6387 0.392108 -27.9466 1.7831 -1.072 2.57825 
13801 1 4.29 3.65654 7.01632 -7.78649 -0.82115 4.26825 -0.0666893 
12002 1 1.37986 0.881013 7.10845 -6.69886 -2.38193 0.753334 -1.78312 
15543 1 6.60376 2.75627 12.4574 -7.69223 -1.2283 1.87713 1.71368 
9063 1 3.51624 3.7536 12.6137 -8.18925 -0.25934 -1.07875 0.626735 
16563 1 3.42711 6.03407 11.0877 -6.80344 3.41704 -2.37663 -0.839064 
11702 1 0.884283 1.59281 12.4403 -7.48806 1.73224 -0.508111 0.547118 
13261 1 1.5402 3.56789 7.35829 -7.42755 -0.217632 1.17451 0.5022 
9003 1 4.29756 3.63752 9.80944 -8.10744 -1.10905 0.70273 -0.232068 
363 2 5.54023 5.01583 11.459 -24.0035 -2.9879 -0.0571234 -2.4317 
1802 3 5.06642 2.31433 8.24255 -28.1453 2.43607 1.04089 1.89959 
3062 2 2.87169 5.17068 8.40193 -24.8481 -0.118104 0.604376 1.49088 
4503 2 2.50404 2.67837 10.8414 -23.8152 1.64624 -0.258858 3.55152 
6063 1 0.381501 4.34073 13.2985 -6.52781 -0.519701 -1.60724 -2.90462 
10503 1 1.21951 4.22127 10.0801 -8.43128 -0.11977 1.26813 -0.182042 
9242 1 3.76439 1.09989 9.69134 -9.19422 -1.61558 0.104417 -2.30276 
8702 1 0.973358 1.64132 9.70077 -8.22194 2.15024 -1.59754 -0.511577 
12061 1 4.84748 6.27084 8.26406 -6.7257 -3.11366 0.0785061 0.16638 
12302 1 6.23535 0.63845 7.85044 -8.21692 -0.313576 -0.377411 -2.47704 
13203 1 1.31897 6.60954 12.4435 -7.24519 0.168808 1.80437 1.14465 
11042 1 6.61066 1.3745 10.1808 -6.33224 -1.00817 -0.316083 0.0567624 
16865 1 3.73676 1.00626 12.4842 -7.35532 -0.12843 2.54667 -1.67236 
15363 1 5.78324 5.16585 13.4581 -6.90327 1.45725 -2.06032 2.8208 
16862 1 6.98597 3.47029 7.15734 -6.9881 -2.64059 -0.289194 3.00777 
16802 1 9.67488 3.91936 7.35049 -6.67577 -2.86281 4.59483 -2.88541 
6302 1 12.2653 4.3036 7.36856 -7.01709 1.19826 1.19114 -1.07285 
7861 1 9.30676 6.76295 7.03546 -7.47779 -1.33614 3.76604 -1.47867 
6304 1 6.99645 4.49317 9.96545 -7.68695 -0.283347 -1.54757 1.21274 
11461 1 6.90883 6.0513 7.07193 -6.89968 0.86203 1.81096 -3.31698 
7802 1 9.34198 4.13411 12.5524 -8.3675 -0.505827 0.285286 1.41868 
663 2 11.092 5.15366 11.2451 -25.6323 1.04003 1.1025 -0.282118 
2102 2 10.754 2.54143 8.38207 -26.4051 0.724505 -1.98149 -0.374915 
3362 3 8.33256 5.29793 8.57506 -30.2267 0.351988 0.451045 -1.48152 
4803 2 8.13071 2.80606 11.0283 -24.648 0.0288685 0.50529 0.47996 
6663 1 9.57074 4.40668 10.0627 -6.77461 -2.69223 -2.74672 -0.847714 
3662 3 13.6481 5.50808 8.16992 -29.0302 1.00213 0.820576 2.63094 
12602 1 12.0933 3.66591 12.4418 -7.11384 -0.633498 0.517138 1.44285 
9962 1 12.0217 3.19016 9.84189 -6.41815 2.81178 -0.922524 3.05192 
11522 1 12.324 6.67835 12.861 -7.62199 1.81822 -1.27801 -1.24545 
15842 1 12.1139 1.06806 12.158 -7.63093 1.65334 0.549537 -0.0669346 
9903 1 9.4696 1.39449 12.6408 -8.28356 0.11436 0.600905 -1.44025 
15602 1 11.4462 0.399426 8.83728 -6.67494 0.349073 -0.99705 2.45502 
14343 1 9.18164 1.59718 9.74786 -7.78315 1.73538 -3.18843 -1.40807 
13862 1 10.4633 6.34277 8.87017 -5.79053 1.09693 2.1626 2.17091 
6363 1 12.7619 5.72483 10.0293 -6.72536 2.05801 1.90366 2.31558 
3363 3 8.41904 5.51102 13.8044 -27.2403 -2.06604 3.063 -0.592591 
9604 1 14.5695 3.70872 13.0869 -7.60111 2.9972 -1.88303 -3.62302 
3963 3 19.2482 5.44655 13.5063 -28.0387 -0.363531 0.0931208 3.73764 
3663 2 14.3692 5.5858 13.6921 -23.1341 -2.50604 2.31557 0.88815 
12301 1 14.9415 4.16315 7.53797 -7.65802 0.604113 -1.54906 -1.85753 
5103 3 13.7032 2.5567 11.3876 -27.9268 -2.8981 1.34349 -0.024636 
14342 1 14.6742 1.05252 7.16899 -7.58704 2.24579 2.61825 -3.03681 
9302 1 14.603 1.22255 12.8493 -7.27904 1.64489 0.129589 -6.05111 
16441 1 17.7218 1.26708 7.45056 -7.3276 -0.192666 -0.000115743 -2.82642 
6902 1 17.8823 1.29643 9.93104 -7.82963 -3.89665 -1.90669 3.36113 
11402 1 17.552 3.97893 7.27871 -7.90168 0.203058 -0.471372 1.70235 
14643 1 15.2487 3.89979 10.0319 -8.53485 -0.512362 -1.27056 2.53708 
963 3 16.3392 5.44437 10.6147 -26.2448 1.32143 0.913785 -0.866609 
2402 2 16.1832 2.43111 8.59791 -24.7887 0.648654 0.0526652 -1.24331 
3962 3 18.8587 5.27471 8.30802 -28.3455 3.12189 -1.18611 1.22285 
5403 2 19.1036 2.46239 11.3531 -24.4013 0.544299 0.464741 -2.5072 
17103 1 17.9281 3.83338 10.063 -7.5335 -3.11706 3.08303 0.493264 