ITEM: TIMESTEP
0
ITEM: NUMBER OF ATOMS
7200
ITEM: BOX BOUNDS xy xz yz pp pp pp
-3.3644984672871203e-01 1.4427244984672262e+02 0.0000000000000000e+00
-3.4938705187348873e-02 2.1625338705187247e+01 0.0000000000000000e+00
-1.5887599433890998e-01 2.5918875994338784e+01 0.0000000000000000e+00
ITEM: ATOMS id type x y z c_peratom fx fy fz 
6 1 0.428444 1.01341 2.2932 -8.24504 0.229745 -0.528032 -0.41048 
1446 1 0.442044 0.890609 7.39904 -7.59112 0.275453 0.911911 0.60223 
2886 1 0.510399 0.915394 12.6453 -8.07874 -0.54899 0.122139 -0.777366 
246 1 0.522327 4.49263 2.20496 -8.32285 0.017001 -0.241069 -0.844824 
1686 1 0.567536 4.54205 7.35971 -8.09202 -0.217729 0.197555 -0.256218 
3126 1 0.46911 4.34422 12.5265 -8.12099 0.311405 0.42039 1.01181 
486 1 0.525408 8.0511 2.22994 -7.7382 -0.185101 0.612514 -0.0297329 
1926 1 0.426962 8.0811 7.31656 -7.85303 0.273421 0.115948 0.2907 
3366 1 0.652724 8.01258 12.575 -8.16278 -0.68091 1.23077 0.15904 
726 1 0.618199 11.7162 2.17042 -7.90747 -0.105209 0.266031 0.575158 
2166 1 0.494255 11.7597 7.43947 -8.2425 0.0495422 0.0649311 0.291095 
3606 1 0.490465 11.7718 12.5056 -7.82596 0.592212 -1.48969 1.13898 
966 1 0.611163 15.388 2.1653 -7.52975 -0.0833848 -0.916048 -0.654967 
2406 1 0.452779 15.4335 7.36145 -7.72884 1.06343 -0.547903 -0.247758 
3846 1 0.576897 15.3064 12.5536 -7.85018 -0.20957 -0.0653182 -0.43284 
1206 1 0.668629 18.9857 2.06695 -8.1993 -0.317642 -1.54522 0.567648 
2646 1 0.614777 18.9086 7.2578 -7.74575 -0.4906 0.0448195 1.38689 
4086 1 0.588499 18.9529 12.5633 -7.81644 0.0335426 -0.688277 -0.248555 
12 1 4.27705 0.819397 2.07848 -7.68354 -0.0427938 0.0673467 -0.24729 
1452 1 4.08495 0.881254 7.29127 -7.6101 -0.112539 -0.908253 0.497522 
2892 1 4.27279 0.872424 12.5159 -7.99326 0.273513 0.252458 0.288919 
252 1 4.13443 4.42912 1.95032 -7.88434 0.0949822 1.23913 0.626991 
1692 1 4.16348 4.52365 7.29412 -7.8614 -0.456279 0.0545051 -0.169341 
3132 1 4.18682 4.55801 12.5246 -7.94169 0.328046 -0.325952 0.357565 
492 1 4.15858 8.03169 2.12149 -7.8529 1.06929 -0.47209 -0.00968039 
1932 1 4.16696 8.22065 7.48826 -8.07489 -0.0103995 -0.672317 -1.07366 
3372 1 3.94926 8.06616 12.6551 -7.98383 1.64529 0.298208 -0.232097 
732 1 4.14058 11.6732 2.06925 -7.9663 0.398823 0.73344 1.15974 
2172 1 4.05198 11.7298 7.33471 -7.64411 0.0844736 -0.729328 -0.507772 
3612 1 3.99902 11.8038 12.5271 -7.36228 0.204104 -1.5224 0.454548 
972 1 4.26592 15.3643 2.00105 -7.46892 0.0919129 -1.0833 1.21637 
2412 1 4.08123 15.2711 7.29055 -7.35212 -0.38232 0.881391 -0.217137 
3852 1 4.13689 15.3057 12.5971 -7.57991 -0.267951 1.06642 -0.0381438 
1212 1 4.03042 19.0668 1.99562 -8.17678 0.437211 -0.720825 0.721789 
2652 1 4.3288 19.0398 7.32915 -7.94698 -0.89525 -0.118831 -0.181934 
4092 1 4.23324 18.999 12.558 -7.71335 -0.670548 0.622903 0.156833 
18 1 7.80249 0.959079 2.11789 -8.14971 0.201585 -0.43802 -0.234302 
1458 1 7.76794 0.964585 7.31128 -8.04033 0.866035 -0.776456 0.66387 
2898 1 7.70638 0.900514 12.5468 -7.70216 -0.053561 0.453309 -0.720274 
258 1 7.88426 4.29534 2.18074 -7.97739 -0.756167 0.803417 -0.717722 
1698 1 7.68519 4.50518 7.43556 -8.0042 0.171307 0.288214 -0.205395 
3138 1 7.80885 4.5418 12.5556 -8.0355 0.135777 0.631899 0.184094 
498 1 7.71408 7.96762 2.14155 -7.97895 -0.244222 0.980274 -0.854591 
1938 1 7.79059 8.07868 7.39339 -8.28551 0.151992 0.25201 -0.601809 
3378 1 7.70828 8.19811 12.5074 -8.09302 0.387592 0.0279548 0.270943 
738 1 7.69537 11.5971 2.07176 -7.92459 -0.00405762 0.226538 1.21952 
2178 1 7.78117 11.841 7.38456 -7.90644 0.19639 -1.15651 0.251135 
3618 1 7.64561 11.7334 12.678 -7.81683 0.374357 -0.860675 -0.576313 
978 1 7.72498 15.3994 2.20209 -7.93823 -0.818985 0.117031 0.258099 
2418 1 7.84491 15.3587 7.40576 -7.84626 -0.157502 -0.549814 -0.397563 
3858 1 7.68588 15.2622 12.5256 -7.64788 -0.301807 0.85647 -0.396777 
1218 1 7.79968 18.8424 2.16309 -8.24533 0.147388 0.564386 -1.10301 
2658 1 7.47933 18.7857 7.32321 -7.66133 1.3583 1.5896 -0.536391 
4098 1 7.82001 18.8723 12.5368 -7.90943 0.246584 0.124671 -0.0985493 
24 1 11.5253 0.811611 2.16757 -7.83302 -1.1983 -0.327071 0.269164 
1464 1 11.2612 0.813538 7.40438 -8.08751 -0.0866838 0.28331 -0.339679 
2904 1 11.346 0.898743 12.5404 -7.54942 0.146728 -0.537263 0.0692146 
264 1 11.3744 4.5251 2.18392 -7.57191 -0.0808417 0.0687286 -1.38459 
1704 1 11.4568 4.52501 7.38158 -7.71648 0.568502 -0.230759 -0.667133 
3144 1 11.3781 4.47344 12.545 -7.60176 -0.890746 0.532229 -0.652532 
504 1 11.2841 8.04011 2.05189 -7.79146 -0.0630482 0.456602 0.67894 
1944 1 11.3232 8.07101 7.40244 -8.06793 0.882739 0.122153 -0.0930965 
3384 1 11.3803 8.16739 12.5132 -7.76343 -0.160133 -0.182877 -0.313566 
744 1 11.1563 11.7476 2.2012 -7.89549 -0.24496 -0.013823 -0.624019 
2184 1 11.3687 11.7161 7.3436 -7.87088 -0.382483 -0.216051 0.0537591 
3624 1 11.3511 11.7383 12.5463 -8.18466 0.182434 0.164846 0.469328 
984 1 11.2995 15.2071 1.98451 -7.67106 1.11938 1.32789 0.973271 
2424 1 11.4748 15.36 7.36098 -7.99311 -0.409093 -0.110667 -1.24844 
3864 1 11.4248 15.2434 12.603 -7.85011 -0.126596 0.0980621 -0.87238 
1224 1 11.398 18.8361 2.13025 -7.79895 -1.08246 1.22792 -1.0136 
2664 1 11.4397 18.8907 7.33895 -7.81868 -0.212564 0.704283 -1.69789 
4104 1 11.1396 18.9324 12.4421 -7.94791 0.293682 0.697085 0.399388 
5 1 0.446837 0.918544 4.87069 -7.67649 -0.235253 -0.122071 -0.798473 
1445 1 0.437343 0.770586 10.0012 -8.56454 -0.647235 0.984542 0.666862 
245 1 0.539536 4.65024 4.67592 -7.65988 0.105971 -0.368354 0.764772 
1685 1 0.624887 4.3803 9.94034 -7.80959 0.0284315 -0.191968 0.300159 
485 1 0.555658 7.99238 4.79278 -8.0194 -0.473475 0.256481 0.00949631 
1925 1 0.535389 8.09939 9.8997 -7.97731 -0.540708 0.378621 1.31958 
725 1 0.518616 11.6383 4.8937 -8.043 0.536603 1.19081 -0.907048 
2165 1 0.556811 11.6275 9.97618 -7.98406 -0.504466 0.207275 -0.0997792 
965 1 0.452583 15.4084 4.78087 -7.72023 -0.516522 0.302354 -0.00577246 
2405 1 0.587809 15.225 9.88214 -7.83332 0.578455 -0.411035 0.9313 
1205 1 0.536183 18.9456 4.74489 -7.78335 0.654812 0.31677 -1.34131 
2645 1 0.545346 19.0082 9.97643 -7.97209 -0.175094 -1.03805 -0.815823 
11 1 4.0472 1.01669 4.68483 -7.59286 0.00538016 -0.208462 0.0802597 
1451 1 4.29513 0.817335 9.9722 -8.0031 -0.436156 -0.228023 -0.185112 
251 1 4.12258 4.49597 4.60162 -7.70027 0.2476 -0.448901 0.461525 
1691 1 4.14075 4.41385 9.90487 -7.54111 -0.194065 0.729564 0.0674415 
491 1 4.15897 8.09109 4.76383 -8.06126 -0.224937 0.38644 0.610998 
1931 1 4.20993 8.16434 10.0614 -7.73141 -0.294971 -0.609845 0.0622572 
731 1 4.10216 11.7603 4.75241 -7.9865 -0.762184 -0.265716 -0.737153 
2171 1 4.17953 11.7305 9.87077 -7.43029 0.465658 -0.758276 0.399784 
971 1 4.13991 15.1742 4.66028 -7.86219 0.296893 0.492523 -0.221953 
2411 1 4.18664 15.2992 9.96165 -7.65992 -0.0896065 0.126897 0.226109 
1211 1 4.16369 19.0596 4.65569 -8.06072 -0.379841 -0.945203 -0.132768 
2651 1 4.07216 18.9236 10.0056 -7.72157 0.165876 0.221591 -0.928999 
17 1 7.70917 0.933158 4.70257 -7.87232 0.175824 0.151489 0.274954 
1457 1 7.71865 0.952702 9.93742 -8.39805 0.455546 -0.269373 0.940569 
257 1 7.75068 4.52459 4.81339 -7.74145 -0.828921 0.358933 -0.275764 
1697 1 7.86823 4.66879 9.95851 -8.04856 0.137582 -0.477478 0.538238 
497 1 7.69103 8.07765 4.68089 -8.07591 0.834667 0.334313 1.03487 
1937 1 7.71506 8.12054 9.94827 -8.14909 0.450962 0.170457 -0.0683019 
737 1 7.87128 11.7275 4.75291 -8.07027 -0.297597 0.266366 -0.642576 
2177 1 7.83424 11.7807 10.0932 -8.09048 -0.385434 -0.984303 -1.02396 
977 1 7.71045 15.3199 4.83001 -8.12677 -0.357638 -0.626046 -0.181333 
2417 1 7.90118 15.4254 9.92698 -7.91883 -0.13011 -0.17466 0.997999 
1217 1 7.68205 18.9198 4.72827 -7.99552 0.152936 0.977266 0.402328 
2657 1 7.87258 18.7187 9.87028 -7.21304 -0.756417 0.693924 0.163935 
23 1 11.2022 1.03792 4.75493 -8.11694 0.62546 -0.712644 0.589963 
1463 1 11.374 0.822372 9.97097 -7.94933 -0.460727 0.328649 -0.212803 
263 1 11.3893 4.53564 4.6979 -7.71722 -0.0943945 0.0326809 1.19588 
1703 1 11.3823 4.57421 9.89324 -7.85098 -0.787649 0.227915 1.00145 
503 1 11.3414 7.9851 4.74007 -7.61524 -0.388161 0.687334 -0.575666 
1943 1 11.4256 8.13419 9.95462 -7.74739 -0.311843 -0.713072 -0.363977 
743 1 11.382 11.7128 4.73197 -8.0419 -0.0604398 0.627234 0.905539 
2183 1 11.3534 11.6682 9.99443 -8.41681 0.93435 0.553169 -0.384464 
983 1 11.3266 15.3936 4.64189 -8.14225 0.217634 0.440653 0.371489 
2423 1 11.4418 15.3646 9.91068 -7.88234 -0.278093 -0.633986 0.687531 
1223 1 11.3378 18.9317 4.65051 -8.29211 -0.523747 -0.108285 1.32252 
2663 1 11.5174 18.9709 9.85673 -7.50875 -1.24206 1.45836 0.791672 
2 2 0.420894 2.73112 1.17072 -29.1287 1.25667 -0.378956 -0.903284 
1442 2 0.452411 2.76185 6.4066 -29.3111 0.324443 -1.04376 -0.188251 
2882 2 0.434607 2.60585 11.5189 -28.7285 1.02461 0.364091 -0.481427 
242 2 0.613006 6.28455 1.16158 -29.1591 -0.519945 0.464618 0.299518 
1682 2 0.577476 6.31918 6.29683 -29.2446 -0.172567 -0.346256 0.216443 
3122 2 0.550497 6.18516 11.7118 -29.0744 1.3002 0.246307 -1.69355 
482 2 0.502293 9.8526 1.19409 -29.5244 -0.28273 0.323848 -0.00348114 
1922 2 0.56493 9.91107 6.46038 -29.0621 -0.813962 0.125191 -0.607713 
3362 2 0.522322 9.88095 11.6425 -29.0464 0.524167 0.0866182 -0.527106 
722 2 0.563356 13.5603 1.06295 -29.1961 -0.677317 -0.0714437 0.780991 
2162 2 0.407648 13.4948 6.41791 -28.9732 0.576026 1.30962 -0.458277 
3602 2 0.539626 13.4358 11.5672 -29.2437 1.25246 1.41949 -0.195463 
962 2 0.636217 17.1447 1.04232 -29.1827 -0.35087 -0.48813 0.539544 
2402 2 0.472814 17.1735 6.28885 -29.4921 0.905103 -0.537675 -0.212864 
3842 2 0.579195 17.0885 11.5782 -29.1636 0.576733 0.397673 -0.0605882 
1202 2 0.522159 20.7326 1.1674 -29.0177 0.87006 1.19206 -0.549909 
2642 2 0.501123 20.7349 6.36027 -29.6966 0.0999991 0.738325 -0.581236 
4082 2 0.504926 20.7108 11.4429 -29.2949 0.14382 -0.133903 1.06701 
8 2 4.11372 2.63054 1.14189 -29.3707 0.113551 -0.247273 -0.387333 
1448 2 4.06466 2.67399 6.35651 -29.7713 0.424891 0.11105 -0.396605 
2888 2 4.17195 2.71129 11.5611 -29.3749 -0.188924 0.29514 -0.764251 
248 2 4.25946 6.27706 1.02923 -29.1396 -2.04302 -0.100049 0.180152 
1688 2 4.15715 6.40709 6.42284 -29.1037 0.210908 -0.659527 -0.385284 
3128 2 4.19872 6.38666 11.5696 -29.1969 -0.759246 -0.746148 -0.835129 
488 2 4.13239 9.90212 1.1397 -29.3373 -0.0110385 -0.770005 0.00929735 
1928 2 4.03806 9.90989 6.27338 -29.0461 1.83298 0.721929 0.371754 
3368 2 4.12258 9.96383 11.559 -29.6201 0.247381 0.0453223 -0.189732 
728 2 4.11178 13.4943 1.10801 -29.4802 0.197092 0.477695 -0.299926 
2168 2 4.12552 13.5658 6.25769 -29.8891 -0.0413997 -0.672044 0.649763 
3608 2 4.16391 13.5305 11.6452 -30.0869 0.466264 0.231441 -1.01069 
968 2 4.16742 17.1753 1.23213 -29.4333 -0.191061 -0.293272 -1.62977 
2408 2 4.14154 17.162 6.26572 -29.3858 0.296952 -0.213314 1.19356 
3848 2 4.14119 17.1369 11.4998 -29.7848 0.155005 0.230237 0.195628 
1208 2 4.15179 20.8143 1.01636 -29.2053 -0.16342 -0.519052 -0.519969 
2648 2 4.08229 20.7262 6.2601 -29.3313 0.115437 0.909675 -0.0160507 
4088 2 4.17313 20.7406 11.4067 -29.2524 0.021478 -0.268536 0.599899 
14 2 7.74355 2.75443 1.03785 -28.8604 -0.313171 -1.80369 -0.0518917 
1454 2 7.80696 2.72744 6.39153 -29.4588 -1.49272 0.377935 -0.467994 
2894 2 7.79493 2.71121 11.6073 -29.1679 -0.247904 0.37696 -0.114619 
254 2 7.70482 6.19219 1.11976 -28.7768 1.22856 0.12247 -0.0391422 
1694 2 7.69757 6.36249 6.2952 -29.1841 0.603902 -1.14117 -0.135224 
3134 2 7.757 6.36863 11.4681 -29.0179 -0.166196 -0.219732 0.789652 
494 2 7.74104 9.78553 1.06522 -29.3486 0.866106 0.18327 0.106368 
1934 2 7.74909 9.88295 6.24848 -29.1387 -0.0739629 0.77005 0.416448 
3374 2 7.7884 9.90823 11.4468 -29.0011 -0.575667 1.0238 0.67304 
734 2 7.78788 13.4759 1.10999 -29.4449 -0.327187 0.115061 0.618255 
2174 2 7.84511 13.5267 6.24447 -29.3771 -0.932917 -0.0073021 0.821034 
3614 2 7.80142 13.4843 11.5929 -29.5499 -0.458253 -0.0809731 -0.0377139 
974 2 7.83983 17.0006 0.982865 -29.1158 -1.06841 1.26601 0.744788 
2414 2 7.66815 17.0702 6.35816 -29.3242 0.0581378 0.203536 -0.198836 
3854 2 7.84258 17.0678 11.5871 -29.6322 -0.28962 0.59292 -0.963389 
1214 2 7.72719 20.7961 1.15469 -28.6366 0.101939 -0.581624 -0.148896 
2654 2 7.65722 20.708 6.39719 -29.2052 -0.496213 0.056722 -0.192677 
4094 2 7.71852 20.7632 11.5341 -29.2007 0.564144 -0.928224 0.438827 
20 2 11.3624 2.6255 1.16513 -29.8868 0.609736 0.451827 0.163351 
1460 2 11.3121 2.69949 6.34294 -29.5053 1.21119 0.252106 -0.000588689 
2900 2 11.3334 2.67775 11.5769 -29.4789 0.35161 0.123289 0.0527915 
260 2 11.4357 6.29901 1.06612 -29.4561 -0.29207 -0.598226 -0.130927 
1700 2 11.4159 6.25041 6.32879 -29.7098 -0.442425 0.464169 -0.685985 
3140 2 11.3237 6.39712 11.5097 -29.3108 1.47561 -1.06699 0.568357 
500 2 11.4316 10.0078 1.13599 -29.3891 -0.516351 -1.53322 -0.398575 
1940 2 11.4253 9.82321 6.36599 -29.1842 -0.939653 0.458677 -0.356647 
3380 2 11.4041 9.92506 11.4949 -29.2402 -0.0441471 -0.118446 0.522614 
740 2 11.3664 13.4882 1.05614 -29.4431 -0.116198 -0.122017 -0.0337154 
2180 2 11.4083 13.534 6.32618 -28.9561 0.198078 -0.045239 -0.266641 
3620 2 11.3877 13.4657 11.4848 -28.6684 -0.0178699 1.15892 1.0204 
980 2 11.4438 17.125 1.07119 -29.1479 -1.30344 -0.659992 -0.0468515 
2420 2 11.3666 17.1232 6.12431 -28.8824 -0.469484 0.131114 1.67226 
3860 2 11.414 17.1376 11.5199 -29.4323 0.248286 -0.476808 0.212737 
1220 2 11.3833 20.6963 1.18114 -29.2661 0.231276 -0.0940681 -0.885189 
2660 2 11.2592 20.7714 6.34443 -28.783 0.891495 -0.731811 -0.0115488 
4100 2 11.386 20.7631 11.4821 -29.4114 0.0590822 -0.00614055 -0.0814655 
1 2 2.20573 0.924592 3.74111 -29.3972 0.714029 -0.161222 0.653117 
1441 2 2.33219 0.89248 8.96403 -29.2569 0.332819 -0.0954188 -0.457182 
241 2 2.38299 4.48414 3.71322 -29.3806 -0.738657 0.0560495 -0.459813 
1681 2 2.43782 4.54479 8.84491 -29.4693 -0.600097 -0.505102 0.767265 
481 2 2.35002 8.09002 3.78139 -29.4164 0.00307694 -0.124169 -0.784734 
1921 2 2.34421 8.15045 9.00447 -29.3768 0.678673 -0.985706 0.747565 
721 2 2.29723 11.8085 3.73113 -29.0405 0.0540397 -0.889023 -0.282029 
2161 2 2.30968 11.7632 8.9562 -29.4146 1.19401 -0.27111 0.193855 
961 2 2.25879 15.3467 3.85237 -29.4369 0.0296594 -0.180677 -1.14003 
2401 2 2.42375 15.314 8.98117 -29.5059 0.276896 0.509132 -1.15668 
1201 2 2.33513 18.9728 3.60459 -29.1724 -0.00580251 0.26442 0.675866 
2641 2 2.28047 19.0151 8.84467 -29.2548 0.715239 -1.16043 0.778304 
7 2 5.90324 0.947352 3.70527 -29.539 -0.494836 -0.973307 0.987768 
1447 2 6.03866 0.887153 8.97881 -29.0995 -1.61483 0.763844 -1.18251 
247 2 5.92821 4.47211 3.7721 -29.1802 0.683852 -0.776918 0.837691 
1687 2 6.08321 4.55865 8.96507 -29.5812 -1.64405 -0.841551 -0.213505 
487 2 5.95347 8.00147 3.66341 -29.1816 -0.509015 0.0553193 0.0514415 
1927 2 5.97614 8.16366 8.89137 -29.1539 -0.867324 0.18253 0.314285 
727 2 5.98442 11.6332 3.66966 -29.3638 -0.27379 0.398477 0.752803 
2167 2 5.96656 11.7099 8.84616 -29.4664 -0.164803 0.661846 0.43669 
967 2 6.00891 15.3727 3.65434 -29.3463 -1.03575 -0.5156 0.28964 
2407 2 6.09 15.338 9.02978 -29.7713 -1.14972 -0.310019 -0.44702 
1207 2 5.99759 18.9914 3.63824 -28.8571 -0.728939 -0.27393 0.88854 
2647 2 5.94087 18.9234 8.90366 -30.05 0.191229 -0.762223 0.358939 
13 2 9.47843 0.835901 3.76496 -28.9118 -0.0405335 1.07393 -0.338535 
1453 2 9.4832 0.857425 8.99411 -28.8225 1.38747 0.260263 -0.848589 
253 2 9.5498 4.45425 3.732 -29.8452 0.202868 0.0763883 0.228788 
1693 2 9.58642 4.54924 8.9357 -29.0425 0.609435 -0.752814 -0.566485 
493 2 9.56124 7.99981 3.61233 -29.3786 0.162847 0.230751 0.940326 
1933 2 9.54195 8.04659 8.92941 -29.2476 0.6762 0.589603 -0.362033 
733 2 9.61442 11.6633 3.62194 -29.1486 -0.721311 0.724954 0.810546 
2173 2 9.60968 11.7492 8.93129 -29.0829 -0.784626 0.109978 -0.190341 
973 2 9.4701 15.4006 3.78586 -29.2985 0.352284 -1.16783 -1.30175 
2413 2 9.65454 15.3594 8.87121 -29.3682 0.00805385 0.603111 0.232428 
1213 2 9.46764 18.8921 3.65658 -28.9424 0.495099 -0.594519 0.180396 
2653 2 9.67155 18.9059 8.91205 -29.4857 -0.367644 -0.880299 0.992425 
3 1 2.37833 2.67887 0.1184 -7.56079 0.427864 -0.298154 -0.35774 
1443 1 2.19526 2.75769 5.22071 -7.83191 0.302466 0.360348 0.708122 
2883 1 2.39997 2.48312 10.4128 -7.80474 -0.7918 0.0959643 1.47899 
243 1 2.29895 6.31155 0.112869 -7.79899 0.101077 -0.394875 -0.285708 
1683 1 2.43677 6.23398 5.37589 -7.81958 -0.340443 0.729844 -0.435851 
3123 1 2.34418 6.31482 10.4222 -7.58658 0.406487 -0.0950917 1.14223 
483 1 2.25385 9.9644 0.207447 -7.97497 0.951772 -0.266811 -0.817283 
1923 1 2.30805 9.82582 5.33674 -8.12107 -0.11647 0.240169 0.298558 
3363 1 2.35614 9.87606 10.6101 -7.77524 -0.518272 0.149562 -0.654987 
723 1 2.25485 13.4515 0.028237 -8.10441 -0.0681152 -0.325814 -0.275441 
2163 1 2.18556 13.6002 5.27772 -8.01789 0.150149 -0.68543 -0.0710707 
3603 1 2.4485 13.3912 10.5889 -7.73834 -1.67692 0.948443 -0.759019 
963 1 2.44179 17.1449 0.0122933 -7.98672 -0.830868 0.591169 0.247821 
2403 1 2.42514 17.127 5.20146 -8.03167 -0.423759 0.17254 0.616358 
3843 1 2.3253 17.0557 10.374 -7.74541 -0.47358 0.105759 0.599778 
1203 1 2.28452 20.7634 0.0320744 -7.99778 0.244759 -0.217763 -0.445275 
2643 1 2.29497 20.7896 5.25488 -7.83922 0.0228675 -0.141658 -0.392665 
4083 1 2.33974 20.7186 10.4302 -7.92791 0.310035 1.04012 -0.543774 
9 1 5.8814 2.63963 0.117257 -7.90842 -0.0361132 0.742984 -0.0129079 
1449 1 5.88802 2.73429 5.44844 -7.49554 0.655386 0.168985 -0.542145 
2889 1 6.00302 2.87729 10.5719 -7.70778 0.705399 -0.747807 0.130415 
249 1 5.93285 6.31917 0.0288697 -8.31084 1.85945 -0.154125 -0.116446 
1689 1 5.87907 6.33467 5.23258 -8.03011 0.438881 -0.264714 0.572288 
3129 1 5.95351 6.29617 10.4356 -8.06991 -0.320487 -0.117627 0.603017 
489 1 6.0071 9.80478 0.0840873 -7.98299 -1.03973 0.652463 0.0536946 
1929 1 5.94893 9.95152 5.22537 -7.74962 -0.119272 0.111833 0.286601 
3369 1 5.94518 9.92181 10.4415 -7.95734 0.763695 0.647802 0.0522111 
729 1 5.99369 13.3479 0.0956368 -7.90193 -0.527713 0.954969 0.535472 
2169 1 5.94457 13.4223 5.41718 -7.4228 1.01057 0.0930697 -0.536607 
3609 1 6.01453 13.5916 10.5878 -7.4251 0.361288 -0.0284998 -0.687932 
969 1 5.85654 17.0452 0.0411094 -7.67743 0.303163 -0.138788 0.644638 
2409 1 5.90448 17.0661 5.26981 -7.89956 -0.564273 0.20702 -0.298851 
3849 1 5.91812 17.1615 10.4831 -7.68413 0.645865 -0.495786 0.472995 
1209 1 6.04774 20.7416 0.0298283 -7.90825 -0.695182 -1.1225 0.685812 
2649 1 5.84358 20.8475 5.29287 -7.83884 1.20779 0.0129293 0.221073 
4089 1 6.04473 20.5911 10.3932 -8.05232 0.0182433 0.151863 1.39379 
15 1 9.61369 2.56656 0.169949 -7.92879 -1.3672 1.02423 -0.305242 
1455 1 9.5164 2.85585 5.38452 -7.68619 0.133414 -0.530906 -0.703414 
2895 1 9.54182 2.66807 10.5125 -8.13266 0.24759 0.369024 -0.614496 
255 1 9.56885 6.14826 0.0670004 -8.16185 -0.502291 0.327915 0.286112 
1695 1 9.52468 6.32295 5.37975 -7.47186 -0.0786144 -0.14999 -1.2207 
3135 1 9.59614 6.46253 10.4866 -8.21493 -0.257448 -0.355256 -0.184464 
495 1 9.64962 9.7572 0.102285 -7.62052 -0.217509 0.952087 0.769325 
1935 1 9.56227 9.90349 5.395 -7.83416 0.469159 -0.596988 -0.154226 
3375 1 9.61203 9.86061 10.6394 -7.79259 -0.784473 -0.0703492 -0.93704 
735 1 9.53778 13.5759 0.0355276 -8.01369 0.740388 -0.668175 0.0436055 
2175 1 9.65069 13.6642 5.33106 -7.99516 -0.241632 -0.556185 -0.458344 
3615 1 9.63917 13.5043 10.5612 -8.04721 -0.129502 0.495994 -0.152489 
975 1 9.57954 17.1148 0.0372248 -7.97972 1.13085 -0.719656 0.448456 
2415 1 9.43231 17.1402 5.18324 -8.19173 0.964879 0.266121 1.07585 
3855 1 9.73816 17.1926 10.5081 -7.57673 -0.57068 -0.698108 0.434694 
1215 1 9.49866 20.5907 0.135613 -8.2181 -0.520704 0.88688 0.141792 
2655 1 9.46393 20.7864 5.40302 -8.17793 0.265231 -0.427984 -0.781372 
4095 1 9.47928 20.6987 10.509 -8.19099 0.633661 0.485205 -0.140421 
4 1 2.45332 2.58614 2.63745 -7.80039 -0.823016 0.985273 0.454355 
1444 1 2.35782 2.64675 7.86519 -7.95816 -0.49778 0.765126 -0.493841 
244 1 2.36553 6.35552 2.67059 -7.72396 0.149301 -1.40671 0.828154 
1684 1 2.36172 6.35017 7.91722 -7.90475 0.264484 0.60424 -0.691878 
484 1 2.4173 9.86519 2.77186 -7.67743 -0.368766 0.435326 0.224768 
1924 1 2.31453 9.82384 7.97314 -8.18767 -0.917197 1.54971 -0.596608 
724 1 2.35248 13.5537 2.63851 -8.02154 0.565412 0.164543 0.3674 
2164 1 2.31381 13.5283 7.88542 -7.77553 -0.994554 0.380143 0.537995 
964 1 2.39792 17.0774 2.69625 -7.93386 0.456541 0.973592 -0.614728 
2404 1 2.48345 17.2738 7.82358 -7.63562 -0.29912 -1.01063 -0.232211 
1204 1 2.30262 20.8549 2.63189 -7.88137 -0.392154 0.319266 0.307347 
2644 1 2.23939 20.735 7.8233 -8.07862 0.993748 0.574753 0.431932 
10 1 5.9012 2.66309 2.8315 -7.84455 0.286668 1.17399 -1.13213 
1450 1 5.90847 2.65664 8.00269 -7.39336 0.258949 0.427876 0.347639 
250 1 6.10593 6.06649 2.6516 -8.32355 -1.16222 1.22174 -0.790748 
1690 1 5.90451 6.35533 7.86703 -8.12668 0.25356 0.136557 -0.368211 
490 1 5.89778 9.79273 2.70968 -7.87125 0.259139 0.627807 -0.725485 
1930 1 6.02929 9.93645 7.7608 -7.99503 0.239534 0.38094 0.648717 
730 1 5.97905 13.5087 2.78629 -7.94619 0.13835 -0.404484 -0.523506 
2170 1 5.91477 13.556 7.99526 -7.36021 0.424804 0.0917234 -0.017582 
970 1 5.87841 17.205 2.71011 -8.02115 -0.207153 0.416036 -0.451091 
2410 1 5.87714 17.0332 7.88491 -7.40135 -0.494509 -0.6987 0.241487 
1210 1 6.01807 20.7309 2.70026 -8.16911 0.770508 0.0489807 -0.743418 
2650 1 6.01921 20.8399 7.97281 -7.58498 0.309984 -0.202571 -1.30378 
16 1 9.72365 2.66464 2.75329 -7.53698 0.0735198 -1.11068 0.280223 
1456 1 9.63591 2.73843 7.88291 -7.93722 -0.582437 -0.240248 1.03464 
256 1 9.44885 6.22937 2.68222 -7.75451 0.506329 0.000893226 0.141068 
1696 1 9.62719 6.23039 7.84565 -7.69448 -0.740965 0.430396 1.14492 
496 1 9.518 9.85112 2.72826 -7.94767 -0.290352 -0.414696 0.0206347 
1936 1 9.57842 9.94421 8.05681 -7.86366 -0.455798 -0.381708 -0.494095 
736 1 9.3873 13.6066 2.65576 -7.68883 -0.0853395 -1.31815 0.8153 
2176 1 9.61902 13.5713 7.92172 -7.94329 0.609452 -0.327043 0.0944624 
976 1 9.67458 17.0504 2.65583 -7.70508 -0.421519 0.689811 -0.343119 
2416 1 9.67151 17.1811 7.86017 -7.8321 -0.672469 -0.374857 -0.994912 
1216 1 9.58675 20.7177 2.77348 -8.49795 -0.131256 0.270139 -0.579845 
2656 1 9.42272 20.5919 7.91921 -8.28354 -0.087364 0.882287 -0.041575 
4326 1 0.593471 0.898745 17.7832 -7.73474 -0.952343 0.375423 0.224772 
5766 1 0.677203 0.864912 23.0884 -8.00401 -0.914247 0.360344 -0.488431 
4566 1 0.632513 4.49893 17.7976 -7.83035 0.335498 0.013152 -0.286037 
6006 1 0.551541 4.42277 23.0338 -8.39281 0.453455 0.856221 -0.221802 
4806 1 0.511736 8.06434 17.8965 -8.25112 0.77356 0.357369 -0.475743 
6246 1 0.703364 7.987 23.024 -7.67248 -0.144142 -0.50737 0.523426 
5046 1 0.57271 11.8424 17.8705 -7.30764 0.0204519 -1.65428 0.0207049 
6486 1 0.545401 11.7144 23.1379 -7.78411 0.255838 -0.328905 -0.0865198 
5286 1 0.576109 15.4482 17.7266 -8.07763 0.386356 -1.15121 0.636602 
6726 1 0.559579 15.2937 23.0971 -7.81337 -0.880917 -0.0199972 -0.820305 
5526 1 0.625094 18.9656 17.7129 -7.66201 -0.523296 -0.410054 0.151593 
6966 1 0.609994 19.0485 22.9463 -7.73296 -0.417178 -1.45102 -0.0298445 
4332 1 4.19837 0.791234 17.6368 -7.54527 0.039884 0.47925 0.981773 
5772 1 4.31069 0.821371 22.8981 -7.94442 -0.00880106 -0.117057 0.441296 
4572 1 4.33637 4.55236 17.6048 -7.93849 -1.30541 -0.759574 0.83699 
6012 1 4.31914 4.43218 22.9004 -8.17256 -0.0539773 -0.403582 -0.538064 
4812 1 4.19188 8.09016 17.7733 -8.15753 -0.266971 0.835668 0.743574 
6252 1 4.28518 8.0323 22.9544 -8.00337 -0.552348 1.15254 -0.0312401 
5052 1 4.21474 11.765 17.8739 -8.21024 0.462478 -0.710441 -0.345643 
6492 1 4.1607 11.7454 23.071 -7.71714 -0.213411 -0.774741 -0.309684 
5292 1 4.03831 15.3307 17.8749 -8.14581 0.673876 0.0466371 -0.35378 
6732 1 4.1739 15.3219 23.0121 -7.93001 -0.112486 0.127207 0.0894857 
5532 1 4.09864 18.9646 17.7536 -7.89389 0.306817 -0.914999 0.578229 
6972 1 4.22287 18.8368 22.9766 -7.86034 -0.215582 0.401629 -0.439754 
4338 1 7.7666 0.848501 17.7242 -7.89016 0.17632 -0.542838 0.388282 
5778 1 7.8892 0.799741 22.905 -7.28274 -0.365939 -0.0123571 0.572384 
4578 1 7.67043 4.37587 17.7708 -7.74718 0.264661 0.877615 0.270304 
6018 1 7.72027 4.484 22.9793 -7.70294 0.207001 -0.41791 -0.268103 
4818 1 7.79749 8.01916 17.7389 -7.55864 0.773735 1.3086 -0.586357 
6258 1 7.73553 8.0148 22.9592 -7.47039 0.82069 1.68377 -0.87226 
5058 1 7.7549 11.657 17.8082 -8.37428 0.068489 1.65364 0.563948 
6498 1 7.76519 11.7512 23.1472 -7.83899 0.0764539 0.175046 -1.0769 
5298 1 7.85017 15.4034 17.7206 -8.16626 -0.400344 -0.332297 0.887462 
6738 1 7.82981 15.1965 23.1133 -7.99315 -0.201877 0.270303 -0.0117037 
5538 1 7.92416 18.8401 17.7158 -7.99705 0.384989 0.45598 0.608392 
6978 1 8.00398 18.7471 22.9422 -8.17054 -0.790599 1.00172 0.259571 
4344 1 11.4686 0.931815 17.7077 -7.88255 -0.160447 -0.630795 0.819783 
5784 1 11.3342 0.856229 22.9981 -7.7796 0.15263 -0.228796 0.132392 
4584 1 11.3355 4.43133 17.8162 -7.86859 0.376355 1.16295 0.00545332 
6024 1 11.3655 4.44676 22.9767 -7.95558 0.279353 0.120584 0.864982 
4824 1 11.3729 8.03365 17.6585 -8.3563 -0.741507 0.275341 0.424113 
6264 1 11.3062 7.97478 23.0829 -8.35597 0.0696198 0.508087 -1.1612 
5064 1 11.3264 11.7628 17.8159 -8.09066 0.330388 0.146832 0.0671348 
6504 1 11.4458 11.6899 23.0881 -7.82266 0.121181 -1.36803 0.198181 
5304 1 11.4379 15.2663 17.764 -7.60841 -0.0775341 -0.0678375 -0.0063887 
6744 1 11.5868 15.2086 22.9997 -7.75593 -0.402274 -0.0983 -0.621923 
5544 1 11.5286 18.9976 17.6923 -8.23517 -0.607329 -0.414742 0.0635605 
6984 1 11.428 18.8173 22.94 -7.73605 -0.364852 0.301908 0.01267 
2885 1 0.519543 0.944417 15.2429 -7.88051 0.549323 -0.566122 -0.612818 
4325 1 0.544066 0.899463 20.344 -7.78227 1.1738 -0.17766 0.666133 
5765 1 0.517342 0.951798 25.7507 -7.8721 -0.33738 -0.452971 -0.434871 
3125 1 0.555459 4.45212 15.2283 -8.41066 -0.367701 -0.39557 -0.548742 
4565 1 0.513443 4.51885 20.3625 -7.88102 0.424063 0.00182985 0.61754 
6005 1 0.608459 4.30582 25.572 -7.97253 -1.29447 0.997064 0.768862 
3365 1 0.558024 8.2764 15.2527 -8.39568 0.974061 -0.342497 0.162425 
4805 1 0.649361 7.95712 20.4864 -7.7885 0.16306 -0.478297 -0.632249 
6976 1 9.58281 20.7131 23.5071 -8.02563 0.373753 -0.891651 0.700955 
3605 1 0.633679 11.8128 15.2391 -7.66741 -0.262337 -1.19375 -0.971441 
5045 1 0.485683 11.7565 20.5635 -7.4815 -0.327791 0.1548 -0.56053 
6485 1 0.383711 11.6572 25.6459 -7.78484 0.221083 0.399837 0.55788 
3845 1 0.581364 15.2356 15.1388 -8.04752 -0.0495124 0.565482 0.451154 
5285 1 0.719809 15.2517 20.4287 -7.99877 -1.31705 1.0213 -0.163162 
6725 1 0.51021 15.4138 25.6178 -7.91923 1.10877 -0.375482 0.529302 
4085 1 0.560212 18.9555 15.1146 -7.85842 0.736772 -0.0446766 0.321883 
5525 1 0.62006 18.9986 20.332 -7.97912 -0.2999 -0.403944 0.0743712 
6965 1 0.520648 18.951 25.5513 -8.03802 0.153454 -0.545443 0.249815 
2891 1 4.34095 0.692499 15.122 -7.7563 -1.36617 0.64011 -0.709738 
4331 1 4.17786 0.987318 20.3071 -7.77427 0.486031 -0.49516 -0.398012 
5771 1 4.16183 0.785204 25.5137 -8.01986 -0.462783 -0.00763134 0.0277834 
3131 1 4.2038 4.49187 15.1274 -8.09984 -1.13129 0.808935 -0.224235 
4571 1 4.27052 4.25952 20.2368 -7.95813 -0.509552 0.826088 0.322289 
6011 1 4.14234 4.62784 25.4113 -7.6969 0.550995 -0.70729 0.59559 
3371 1 4.19882 8.04098 15.2583 -8.0731 -0.0659354 0.111079 -0.686504 
4811 1 4.1638 8.1805 20.3658 -8.40852 -0.0578038 -0.324423 0.927888 
6251 1 4.13493 8.06628 25.5994 -8.09101 -0.0671877 0.851272 -0.113275 
3611 1 4.23375 11.6696 15.2077 -7.86349 0.024424 -0.107753 0.240761 
5051 1 4.17069 11.7671 20.408 -7.53468 0.620791 -0.517144 0.240296 
6491 1 4.12629 11.6762 25.6319 -7.83184 -0.0846082 -0.663549 -0.179529 
3851 1 4.14084 15.3829 15.2419 -7.57102 0.0985201 -1.19041 0.157962 
5291 1 4.19022 15.403 20.4207 -8.18454 -0.0679988 -0.513766 0.0653615 
6731 1 4.04714 15.1966 25.6137 -7.45525 1.06376 -0.722057 -0.809204 
4091 1 4.13439 18.9597 15.1501 -7.95512 -0.218284 0.0502632 -0.0101191 
5531 1 4.181 19.0911 20.4147 -8.12694 0.581421 -1.38799 -0.453977 
6971 1 4.20983 18.958 25.4715 -7.49967 -0.80376 0.873582 0.66356 
2897 1 7.74871 0.928448 15.1323 -7.88317 -0.279646 -0.0935295 0.577483 
4337 1 7.89052 0.888588 20.3638 -7.48654 -0.146025 -1.07928 -0.945712 
5777 1 7.6547 0.83626 25.5637 -7.96801 1.87026 0.611156 0.249771 
3137 1 7.86373 4.47091 15.2116 -7.67961 -0.915538 -0.196729 -0.674845 
4577 1 7.84287 4.45545 20.4207 -7.98728 0.48942 0.0124231 -0.446965 
6017 1 7.73966 4.37454 25.5355 -8.47689 -0.566753 0.33174 1.49737 
3377 1 7.80555 8.1368 15.0948 -7.60439 0.885413 0.771249 0.32522 
4817 1 7.77711 8.16378 20.297 -7.89081 -0.694557 -0.201005 0.964236 
6257 1 7.85551 8.14301 25.5716 -7.73259 -0.964993 -1.23251 0.287679 
3617 1 7.79782 11.8293 15.2197 -7.96601 0.357561 -0.785283 0.66432 
5057 1 7.86625 11.6152 20.4867 -8.18674 -0.647105 0.916265 -0.481081 
6497 1 7.87595 11.7166 25.6849 -7.67176 -0.443414 -0.978864 -0.214806 
3857 1 7.70709 15.2861 15.0802 -7.78084 0.706628 0.18433 1.05483 
5297 1 7.8355 15.2982 20.5149 -8.27977 -0.425542 -0.295456 -0.948203 
6737 1 7.7096 15.2995 25.7435 -8.16003 0.247293 -0.140495 -0.769694 
4097 1 7.82776 18.8393 15.164 -8.07736 -0.256577 -0.0167535 -0.356879 
5537 1 7.78584 18.8371 20.3326 -7.89663 0.164066 -0.0708739 0.0284712 
6977 1 7.71062 18.6776 25.5011 -7.90295 0.0751469 0.945525 0.725779 
2903 1 11.38 0.890036 15.1679 -7.90424 1.50659 -0.0327585 -0.227851 
4343 1 11.3642 0.715349 20.3782 -8.06279 0.988164 0.28288 0.00264479 
5783 1 11.2993 0.876411 25.6372 -7.51218 -0.0600797 -1.73334 -0.481014 
3143 1 11.407 4.59491 15.159 -7.83426 -0.29816 -0.153519 0.41278 
4583 1 11.3706 4.46024 20.491 -7.9298 0.143546 -0.488856 -0.96131 
6023 1 11.4565 4.48536 25.5837 -7.80842 -0.723054 0.109189 0.20333 
3383 1 11.4353 8.13837 14.9939 -7.50457 -1.09077 -0.0818386 1.36287 
4823 1 11.4012 8.03589 20.3051 -7.99455 0.737141 -0.171725 0.452829 
6263 1 11.4147 7.99637 25.5802 -7.73434 0.369192 -0.337081 0.412356 
3623 1 11.4816 11.7304 15.1934 -7.71037 -0.559261 0.509896 -0.436485 