LAMMPS (22 Dec 2022)
  using 1 OpenMP thread(s) per MPI task
Loaded 1 plugins from C:\Program Files\LAMMPS 64-bit 23Jun2022\plugins
Loaded 0 plugins from C:\Program Files\LAMMPS 64-bit 23Jun2022-MPI\plugins
Loaded 1 plugins from C:\Program Files\LAMMPS 64-bit 22Dec2022-MSMPI\plugins
Loaded 1 plugins from C:\Program Files\LAMMPS 64-bit 28Mar2023-MPI\plugins
# Compute elastic constant tensor for a crystal
#
# Written by Aidan Thompson (Sandia, athomps@sandia.gov)
#
#  This script uses the following three include files.
#
#   init.mod      (must be modified for different crystal structures)
# 	       	  Define units, deformation parameters and initial
#		  configuration of the atoms and simulation cell.
#
#
#   potential.mod    (must be modified for different pair styles)
# 		     Define pair style and other attributes
#		     not stored in restart file
#
#
#   displace.mod    (displace.mod should not need to be modified)
# 		    Perform positive and negative box displacements
# 		    in direction ${dir} and size ${up}.
# 		    It uses the resultant changes
#		    in stress to compute one
# 		    row of the elastic stiffness tensor
#
#		    Inputs variables:
#		    	   dir = the Voigt deformation component
#		    		    (1,2,3,4,5,6)
#		    Global constants:
#       	    	   up = the deformation magnitude (strain units)
#       		   cfac = conversion from LAMMPS pressure units to
#               	   output units for elastic constants
#
#
#  To run this on a different system, it should only be necessary to
#  modify the files init.mod and potential.mod. In order to calculate
#  the elastic constants correctly, care must be taken to specify
#  the correct units in init.mod (units, cfac and cunits). It is also
#  important to verify that the minimization of energy w.r.t atom
#  positions in the deformed cell is fully converged.
#  One indication of this is that the elastic constants are insensitive
#  to the choice of the variable ${up} in init.mod. Another is to check
#  the final max and two-norm forces reported in the log file. If you know
#  that minimization is not required, you can set maxiter = 0.0 in
#  init.mod.
#

include init.mod
# NOTE: This script can be modified for different atomic structures,
# units, etc. See in.elastic for more info.
#

# Define the finite deformation size. Try several values of this
# variable to verify that results do not depend on it.
variable up equal 1.0e-6

# Define the amount of random jiggle for atoms
# This prevents atoms from staying on saddle points
variable atomjiggle equal 1.0e-5

# Uncomment one of these blocks, depending on what units
# you are using in LAMMPS and for output

# metal units, elastic constants in eV/A^3
#units		metal
#variable cfac equal 6.2414e-7
#variable cunits string eV/A^3

# metal units, elastic constants in GPa
units		metal
variable cfac equal 1.0e-4
variable cunits string GPa

# real units, elastic constants in GPa
#units		real
#variable cfac equal 1.01325e-4
#variable cunits string GPa

# Define minimization parameters
variable etol equal 0.0
variable ftol equal 1.0e-10
variable maxiter equal 1000
variable maxeval equal 100000
variable dmax equal 1.0e-2

# generate the box and atom positions using a diamond lattice

dimension    3
boundary     p p p
read_data    data.in
Reading data file ...
  triclinic box = (0 0 0) to (2.7097101 2.3466778 4.402034) with tilt (-1.3548551 0 0)
WARNING: Triclinic box skew is large. LAMMPS will run inefficiently. (src/domain.cpp:220)
  1 by 2 by 2 MPI processor grid
  reading atoms ...
  4 atoms
  read_data CPU = 0.001 seconds
#replicate    2 3 4
replicate    2 3 4
Replication is creating a 2x3x4 = 24 times larger system...
  triclinic box = (0 0 0) to (5.4194203 7.0400334 17.608136) with tilt (-4.0645652 0 0)
WARNING: Triclinic box skew is large. LAMMPS will run inefficiently. (src/domain.cpp:220)
  1 by 1 by 4 MPI processor grid
  96 atoms
  replicate CPU = 0.000 seconds
change_box   all triclinic
Changing box ...
WARNING: Triclinic box skew is large. LAMMPS will run inefficiently. (src/domain.cpp:220)
  triclinic box = (0 0 0) to (5.4194203 7.0400334 17.608136) with tilt (-4.0645652 0 0)

# Need to set mass to something, just to satisfy LAMMPS
mass 1 1.0e-20

include potential.mod
# NOTE: This script can be modified for different pair styles
# See in.elastic for more info.

# Choose potential
#-----------------------
#pair_style	sw
#pair_coeff * * Si.sw Si
#-----------------------
#pair_style morse	2.83994742	# D0[eV] a[1/A] r0[A] rc[A], 1NN for BCC
#pair_coeff 1 1	2.1173	1.0202	2.4595	2.6497	#	Fe-Fe
#-----------------------
#pair_style smatb # R0(A)   p       q     A(eV)   xi(eV)  Rcs(A)   Rc(A), 4NN: Rcs=4NN, Rc=(4NN+5NN)/2
#pair_coeff 1 1	2.4802	7.0149	2.3779	0.3144	3.0551	4.033	4.176	#	Co	Co
#-----------------------
#pair_style eam/alloy
#pair_coeff * * AlCrFeCoNi_Zhou04.eam.alloy Fe
#-----------------------
pair_style meam
pair_coeff * * ./../../library.meam Be O ./../../BeO.meam Be O
#-----------------------

# Setup neighbor style
neighbor 1.0 nsq
neigh_modify once no every 1 delay 0 check yes

# Setup minimization style
min_style	     cg
min_modify	     dmax ${dmax} line quadratic
min_modify	     dmax 0.01 line quadratic

# Setup output
thermo		1
thermo_style custom step temp pe press pxx pyy pzz pxy pxz pyz lx ly lz vol
thermo_modify norm no

# Compute initial state
fix 3 all box/relax  aniso 0.0
minimize ${etol} ${ftol} ${maxiter} ${maxeval}
minimize 0 ${ftol} ${maxiter} ${maxeval}
minimize 0 1e-10 ${maxiter} ${maxeval}
minimize 0 1e-10 1000 ${maxeval}
minimize 0 1e-10 1000 100000
Neighbor list info ...
  update: every = 1 steps, delay = 0 steps, check = yes
  max neighbors/atom: 2000, page size: 100000
  master list distance cutoff = 5.2
  ghost atom cutoff = 5.2
  2 neighbor lists, perpetual/occasional/extra = 2 0 0
  (1) pair meam, perpetual
      attributes: full, newton on
      pair build: full/nsq
      stencil: none
      bin: none
  (2) pair meam, perpetual, half/full from (1)
      attributes: half, newton on
      pair build: halffull/newton
      stencil: none
      bin: none
Per MPI rank memory allocation (min/avg/max) = 9.856 | 9.856 | 9.856 Mbytes
   Step          Temp          PotEng         Press           Pxx            Pyy            Pzz            Pxy            Pxz            Pyz             Lx             Ly             Lz           Volume    
         0   0             -291.96246     -200342.8      -90627.789     -90627.745     -419772.88      0.03851097     1.3241616e-10 -1.4105702e-10  5.4194203      7.0400334      17.608136      671.80145    
         1   0             -291.98173     -200293.58     -90517.251     -90517.206     -419846.3       0.038528394    5.4020731e-11 -5.1524911e-11  5.4193033      7.0398814      17.606375      671.70526    
         2   0             -292.00099     -200244.3      -90406.735     -90406.691     -419919.48      0.038545809   -2.1802488e-10 -1.7299115e-10  5.4191864      7.0397297      17.604614      671.60913    
         3   0             -292.02026     -200194.95     -90296.242     -90296.198     -419992.41      0.038563214   -1.7538585e-10 -1.8034296e-10  5.4190698      7.0395781      17.602854      671.51304    
         4   0             -292.03953     -200145.54     -90185.773     -90185.728     -420065.11      0.038580608   -3.160662e-11  -5.1645859e-11  5.4189533      7.0394268      17.601093      671.417      
         5   0             -292.05879     -200096.06     -90075.327     -90075.282     -420137.57      0.038597992    3.2526404e-10 -2.3670715e-10  5.418837       7.0392757      17.599332      671.32101    
         6   0             -292.07805     -200046.52     -89964.904     -89964.859     -420209.78      0.038615366    2.6340296e-10 -2.501003e-10   5.4187208      7.0391248      17.597571      671.22507    
         7   0             -292.0973      -199996.91     -89854.504     -89854.459     -420281.76      0.03863273     4.0586718e-11 -1.8158152e-10  5.4186048      7.0389742      17.59581       671.12918    
         8   0             -292.11656     -199947.23     -89744.128     -89744.083     -420353.49      0.038650084    2.2708798e-10 -2.9308397e-10  5.418489       7.0388237      17.594049      671.03334    
         9   0             -292.13581     -199897.49     -89633.775     -89633.73      -420424.98      0.038667574    4.6082473e-11 -2.6881191e-11  5.4183734      7.0386735      17.592289      670.93755    
        10   0             -292.15506     -199847.69     -89523.446     -89523.401     -420496.22      0.038685033   -2.2794613e-10 -2.3232553e-10  5.418258       7.0385236      17.590528      670.8418     
        11   0             -292.17431     -199797.82     -89413.139     -89413.095     -420567.22      0.038702482   -4.9826516e-10 -1.7904987e-10  5.4181427      7.0383738      17.588767      670.74611    
        12   0             -292.19356     -199747.88     -89302.857     -89302.812     -420637.98      0.03871992    -4.8562233e-10 -2.4201052e-10  5.4180275      7.0382242      17.587006      670.65046    
        13   0             -292.21281     -199697.88     -89192.598     -89192.553     -420708.49      0.038737348   -5.9521013e-10 -2.2112844e-10  5.4179126      7.0380749      17.585245      670.55486    
        14   0             -292.23205     -199647.81     -89082.362     -89082.317     -420778.76      0.038754767   -5.8743489e-10 -1.2404636e-10  5.4177978      7.0379258      17.583485      670.45931    
        15   0             -292.25129     -199597.68     -88972.15      -88972.106     -420848.78      0.038772174   -5.2440305e-10 -3.4668107e-10  5.4176832      7.0377769      17.581724      670.36381    
        16   0             -292.27053     -199547.48     -88861.963     -88861.918     -420918.56      0.038789571   -8.7766429e-10 -2.0547513e-11  5.4175688      7.0376283      17.579963      670.26835    
        17   0             -292.28976     -199497.21     -88751.799     -88751.754     -420988.09      0.038806958   -6.8654608e-10 -1.1284808e-10  5.4174545      7.0374798      17.578202      670.17295    
        18   0             -292.309       -199446.88     -88641.659     -88641.614     -421057.37      0.038824335   -1.2026545e-09 -3.1247328e-10  5.4173404      7.0373316      17.576441      670.07759    
        19   0             -292.32823     -199396.48     -88531.543     -88531.499     -421126.4       0.038841701   -1.0899867e-09 -6.0859153e-10  5.4172265      7.0371836      17.574681      669.98228    
        20   0             -292.34746     -199346.02     -88421.452     -88421.407     -421195.19      0.038859057   -1.4830649e-09 -3.71268e-10    5.4171127      7.0370359      17.57292       669.88702    
        21   0             -292.36668     -199295.48     -88311.385     -88311.34      -421263.72      0.038876402   -1.562164e-09  -4.5162155e-10  5.4169991      7.0368883      17.571159      669.79181    
        22   0             -292.38591     -199244.88     -88201.343     -88201.298     -421332.01      0.038893737   -1.4349094e-09 -5.176381e-10   5.4168857      7.036741       17.569398      669.69664    
        23   0             -292.40513     -199194.22     -88091.325     -88091.28      -421400.05      0.038911061   -1.4184925e-09 -2.3918211e-10  5.4167725      7.0365938      17.567637      669.60152    
        24   0             -292.42435     -199143.49     -87981.332     -87981.287     -421467.84      0.038928375   -1.54067e-09   -2.5907859e-10  5.4166594      7.0364469      17.565876      669.50645    
        25   0             -292.44357     -199092.69     -87871.364     -87871.319     -421535.38      0.038945678   -1.1502788e-09 -4.002753e-10   5.4165465      7.0363003      17.564116      669.41143    
        26   0             -292.46279     -199041.82     -87761.42      -87761.375     -421602.67      0.038962972   -1.064638e-09  -4.1910865e-10  5.4164337      7.0361538      17.562355      669.31646    
        27   0             -292.482       -198990.89     -87651.502     -87651.457     -421669.71      0.038980254   -1.2544141e-09 -1.9789192e-10  5.4163211      7.0360075      17.560594      669.22153    
        28   0             -292.50121     -198939.89     -87541.609     -87541.563     -421736.49      0.038997526   -1.0589914e-09  4.1984591e-11  5.4162087      7.0358615      17.558833      669.12665    
        29   0             -292.52042     -198888.82     -87431.741     -87431.695     -421803.01      0.039014787   -8.993775e-10  -1.8995402e-10  5.4160965      7.0357157      17.557072      669.03182    
        30   0             -292.53963     -198837.68     -87321.898     -87321.853     -421869.28      0.039032038   -9.1437686e-10 -5.0084978e-10  5.4159844      7.0355701      17.555312      668.93704    
        31   0             -292.55884     -198786.47     -87212.08      -87212.035     -421935.29      0.039049277   -1.1146277e-09 -3.636575e-11   5.4158725      7.0354247      17.553551      668.8423     
        32   0             -292.57804     -198735.19     -87102.289     -87102.243     -422001.05      0.039066507   -1.2952284e-09  3.1881752e-11  5.4157607      7.0352796      17.55179       668.74761    
        33   0             -292.59724     -198683.85     -86992.522     -86992.477     -422066.55      0.039083726   -1.7152814e-09  4.9553301e-11  5.4156492      7.0351346      17.550029      668.65297    
        34   0             -292.61644     -198632.43     -86882.782     -86882.737     -422131.78      0.039100934   -1.8190868e-09 -3.4174267e-11  5.4155378      7.0349899      17.548268      668.55838    
        35   0             -292.63564     -198580.95     -86773.067     -86773.022     -422196.76      0.039118132   -1.691795e-09   4.7743635e-11  5.4154265      7.0348454      17.546508      668.46383    
        36   0             -292.65483     -198529.4      -86663.379     -86663.333     -422261.48      0.03913532    -1.5326798e-09  9.1603127e-12  5.4153154      7.0347011      17.544747      668.36933    
        37   0             -292.67402     -198477.78     -86553.716     -86553.671     -422325.94      0.039152496   -1.5724044e-09 -2.9429452e-10  5.4152045      7.034557       17.542986      668.27488    
        38   0             -292.69321     -198426.09     -86444.079     -86444.034     -422390.14      0.039169662   -1.5540672e-09  2.8227303e-11  5.4150938      7.0344132      17.541225      668.18047    
        39   0             -292.7124      -198374.32     -86334.469     -86334.423     -422454.08      0.039186817   -1.5537402e-09 -2.13573e-11    5.4149832      7.0342695      17.539464      668.08611    
        40   0             -292.73159     -198322.49     -86224.885     -86224.839     -422517.76      0.039203963   -1.4827162e-09 -2.0467331e-11  5.4148728      7.0341261      17.537703      667.9918     
        41   0             -292.75077     -198270.59     -86115.327     -86115.281     -422581.17      0.039221096   -1.5330747e-09  2.7955064e-10  5.4147625      7.0339829      17.535943      667.89753    
        42   0             -292.76995     -198218.62     -86005.796     -86005.75      -422644.33      0.039238219   -1.5438877e-09  3.0254501e-10  5.4146525      7.0338399      17.534182      667.80332    
        43   0             -292.78913     -198166.58     -85896.291     -85896.245     -422707.22      0.039255331   -1.4564907e-09 -7.5584403e-11  5.4145426      7.0336971      17.532421      667.70914    
        44   0             -292.80831     -198114.47     -85786.813     -85786.767     -422769.84      0.039272433   -1.5171632e-09 -1.6360241e-10  5.4144328      7.0335545      17.53066       667.61502    
        45   0             -292.82748     -198062.3      -85677.362     -85677.316     -422832.21      0.039289524   -1.6189658e-09  1.3804296e-12  5.4143232      7.0334122      17.528899      667.52094    
        46   0             -292.84666     -198010.05     -85567.937     -85567.892     -422894.31      0.039306603   -1.6999358e-09 -1.1398256e-10  5.4142138      7.03327        17.527139      667.42691    
        47   0             -292.86583     -197957.73     -85458.54      -85458.494     -422956.14      0.039323673   -1.5964605e-09  3.9395771e-11  5.4141045      7.0331281      17.525378      667.33293    
        48   0             -292.88499     -197905.34     -85349.17      -85349.124     -423017.71      0.039340731   -1.7431861e-09 -2.057875e-10   5.4139954      7.0329864      17.523617      667.23899    
        49   0             -292.90416     -197852.88     -85239.827     -85239.781     -423079.02      0.039357778   -1.4903781e-09 -3.0558107e-10  5.4138865      7.0328449      17.521856      667.1451     
        50   0             -292.92332     -197800.34     -85130.511     -85130.465     -423140.06      0.039374814   -1.6193012e-09 -2.1072497e-10  5.4137778      7.0327036      17.520095      667.05125    
        51   0             -292.94249     -197747.74     -85021.222     -85021.177     -423200.83      0.03939184    -1.4548054e-09 -2.4930529e-10  5.4136692      7.0325625      17.518335      666.95745    
        52   0             -292.96165     -197695.07     -84911.961     -84911.916     -423261.34      0.039408854   -1.4884236e-09 -1.8591724e-10  5.4135607      7.0324217      17.516574      666.8637     
        53   0             -292.9808      -197642.33     -84802.728     -84802.682     -423321.57      0.039425858   -1.8494297e-09 -2.1622716e-10  5.4134524      7.032281       17.514813      666.76999    
        54   0             -292.99996     -197589.51     -84693.522     -84693.476     -423381.55      0.039442851   -1.9683145e-09 -3.6488607e-10  5.4133443      7.0321406      17.513052      666.67633    
        55   0             -293.01911     -197536.63     -84584.344     -84584.298     -423441.25      0.039459832   -2.0734307e-09 -3.4682202e-10  5.4132364      7.0320004      17.511291      666.58272    
        56   0             -293.03826     -197483.67     -84475.194     -84475.148     -423500.68      0.039476803   -1.8935836e-09 -7.628693e-10   5.4131286      7.0318603      17.50953       666.48915    
        57   0             -293.05741     -197430.64     -84366.071     -84366.025     -423559.83      0.039493763   -1.654199e-09  -8.1910853e-10  5.413021       7.0317205      17.50777       666.39562    
        58   0             -293.07656     -197377.54     -84256.977     -84256.931     -423618.72      0.039510711   -1.3119942e-09 -5.0543598e-10  5.4129135      7.0315809      17.506009      666.30215    
        59   0             -293.0957      -197324.37     -84147.911     -84147.865     -423677.33      0.039527649   -1.0855813e-09 -4.518136e-10   5.4128062      7.0314416      17.504248      666.20872    
        60   0             -293.11484     -197271.12     -84038.873     -84038.827     -423735.66      0.039544576   -9.3966403e-10 -7.2339033e-10  5.4126991      7.0313024      17.502487      666.11533    
        61   0             -293.13398     -197217.8      -83929.863     -83929.817     -423793.72      0.039561491   -1.2832475e-09 -8.2237274e-10  5.4125921      7.0311634      17.500726      666.02199    
        62   0             -293.15312     -197164.41     -83820.882     -83820.836     -423851.5       0.039578396   -1.4373051e-09 -6.251348e-10   5.4124853      7.0310247      17.498966      665.9287     
        63   0             -293.17226     -197110.94     -83711.929     -83711.883     -423909.01      0.03959529    -1.721889e-09  -4.7114776e-10  5.4123787      7.0308862      17.497205      665.83545    
        64   0             -293.19139     -197057.4      -83603.004     -83602.958     -423966.24      0.039612172   -1.8641702e-09 -5.9753473e-10  5.4122722      7.0307478      17.495444      665.74225    
        65   0             -293.21052     -197003.79     -83494.109     -83494.063     -424023.2       0.039629043   -1.811619e-09  -2.7840687e-10  5.4121659      7.0306097      17.493683      665.64909    
        66   0             -293.22965     -196950.1      -83385.242     -83385.196     -424079.88      0.039645903   -1.6962199e-09 -3.5303998e-10  5.4120597      7.0304718      17.491922      665.55598    
        67   0             -293.24878     -196896.35     -83276.404     -83276.357     -424136.27      0.039662752   -1.5044543e-09 -7.4738235e-10  5.4119537      7.0303341      17.490161      665.46291    
        68   0             -293.2679      -196842.51     -83167.594     -83167.548     -424192.4       0.03967959    -1.5100967e-09 -7.62012e-10    5.4118479      7.0301966      17.488401      665.36989    
        69   0             -293.28702     -196788.61     -83058.814     -83058.768     -424248.24      0.039696417   -1.2118167e-09 -3.8855124e-10  5.4117422      7.0300593      17.48664       665.27692    
        70   0             -293.30614     -196734.63     -82950.063     -82950.017     -424303.8       0.039713232   -1.1787283e-09 -3.5878708e-10  5.4116367      7.0299223      17.484879      665.18399    
        71   0             -293.32526     -196680.57     -82841.341     -82841.295     -424359.08      0.039730036   -1.207968e-09  -2.1136126e-10  5.4115313      7.0297854      17.483118      665.0911     
        72   0             -293.34438     -196626.45     -82732.648     -82732.602     -424414.09      0.039746829   -8.5164805e-10 -4.8707057e-10  5.4114261      7.0296487      17.481357      664.99826    
        73   0             -293.36349     -196572.24     -82623.985     -82623.939     -424468.81      0.03976361    -6.9981146e-10 -5.5390755e-10  5.4113211      7.0295123      17.479597      664.90547    
        74   0             -293.3826      -196517.97     -82515.351     -82515.305     -424523.25      0.03978038    -5.1076203e-10 -6.1574298e-10  5.4112162      7.029376       17.477836      664.81272    
        75   0             -293.40171     -196463.62     -82406.747     -82406.701     -424577.41      0.039797138   -3.5126808e-10 -2.1834123e-10  5.4111115      7.02924        17.476075      664.72001    
        76   0             -293.42082     -196409.2      -82298.172     -82298.126     -424631.29      0.039813886   -4.3321214e-10 -3.3862062e-10  5.4110069      7.0291042      17.474314      664.62735    
        77   0             -293.43992     -196354.7      -82189.627     -82189.581     -424684.88      0.039830622   -5.653184e-10  -2.4420907e-10  5.4109025      7.0289686      17.472553      664.53474    
        78   0             -293.45902     -196300.12     -82081.112     -82081.066     -424738.2       0.039847347   -3.4050667e-10 -1.3117616e-10  5.4107983      7.0288332      17.470793      664.44217    
        79   0             -293.47812     -196245.48     -81972.627     -81972.581     -424791.23      0.03986406    -7.2675533e-10  2.6807273e-10  5.4106942      7.028698       17.469032      664.34964    
        80   0             -293.49722     -196190.76     -81864.172     -81864.125     -424843.97      0.039880762   -9.8727075e-10  4.3898429e-10  5.4105903      7.028563       17.467271      664.25716    
        81   0             -293.51632     -196135.96     -81755.747     -81755.7       -424896.43      0.039897453   -1.1909107e-09  2.8417559e-10  5.4104865      7.0284282      17.46551       664.16472    
        82   0             -293.53541     -196081.09     -81647.352     -81647.305     -424948.61      0.039914132   -9.5573525e-10  3.4538555e-10  5.4103829      7.0282936      17.463749      664.07233    
        83   0             -293.5545      -196026.14     -81538.987     -81538.94      -425000.5       0.0399308     -8.1550283e-10  2.519703e-11   5.4102795      7.0281592      17.461988      663.97999    
        84   0             -293.57359     -195971.12     -81430.652     -81430.606     -425052.1       0.039947457   -9.3677537e-10  5.2572481e-10  5.4101762      7.028025       17.460228      663.88768    
        85   0             -293.59268     -195916.02     -81322.348     -81322.302     -425103.41      0.039964101   -1.1073406e-09  8.6114277e-11  5.4100731      7.0278911      17.458467      663.79542    
        86   0             -293.61176     -195860.85     -81214.075     -81214.028     -425154.43      0.039980735   -1.5004879e-09  3.9652687e-10  5.4099701      7.0277573      17.456706      663.70321    
        87   0             -293.63084     -195805.59     -81105.832     -81105.785     -425205.16      0.039997357   -1.4030065e-09  2.3035727e-10  5.4098673      7.0276238      17.454945      663.61104    
        88   0             -293.64992     -195750.26     -80997.619     -80997.572     -425255.6       0.040013967   -1.1793121e-09  2.2398768e-10  5.4097646      7.0274904      17.453184      663.51892    
        89   0             -293.669       -195694.86     -80889.437     -80889.391     -425305.75      0.040030565   -1.0466532e-09  1.8176855e-10  5.4096621      7.0273573      17.451424      663.42684    
        90   0             -293.68808     -195639.38     -80781.287     -80781.24      -425355.6       0.040047152   -1.0450224e-09  2.4513944e-10  5.4095598      7.0272243      17.449663      663.3348     
        91   0             -293.70715     -195583.82     -80673.167     -80673.12      -425405.16      0.040063728   -1.2176978e-09 -4.8309902e-11  5.4094576      7.0270916      17.447902      663.24281    
        92   0             -293.72622     -195528.18     -80565.078     -80565.031     -425454.43      0.040080292   -1.1952869e-09 -1.5709182e-10  5.4093556      7.026959       17.446141      663.15086    
        93   0             -293.74529     -195472.46     -80457.02      -80456.973     -425503.4       0.040096844   -1.01803e-09   -1.1359958e-10  5.4092537      7.0268267      17.44438       663.05895    
        94   0             -293.76436     -195416.67     -80348.993     -80348.946     -425552.08      0.040113385   -1.2287714e-09 -7.3421612e-12  5.409152       7.0266946      17.44262       662.96709    
        95   0             -293.78342     -195360.8      -80240.997     -80240.95      -425600.46      0.040129914   -1.182791e-09   9.7255473e-11  5.4090505      7.0265627      17.440859      662.87527    
        96   0             -293.80248     -195304.86     -80133.033     -80132.986     -425648.55      0.040146431   -1.4475601e-09  4.0913521e-10  5.4089491      7.0264309      17.439098      662.7835     
        97   0             -293.82154     -195248.83     -80025.1       -80025.053     -425696.34      0.040162935   -9.8982293e-10  2.0241837e-10  5.4088478      7.0262994      17.437337      662.69177    
        98   0             -293.8406      -195192.73     -79917.199     -79917.152     -425743.84      0.040179429   -7.2072354e-10 -8.7522569e-11  5.4087467      7.0261681      17.435576      662.60008    
        99   0             -293.85966     -195136.55     -79809.329     -79809.282     -425791.04      0.040195911   -4.9318568e-10 -5.4396986e-11  5.4086458      7.026037       17.433815      662.50844    
       100   0             -293.87871     -195080.29     -79701.49      -79701.444     -425837.94      0.040212381   -2.8030309e-10 -7.26364e-11    5.408545       7.0259061      17.432055      662.41684    
       101   0             -293.89776     -195023.96     -79593.684     -79593.637     -425884.55      0.040228839   -3.6007924e-10  3.0698119e-10  5.4084444      7.0257754      17.430294      662.32529    
       102   0             -293.91681     -194967.54     -79485.909     -79485.862     -425930.85      0.040245285   -5.9229127e-10  3.3889528e-10  5.4083439      7.0256449      17.428533      662.23378    
       103   0             -293.93585     -194911.05     -79378.166     -79378.119     -425976.86      0.04026172    -7.0800053e-10  8.058698e-12   5.4082436      7.0255146      17.426772      662.14231    
       104   0             -293.9549      -194854.48     -79270.455     -79270.408     -426022.57      0.040278143   -2.5838389e-10 -1.5319691e-10  5.4081435      7.0253845      17.425011      662.05088    
       105   0             -293.97394     -194797.83     -79162.776     -79162.729     -426067.98      0.040294554   -1.7162944e-10 -1.905044e-10   5.4080435      7.0252546      17.423251      661.9595     
       106   0             -293.99298     -194741.1      -79055.13      -79055.082     -426113.09      0.040310953   -2.6576817e-10 -3.3170814e-10  5.4079436      7.0251249      17.42149       661.86817    
       107   0             -294.01201     -194684.3      -78947.515     -78947.468     -426157.9       0.040327472   -1.2850656e-10 -4.2036229e-10  5.4078439      7.0249954      17.419729      661.77687    
       108   0             -294.03105     -194627.41     -78839.932     -78839.884     -426202.41      0.040343967   -1.4803047e-10 -7.3090854e-10  5.4077444      7.0248661      17.417968      661.68562    
       109   0             -294.05008     -194570.44     -78732.38      -78732.333     -426246.62      0.040360449   -1.9362468e-10 -4.95217e-10    5.407645       7.024737       17.416207      661.59441    
       110   0             -294.06911     -194513.4      -78624.861     -78624.814     -426290.53      0.04037692    -1.8340151e-10 -4.3013323e-10  5.4075458      7.0246081      17.414447      661.50324    
       111   0             -294.08814     -194456.28     -78517.374     -78517.327     -426334.13      0.040393378    8.6417469e-11 -1.7732213e-10  5.4074467      7.0244794      17.412686      661.41212    
       112   0             -294.10716     -194399.07     -78409.919     -78409.872     -426377.43      0.040409825   -1.662301e-11  -5.5966596e-10  5.4073478      7.0243509      17.410925      661.32104    
       113   0             -294.12619     -194341.79     -78302.496     -78302.449     -426420.42      0.04042626    -1.9582043e-10 -5.9075892e-10  5.407249       7.0242226      17.409164      661.23001    
       114   0             -294.14521     -194284.42     -78195.106     -78195.059     -426463.1       0.040442682   -1.8451597e-10 -5.0094609e-12  5.4071504      7.0240944      17.407403      661.13901    
       115   0             -294.16423     -194226.97     -78087.748     -78087.7       -426505.48      0.040459093   -3.1747483e-10  1.9881088e-10  5.407052       7.0239665      17.405642      661.04806    
       116   0             -294.18324     -194169.45     -77980.422     -77980.375     -426547.54      0.040475491   -3.8785021e-10  2.2424091e-10  5.4069537      7.0238388      17.403882      660.95715    
       117   0             -294.20226     -194111.84     -77873.129     -77873.082     -426589.3       0.040491877   -3.5955825e-10  7.299083e-10   5.4068555      7.0237113      17.402121      660.86629    
       118   0             -294.22127     -194054.14     -77765.868     -77765.821     -426630.75      0.040508252   -5.2285372e-10  8.9606533e-10  5.4067575      7.023584       17.40036       660.77546    
       119   0             -294.24028     -193996.37     -77658.64      -77658.593     -426671.88      0.040524613   -4.234564e-10   8.4737096e-10  5.4066597      7.0234569      17.398599      660.68468    
       120   0             -294.25928     -193938.52     -77551.445     -77551.398     -426712.71      0.040540963   -5.9155156e-10  7.9774616e-10  5.406562       7.02333        17.396838      660.59395    
       121   0             -294.27829     -193880.58     -77444.283     -77444.236     -426753.23      0.040557301   -4.9255888e-10  8.5270868e-10  5.4064644      7.0232033      17.395078      660.50325    
       122   0             -294.29729     -193822.56     -77337.154     -77337.106     -426793.43      0.040573626   -4.8973599e-10  5.8330132e-10  5.406367       7.0230768      17.393317      660.4126     
       123   0             -294.31629     -193764.46     -77230.057     -77230.01      -426833.32      0.040589939   -5.7715063e-10  4.6319133e-10  5.4062698      7.0229505      17.391556      660.32199    
       124   0             -294.33529     -193706.28     -77122.994     -77122.946     -426872.9       0.04060624    -9.0225132e-10  6.6411653e-10  5.4061727      7.0228244      17.389795      660.23142    
       125   0             -294.35428     -193648.02     -77015.963     -77015.916     -426912.17      0.040622528   -7.1906417e-10  3.8448803e-10  5.4060758      7.0226984      17.388034      660.14089    
       126   0             -294.37327     -193589.67     -76908.966     -76908.919     -426951.13      0.040638805   -6.4354638e-10  3.3301539e-10  5.405979       7.0225727      17.386273      660.05041    
       127   0             -294.39226     -193531.24     -76802.002     -76801.955     -426989.77      0.040655068   -8.6230263e-10  3.5136839e-10  5.4058823      7.0224472      17.384513      659.95997    
       128   0             -294.41125     -193472.73     -76695.072     -76695.024     -427028.1       0.04067132    -9.1606334e-10  7.6463181e-10  5.4057859      7.0223218      17.382752      659.86957    
       129   0             -294.43024     -193414.14     -76588.175     -76588.127     -427066.11      0.040687558   -6.9535169e-10  2.9227625e-10  5.4056895      7.0221967      17.380991      659.77921    
       130   0             -294.44922     -193355.46     -76481.311     -76481.263     -427103.81      0.040703786   -4.914152e-10   2.0252054e-10  5.4055934      7.0220718      17.37923       659.68889    
       131   0             -294.4682      -193296.7      -76374.481     -76374.433     -427141.19      0.04072       -2.1480548e-10  1.8621731e-10  5.4054973      7.021947       17.377469      659.59862    
       132   0             -294.48718     -193237.86     -76267.684     -76267.637     -427178.26      0.040736202   -2.9366794e-11  1.5087147e-10  5.4054015      7.0218225      17.375709      659.50839    
       133   0             -294.50616     -193178.93     -76160.922     -76160.874     -427215.01      0.040752392   -1.8684562e-10 -1.5153059e-10  5.4053057      7.0216981      17.373948      659.4182     
       134   0             -294.52513     -193119.93     -76054.192     -76054.145     -427251.44      0.040768569   -4.1926529e-10  2.9827041e-10  5.4052101      7.021574       17.372187      659.32805    
       135   0             -294.5441      -193060.84     -75947.497     -75947.449     -427287.56      0.040784734   -4.0914862e-10  2.8062476e-10  5.4051147      7.02145        17.370426      659.23794    
       136   0             -294.56307     -193001.66     -75840.836     -75840.788     -427323.36      0.040800886   -1.2413278e-10 -5.6892039e-11  5.4050194      7.0213262      17.368665      659.14788    
       137   0             -294.58204     -192942.4      -75734.208     -75734.16      -427358.84      0.040817026   -2.4355298e-10  1.3215471e-10  5.4049243      7.0212027      17.366905      659.05786    
       138   0             -294.601       -192883.06     -75627.615     -75627.567     -427394         0.040833153   -3.5921648e-10  1.9172656e-11  5.4048293      7.0210793      17.365144      658.96788    
       139   0             -294.61996     -192823.64     -75521.055     -75521.007     -427428.85      0.040849268   -2.0478936e-10  2.4914084e-10  5.4047345      7.0209561      17.363383      658.87794    
       140   0             -294.63892     -192764.13     -75414.53      -75414.482     -427463.37      0.040865369    2.1673862e-11  1.9675098e-11  5.4046398      7.0208331      17.361622      658.78804    
       141   0             -294.65788     -192704.53     -75308.039     -75307.991     -427497.57      0.040881459   -1.8007453e-10 -2.6636517e-11  5.4045453      7.0207103      17.359861      658.69818    
       142   0             -294.67683     -192644.85     -75201.582     -75201.534     -427531.44      0.040897535   -2.1451303e-10  2.9027601e-10  5.4044509      7.0205877      17.3581        658.60837    
       143   0             -294.69578     -192585.09     -75095.159     -75095.111     -427564.99      0.040913599   -5.1110184e-10  5.5396469e-10  5.4043567      7.0204653      17.35634       658.51859    
       144   0             -294.71473     -192525.23     -74988.771     -74988.723     -427598.21      0.040929651   -5.217062e-10   8.2413576e-10  5.4042626      7.0203431      17.354579      658.42886    
       145   0             -294.73368     -192465.3      -74882.418     -74882.37      -427631.1       0.04094569    -3.1198407e-10  6.7386302e-10  5.4041687      7.020221       17.352818      658.33917    
       146   0             -294.75262     -192405.27     -74776.099     -74776.051     -427663.67      0.040961716   -6.0548862e-10  7.131929e-10   5.4040749      7.0200992      17.351057      658.24952    
       147   0             -294.77157     -192345.17     -74669.814     -74669.766     -427695.92      0.040977729   -6.788612e-10   8.0877241e-10  5.4039812      7.0199776      17.349296      658.15991    
       148   0             -294.79051     -192284.97     -74563.564     -74563.516     -427727.83      0.04099373    -3.8393454e-10  5.8647524e-10  5.4038877      7.0198561      17.347536      658.07034    
       149   0             -294.80944     -192224.69     -74457.349     -74457.301     -427759.42      0.041009718   -4.3942139e-10  4.9044152e-10  5.4037944      7.0197349      17.345775      657.98081    
       150   0             -294.82838     -192164.32     -74351.169     -74351.121     -427790.68      0.041025693   -6.2330269e-10  7.6828565e-10  5.4037012      7.0196138      17.344014      657.89132    
       151   0             -294.84731     -192103.87     -74245.024     -74244.976     -427821.62      0.041041655   -9.0111984e-10  6.354543e-10   5.4036082      7.0194929      17.342253      657.80188    
       152   0             -294.86624     -192043.33     -74138.913     -74138.865     -427852.22      0.041057605   -7.3966631e-10  6.9195799e-10  5.4035153      7.0193722      17.340492      657.71247    
       153   0             -294.88517     -191982.71     -74032.838     -74032.79      -427882.5       0.041073542   -9.4208379e-10  8.2645952e-10  5.4034225      7.0192517      17.338732      657.62311    
       154   0             -294.90409     -191922        -73926.797     -73926.749     -427912.44      0.041089466   -1.2619837e-09  1.002192e-09   5.4033299      7.0191314      17.336971      657.53379    
       155   0             -294.92301     -191861.2      -73820.792     -73820.744     -427942.06      0.041105377   -1.1732934e-09  1.1883573e-09  5.4032374      7.0190113      17.33521       657.44451    
       156   0             -294.94193     -191800.31     -73714.822     -73714.773     -427971.34      0.041121275   -1.0152917e-09  8.1248113e-10  5.4031451      7.0188914      17.333449      657.35526    
       157   0             -294.96085     -191739.34     -73608.887     -73608.838     -428000.3       0.041137161   -8.7193684e-10  5.6291232e-10  5.403053       7.0187717      17.331688      657.26606    
       158   0             -294.97977     -191678.28     -73502.987     -73502.939     -428028.92      0.041153034   -7.9132983e-10  4.7969632e-10  5.4029609      7.0186522      17.329927      657.1769     
       159   0             -294.99868     -191617.13     -73397.123     -73397.074     -428057.21      0.041168893   -1.1156766e-09  5.0548481e-10  5.4028691      7.0185328      17.328167      657.08778    
       160   0             -295.01759     -191555.9      -73291.294     -73291.245     -428085.17      0.04118474    -1.0959871e-09  3.9713356e-10  5.4027773      7.0184137      17.326406      656.9987     
       161   0             -295.0365      -191494.58     -73185.5       -73185.452     -428112.79      0.041200574   -6.7763053e-10  9.0197353e-11  5.4026858      7.0182947      17.324645      656.90967    
       162   0             -295.0554      -191433.17     -73079.742     -73079.694     -428140.08      0.041216395   -7.6141113e-10  1.5611213e-10  5.4025943      7.0181759      17.322884      656.82067    
       163   0             -295.0743      -191371.68     -72974.019     -72973.971     -428167.04      0.041232202   -3.8679746e-10 -6.1411025e-12  5.402503       7.0180573      17.321123      656.73171    
       164   0             -295.0932      -191310.09     -72868.333     -72868.284     -428193.67      0.041247997   -3.9045172e-10 -2.0587483e-11  5.4024119      7.0179389      17.319363      656.64279    
       165   0             -295.1121      -191248.42     -72762.682     -72762.633     -428219.96      0.041263778   -5.2021472e-10  3.8461155e-11  5.4023209      7.0178207      17.317602      656.55391    
       166   0             -295.13099     -191186.67     -72657.066     -72657.018     -428245.91      0.041279547   -3.5267575e-10 -1.3311192e-10  5.40223        7.0177027      17.315841      656.46508    
       167   0             -295.14989     -191124.82     -72551.487     -72551.438     -428271.53      0.041295302   -4.9801666e-10 -1.574642e-10   5.4021393      7.0175849      17.31408       656.37628    
       168   0             -295.16878     -191062.88     -72445.943     -72445.894     -428296.81      0.041311044   -2.8553623e-10 -2.7589848e-10  5.4020488      7.0174672      17.312319      656.28752    
       169   0             -295.18766     -191000.86     -72340.435     -72340.386     -428321.75      0.041326773   -6.3641505e-10 -1.9965171e-10  5.4019583      7.0173497      17.310559      656.1988     
       170   0             -295.20655     -190938.74     -72234.963     -72234.915     -428346.35      0.041342488   -7.4586172e-10 -1.5165008e-10  5.4018681      7.0172325      17.308798      656.11013    
       171   0             -295.22543     -190876.54     -72129.527     -72129.479     -428370.61      0.041358191   -1.081977e-09  -2.3941757e-10  5.4017779      7.0171154      17.307037      656.02149    
       172   0             -295.24431     -190814.24     -72024.128     -72024.079     -428394.53      0.041373881   -8.433336e-10  -1.5018258e-10  5.401688       7.0169985      17.305276      655.93289    
       173   0             -295.26319     -190751.86     -71918.764     -71918.715     -428418.1       0.041389556   -1.1395075e-09  1.9492322e-10  5.4015981      7.0168818      17.303515      655.84433    
       174   0             -295.28206     -190689.38     -71813.437     -71813.388     -428441.33      0.041405219   -7.5053049e-10 -3.0108218e-10  5.4015084      7.0167653      17.301754      655.75581    
       175   0             -295.30093     -190626.82     -71708.146     -71708.097     -428464.22      0.041420869   -7.265145e-10  -1.7161258e-11  5.4014189      7.0166489      17.299994      655.66734    
       176   0             -295.3198      -190564.17     -71602.891     -71602.842     -428486.76      0.041436505   -6.6712599e-10 -1.7907499e-11  5.4013295      7.0165328      17.298233      655.5789     
       177   0             -295.33867     -190501.42     -71497.672     -71497.623     -428508.96      0.041452128   -9.6755441e-10  1.9788709e-11  5.4012402      7.0164168      17.296472      655.4905     
       178   0             -295.35753     -190438.58     -71392.49      -71392.441     -428530.82      0.041467738   -1.092428e-09   5.841909e-11   5.4011511      7.0163011      17.294711      655.40214    
       179   0             -295.37639     -190375.66     -71287.344     -71287.296     -428552.33      0.041483335   -1.4697312e-09 -1.291395e-12   5.4010621      7.0161855      17.29295       655.31382    
       180   0             -295.39525     -190312.64     -71182.235     -71182.186     -428573.5       0.041498918   -1.7897345e-09  3.2458663e-10  5.4009733      7.0160701      17.29119       655.22554    
       181   0             -295.41411     -190249.53     -71077.163     -71077.114     -428594.32      0.041514488   -1.9937196e-09  6.0398136e-10  5.4008846      7.0159549      17.289429      655.1373     
       182   0             -295.43296     -190186.33     -70972.127     -70972.078     -428614.8       0.041530044   -2.0860408e-09  2.3668452e-10  5.400796       7.0158398      17.287668      655.0491     
       183   0             -295.45181     -190123.04     -70867.127     -70867.078     -428634.93      0.041545587   -1.9828908e-09  1.576534e-10   5.4007076      7.015725       17.285907      654.96093    
       184   0             -295.47066     -190059.66     -70762.164     -70762.116     -428654.71      0.041561116   -2.1204353e-09  4.8928368e-10  5.4006193      7.0156103      17.284146      654.87281    
       185   0             -295.4895      -189996.19     -70657.238     -70657.19      -428674.14      0.041576632   -2.0577143e-09  2.5916197e-10  5.4005312      7.0154958      17.282385      654.78473    
       186   0             -295.50835     -189932.63     -70552.349     -70552.3       -428693.23      0.041592135   -1.861581e-09   4.0825733e-10  5.4004432      7.0153816      17.280625      654.69668    
       187   0             -295.52719     -189868.97     -70447.497     -70447.448     -428711.97      0.041607624   -1.9318183e-09  4.0073039e-10  5.4003554      7.0152675      17.278864      654.60868    
       188   0             -295.54602     -189805.23     -70342.682     -70342.633     -428730.36      0.0416231     -1.6468286e-09  3.9969158e-10  5.4002677      7.0151535      17.277103      654.52071    
       189   0             -295.56486     -189741.39     -70237.903     -70237.854     -428748.4       0.041638562   -1.4572592e-09  5.2134054e-10  5.4001801      7.0150398      17.275342      654.43278    
       190   0             -295.58369     -189677.46     -70133.162     -70133.113     -428766.1       0.04165401    -1.624789e-09   3.3631655e-10  5.4000927      7.0149262      17.273581      654.34489    
       191   0             -295.60252     -189613.44     -70028.457     -70028.408     -428783.44      0.041669444   -1.5557481e-09  3.160366e-10   5.4000055      7.0148129      17.271821      654.25704    
       192   0             -295.62135     -189549.32     -69923.79      -69923.741     -428800.44      0.041684865   -1.7908353e-09  1.4249904e-10  5.3999183      7.0146997      17.27006       654.16923    
       193   0             -295.64017     -189485.12     -69819.16      -69819.111     -428817.08      0.041700273   -1.8376743e-09  4.6145204e-10  5.3998313      7.0145867      17.268299      654.08146    
       194   0             -295.65899     -189420.82     -69714.567     -69714.518     -428833.37      0.041715667   -2.0540282e-09  4.5895143e-10  5.3997445      7.0144739      17.266538      653.99373    
       195   0             -295.67781     -189356.43     -69610.011     -69609.962     -428849.31      0.041731047   -2.1015072e-09  1.2620602e-10  5.3996578      7.0143612      17.264777      653.90603    
       196   0             -295.69663     -189291.94     -69505.492     -69505.443     -428864.9       0.041746413   -2.1075704e-09  2.0095705e-10  5.3995712      7.0142488      17.263017      653.81838    
       197   0             -295.71544     -189227.37     -69401.011     -69400.962     -428880.12      0.041761766   -2.1258831e-09  1.9778444e-10  5.3994848      7.0141365      17.261256      653.73076    
       198   0             -295.73425     -189162.69     -69296.567     -69296.518     -428894.99      0.041777104   -1.9004518e-09  2.5425861e-11  5.3993985      7.0140244      17.259495      653.64318    
       199   0             -295.75306     -189097.93     -69192.161     -69192.112     -428909.51      0.04179243    -1.8014649e-09 -2.5443845e-10  5.3993123      7.0139125      17.257734      653.55564    
       200   0             -295.77186     -189033.07     -69087.792     -69087.743     -428923.66      0.041807741   -2.0614146e-09  1.6127906e-10  5.3992263      7.0138008      17.255973      653.46814    
       201   0             -295.79067     -188968.11     -68983.46      -68983.411     -428937.46      0.041823038   -2.3382674e-09 -7.9976003e-12  5.3991405      7.0136892      17.254212      653.38068    
       202   0             -295.80947     -188903.06     -68879.166     -68879.117     -428950.9       0.041838322   -1.9679595e-09 -1.1287688e-10  5.3990547      7.0135779      17.252452      653.29325    
       203   0             -295.82826     -188837.92     -68774.91      -68774.861     -428963.98      0.041853592   -2.2442514e-09  2.4705993e-10  5.3989692      7.0134667      17.250691      653.20587    
       204   0             -295.84706     -188772.68     -68670.691     -68670.642     -428976.7       0.041868849   -2.4766296e-09  4.8934741e-10  5.3988837      7.0133557      17.24893       653.11852    
       205   0             -295.86585     -188707.34     -68566.51      -68566.461     -428989.06      0.041884091   -2.4372881e-09  9.6519587e-10  5.3987984      7.0132449      17.247169      653.03121    
       206   0             -295.88464     -188641.92     -68462.366     -68462.317     -429001.06      0.04189932    -2.7648667e-09  7.5314747e-10  5.3987132      7.0131342      17.245408      652.94394    
       207   0             -295.90342     -188576.39     -68358.261     -68358.211     -429012.71      0.041914534   -2.685936e-09   7.6906656e-10  5.3986282      7.0130238      17.243648      652.85671    
       208   0             -295.9222      -188510.77     -68254.193     -68254.143     -429023.98      0.041929735   -2.8636739e-09  1.0575483e-09  5.3985433      7.0129135      17.241887      652.76951    
       209   0             -295.94098     -188445.06     -68150.163     -68150.113     -429034.9       0.041944921   -2.8699537e-09  7.7434315e-10  5.3984586      7.0128034      17.240126      652.68235    
       210   0             -295.95976     -188379.25     -68046.17      -68046.121     -429045.46      0.041960094   -2.6137175e-09  8.1691699e-10  5.398374       7.0126935      17.238365      652.59524    
       211   0             -295.97854     -188313.35     -67942.216     -67942.166     -429055.65      0.041975252   -2.7942447e-09  6.0973046e-10  5.3982895      7.0125838      17.236604      652.50815    
       212   0             -295.99731     -188247.34     -67838.299     -67838.25      -429065.48      0.041990397   -2.5874437e-09  4.4636305e-10  5.3982051      7.0124742      17.234844      652.42111    
       213   0             -296.01608     -188181.25     -67734.421     -67734.371     -429074.95      0.042005527   -2.4898571e-09  1.6184197e-10  5.3981209      7.0123648      17.233083      652.33411    
       214   0             -296.03484     -188115.06     -67630.58      -67630.531     -429084.06      0.042020643   -2.272983e-09   5.0848221e-10  5.3980369      7.0122556      17.231322      652.24714    
       215   0             -296.05361     -188048.77     -67526.778     -67526.728     -429092.8       0.042035849   -2.4598314e-09  4.265027e-10   5.397953       7.0121466      17.229561      652.16021    
       216   0             -296.07237     -187982.38     -67423.013     -67422.963     -429101.18      0.04205105    -2.2295265e-09  7.0200055e-10  5.3978692      7.0120378      17.2278        652.07332    
       217   0             -296.09112     -187915.9      -67319.286     -67319.236     -429109.19      0.042066237   -2.2892905e-09  5.7352837e-10  5.3977855      7.0119291      17.226039      651.98646    
       218   0             -296.10988     -187849.33     -67215.596     -67215.547     -429116.84      0.04208141    -2.3785774e-09  5.6714585e-10  5.397702       7.0118206      17.224279      651.89965    
       219   0             -296.12863     -187782.65     -67111.945     -67111.895     -429124.12      0.042096568   -2.3770981e-09  6.6351453e-10  5.3976187      7.0117123      17.222518      651.81287    
       220   0             -296.14738     -187715.88     -67008.331     -67008.282     -429131.04      0.042111713   -2.7641522e-09  4.3106503e-10  5.3975354      7.0116042      17.220757      651.72613    
       221   0             -296.16612     -187649.02     -66904.756     -66904.706     -429137.59      0.042126843   -2.9060839e-09  1.8319008e-11  5.3974523      7.0114963      17.218996      651.63942    
       222   0             -296.18487     -187582.05     -66801.218     -66801.168     -429143.77      0.042141959   -3.0170482e-09  1.2257744e-10  5.3973694      7.0113885      17.217235      651.55276    
       223   0             -296.20361     -187514.99     -66697.718     -66697.668     -429149.59      0.04215706    -2.7126407e-09  2.2174296e-10  5.3972865      7.0112809      17.215475      651.46613    
       224   0             -296.22234     -187447.83     -66594.257     -66594.207     -429155.03      0.042172147   -2.8161815e-09  3.3325102e-10  5.3972038      7.0111735      17.213714      651.37954    
       225   0             -296.24108     -187380.57     -66490.833     -66490.783     -429160.11      0.04218722    -2.7132063e-09  4.3272525e-10  5.3971213      7.0110662      17.211953      651.29298    
       226   0             -296.25981     -187313.22     -66387.447     -66387.398     -429164.81      0.04220228    -2.7674041e-09  2.6498558e-10  5.3970389      7.0109592      17.210192      651.20647    
       227   0             -296.27854     -187245.76     -66284.1       -66284.05      -429169.13      0.042217324   -3.0094129e-09  1.8591767e-10  5.3969566      7.0108523      17.208431      651.11999    
       228   0             -296.29726     -187178.21     -66180.791     -66180.741     -429173.08      0.042232354   -2.5195556e-09  8.4943373e-10  5.3968745      7.0107456      17.20667       651.03354    
       229   0             -296.31599     -187110.55     -66077.52      -66077.47      -429176.66      0.04224737    -2.6533754e-09  4.4642856e-10  5.3967925      7.0106391      17.20491       650.94714    
       230   0             -296.33471     -187042.8      -65974.287     -65974.237     -429179.87      0.042262372   -2.7099953e-09  4.2833011e-10  5.3967106      7.0105327      17.203149      650.86077    
       231   0             -296.35342     -186974.94     -65871.092     -65871.042     -429182.7       0.042277358   -2.583698e-09   4.0563189e-10  5.3966289      7.0104265      17.201388      650.77444    
       232   0             -296.37214     -186906.99     -65767.936     -65767.886     -429185.16      0.04229233    -2.4460881e-09  2.4570096e-10  5.3965473      7.0103205      17.199627      650.68815    
       233   0             -296.39085     -186838.94     -65664.818     -65664.768     -429187.24      0.042307288   -2.2942241e-09  6.9210191e-11  5.3964658      7.0102147      17.197866      650.60189    
       234   0             -296.40956     -186770.79     -65561.738     -65561.688     -429188.94      0.042322231   -2.3633394e-09  1.0067218e-10  5.3963845      7.0101091      17.196106      650.51567    
       235   0             -296.42826     -186702.54     -65458.696     -65458.646     -429190.27      0.042337159   -2.3152965e-09 -1.5979645e-10  5.3963033      7.0100036      17.194345      650.42949    
       236   0             -296.44696     -186634.19     -65355.694     -65355.643     -429191.22      0.042352073   -2.3332498e-09  7.4158268e-11  5.3962222      7.0098983      17.192584      650.34334    
       237   0             -296.46566     -186565.74     -65252.729     -65252.679     -429191.8       0.042366972   -2.1172821e-09  1.968619e-10   5.3961413      7.0097932      17.190823      650.25723    
       238   0             -296.48436     -186497.18     -65149.803     -65149.753     -429192         0.042381857   -2.4929426e-09  3.4887313e-10  5.3960605      7.0096882      17.189062      650.17116    
       239   0             -296.50305     -186428.53     -65046.915     -65046.865     -429191.82      0.042396727   -2.5761267e-09  2.5961963e-10  5.3959798      7.0095835      17.187302      650.08512    
       240   0             -296.52174     -186359.78     -64944.066     -64944.016     -429191.26      0.042411582   -2.618446e-09   2.6231482e-10  5.3958993      7.0094789      17.185541      649.99912    
       241   0             -296.54043     -186290.93     -64841.256     -64841.205     -429190.33      0.042426423   -2.8119197e-09 -3.6986993e-11  5.3958189      7.0093744      17.18378       649.91316    
       242   0             -296.55911     -186221.98     -64738.484     -64738.433     -429189.01      0.042441249   -2.9747357e-09  6.8248231e-11  5.3957387      7.0092702      17.182019      649.82723    
       243   0             -296.57779     -186152.92     -64635.75      -64635.7       -429187.32      0.042456061   -3.3150098e-09  2.1245873e-10  5.3956586      7.0091661      17.180258      649.74134    
       244   0             -296.59647     -186083.77     -64533.055     -64533.005     -429185.25      0.042470857   -3.3699531e-09  4.2538478e-10  5.3955786      7.0090622      17.178497      649.65549    
       245   0             -296.61514     -186014.51     -64430.399     -64430.349     -429182.79      0.042485638   -3.4906484e-09  8.3612592e-11  5.3954987      7.0089585      17.176737      649.56967    
       246   0             -296.63381     -185945.16     -64327.782     -64327.731     -429179.96      0.042500405   -3.5736363e-09  3.1740442e-11  5.395419       7.0088549      17.174976      649.48389    
       247   0             -296.65248     -185875.7      -64225.203     -64225.153     -429176.75      0.042515157   -3.6539532e-09  1.8180606e-10  5.3953394      7.0087515      17.173215      649.39815    
       248   0             -296.67115     -185806.14     -64122.663     -64122.612     -429173.15      0.042529894   -3.7027702e-09  2.6832213e-10  5.39526        7.0086483      17.171454      649.31244    
       249   0             -296.68981     -185736.48     -64020.161     -64020.111     -429169.18      0.042544616   -3.9672444e-09  4.0759229e-11  5.3951807      7.0085453      17.169693      649.22677    
       250   0             -296.70847     -185666.72     -63917.699     -63917.648     -429164.82      0.042559324   -3.9590477e-09 -2.545758e-11   5.3951015      7.0084424      17.167933      649.14113    
       251   0             -296.72712     -185596.86     -63815.275     -63815.225     -429160.08      0.042574017   -3.58148e-09    1.8839e-10     5.3950224      7.0083397      17.166172      649.05553    
       252   0             -296.74578     -185526.9      -63712.89      -63712.84      -429154.96      0.042588695   -3.8811103e-09  5.3506592e-10  5.3949435      7.0082372      17.164411      648.96997    
       253   0             -296.76443     -185456.83     -63610.544     -63610.493     -429149.44      0.042603357   -3.8662933e-09  3.7477475e-10  5.3948647      7.0081349      17.16265       648.88444    
       254   0             -296.78307     -185386.65     -63508.236     -63508.186     -429143.54      0.042618005   -4.2633089e-09  4.3783516e-10  5.3947861      7.0080327      17.160889      648.79895    
       255   0             -296.80171     -185316.38     -63405.968     -63405.917     -429137.25      0.042632639   -4.316717e-09   8.6971518e-10  5.3947076      7.0079307      17.159129      648.71349    
       256   0             -296.82036     -185246        -63303.738     -63303.688     -429130.57      0.042647257   -4.338449e-09   6.1740788e-10  5.3946292      7.0078289      17.157368      648.62808    
       257   0             -296.83899     -185175.52     -63201.547     -63201.497     -429123.51      0.04266186    -4.2981355e-09  1.0872945e-09  5.3945509      7.0077272      17.155607      648.54269    
       258   0             -296.85763     -185104.93     -63099.396     -63099.345     -429116.05      0.042676447   -3.9704109e-09  8.9810472e-10  5.3944728      7.0076257      17.153846      648.45734    
       259   0             -296.87626     -185034.24     -62997.283     -62997.232     -429108.21      0.04269102    -4.2656289e-09  9.2319187e-10  5.3943948      7.0075244      17.152085      648.37203    
       260   0             -296.89488     -184963.45     -62895.209     -62895.158     -429099.97      0.042705578   -4.1981478e-09  1.4261405e-09  5.3943169      7.0074233      17.150324      648.28676    
       261   0             -296.91351     -184892.55     -62793.174     -62793.123     -429091.34      0.04272012    -3.7046982e-09  1.0253235e-09  5.3942392      7.0073223      17.148564      648.20152    
       262   0             -296.93213     -184821.54     -62691.178     -62691.127     -429082.33      0.042734648   -3.7363962e-09  6.8998442e-10  5.3941616      7.0072215      17.146803      648.11631    
       263   0             -296.95075     -184750.44     -62589.221     -62589.17      -429072.92      0.04274916    -3.8166691e-09  5.3795321e-10  5.3940841      7.0071209      17.145042      648.03114    
       264   0             -296.96936     -184679.23     -62487.303     -62487.252     -429063.12      0.042763657   -3.962666e-09   7.3878083e-10  5.3940068      7.0070204      17.143281      647.94601    
       265   0             -296.98797     -184607.91     -62385.424     -62385.374     -429052.93      0.042778139   -4.0129162e-09  7.9654675e-10  5.3939296      7.0069201      17.14152       647.86091    
       266   0             -297.00658     -184536.49     -62283.585     -62283.534     -429042.35      0.042792606   -3.5758896e-09  6.2361333e-10  5.3938525      7.00682        17.13976       647.77585    
       267   0             -297.02519     -184464.97     -62181.784     -62181.733     -429031.38      0.042807057   -3.6813997e-09  1.8918122e-10  5.3937756      7.00672        17.137999      647.69082    
       268   0             -297.04379     -184393.34     -62080.022     -62079.971     -429020.01      0.042821492   -3.4705549e-09  3.337204e-10   5.3936988      7.0066202      17.136238      647.60583    
       269   0             -297.06239     -184321.6      -61978.3       -61978.249     -429008.25      0.042835913   -3.8162994e-09  6.0995978e-10  5.3936221      7.0065206      17.134477      647.52088    
       270   0             -297.08098     -184249.76     -61876.616     -61876.565     -428996.1       0.042850317   -3.6866805e-09  3.4286136e-10  5.3935455      7.0064212      17.132716      647.43595    
       271   0             -297.09957     -184177.82     -61774.972     -61774.921     -428983.55      0.042864707   -3.4761334e-09  4.7345224e-10  5.3934691      7.0063219      17.130956      647.35107    
       272   0             -297.11816     -184105.77     -61673.367     -61673.316     -428970.61      0.042879082   -3.6777501e-09  7.3993486e-10  5.3933928      7.0062228      17.129195      647.26622    
       273   0             -297.13675     -184033.61     -61571.801     -61571.75      -428957.28      0.042893441   -3.7952914e-09  1.1930703e-09  5.3933167      7.0061239      17.127434      647.1814     
       274   0             -297.15533     -183961.35     -61470.274     -61470.223     -428943.55      0.042907786   -3.7035994e-09  9.0020612e-10  5.3932406      7.0060251      17.125673      647.09662    
       275   0             -297.17391     -183888.98     -61368.787     -61368.736     -428929.42      0.042922115   -3.9022841e-09  9.749526e-10   5.3931647      7.0059265      17.123912      647.01188    
       276   0             -297.19248     -183816.51     -61267.338     -61267.287     -428914.9       0.042936428   -4.1623337e-09  1.3284633e-09  5.3930889      7.0058281      17.122151      646.92717    
       277   0             -297.21105     -183743.93     -61165.929     -61165.878     -428899.99      0.042950726   -4.3361665e-09  1.2027604e-09  5.3930133      7.0057298      17.120391      646.8425     
       278   0             -297.22962     -183671.25     -61064.559     -61064.508     -428884.67      0.042965008   -4.4489861e-09  1.4000858e-09  5.3929378      7.0056317      17.11863       646.75786    
       279   0             -297.24819     -183598.46     -60963.228     -60963.177     -428868.96      0.042979275   -4.377088e-09   1.1796863e-09  5.3928624      7.0055338      17.116869      646.67325    
       280   0             -297.26675     -183525.56     -60861.937     -60861.886     -428852.85      0.042993527   -4.3593479e-09  1.268281e-09   5.3927871      7.005436       17.115108      646.58868    
       281   0             -297.28531     -183452.55     -60760.685     -60760.634     -428836.34      0.043007762   -4.1336955e-09  1.3834585e-09  5.392712       7.0053384      17.113347      646.50415    
       282   0             -297.30386     -183379.44     -60659.472     -60659.421     -428819.43      0.043021982   -4.3422603e-09  1.6693947e-09  5.392637       7.005241       17.111587      646.41965    
       283   0             -297.32241     -183306.22     -60558.298     -60558.247     -428802.11      0.043036186   -4.8425268e-09  1.5668841e-09  5.3925622      7.0051437      17.109826      646.33518    
       284   0             -297.34096     -183232.89     -60457.163     -60457.112     -428784.39      0.043050375   -4.9847876e-09  1.6742342e-09  5.3924874      7.0050467      17.108065      646.25075    
       285   0             -297.35951     -183159.45     -60356.068     -60356.017     -428766.26      0.043064548   -4.8474552e-09  1.4993956e-09  5.3924128      7.0049497      17.106304      646.16636    
       286   0             -297.37805     -183085.9      -60255.012     -60254.961     -428747.74      0.043078706   -4.9368369e-09  1.5056043e-09  5.3923383      7.004853       17.104543      646.082      
       287   0             -297.39659     -183012.25     -60153.995     -60153.944     -428728.81      0.043092847   -5.3660087e-09  1.3003431e-09  5.392264       7.0047564      17.102782      645.99767    
       288   0             -297.41512     -182938.49     -60053.018     -60052.967     -428709.47      0.043106973   -5.6439796e-09  1.6147571e-09  5.3921897      7.00466        17.101022      645.91338    
       289   0             -297.43365     -182864.61     -59952.08      -59952.029     -428689.73      0.043121083   -6.2636461e-09  1.097451e-09   5.3921156      7.0045637      17.099261      645.82912    
       290   0             -297.45218     -182790.63     -59851.181     -59851.13      -428669.59      0.043135177   -5.9330207e-09  1.3816902e-09  5.3920417      7.0044676      17.0975        645.7449     
       291   0             -297.4707      -182716.54     -59750.322     -59750.271     -428649.04      0.043149256   -5.8332204e-09  1.4728641e-09  5.3919678      7.0043717      17.095739      645.66071    
       292   0             -297.48922     -182642.35     -59649.502     -59649.45      -428628.09      0.043163319   -5.7553259e-09  1.3220009e-09  5.3918941      7.0042759      17.093978      645.57655    
       293   0             -297.50774     -182568.04     -59548.721     -59548.67      -428606.72      0.043177365   -6.0106797e-09  1.5432054e-09  5.3918205      7.0041803      17.092218      645.49244    
       294   0             -297.52625     -182493.62     -59447.979     -59447.928     -428584.96      0.043191396   -6.1055552e-09  1.5188953e-09  5.391747       7.0040849      17.090457      645.40835    
       295   0             -297.54476     -182419.1      -59347.277     -59347.226     -428562.79      0.043205411   -5.668642e-09   1.2899089e-09  5.3916737      7.0039896      17.088696      645.3243     
       296   0             -297.56327     -182344.46     -59246.614     -59246.563     -428540.21      0.043219411   -5.376472e-09   1.0753652e-09  5.3916005      7.0038945      17.086935      645.24028    
       297   0             -297.58177     -182269.72     -59145.991     -59145.939     -428517.22      0.043233394   -5.3471308e-09  1.1369522e-09  5.3915274      7.0037996      17.085174      645.1563     
       298   0             -297.60027     -182194.86     -59045.407     -59045.355     -428493.83      0.043247362   -5.3166353e-09  1.3307005e-09  5.3914545      7.0037048      17.083414      645.07235    
       299   0             -297.61877     -182119.9      -58944.862     -58944.81      -428470.02      0.043261314   -5.2770796e-09  1.4171573e-09  5.3913816      7.0036102      17.081653      644.98844    
       300   0             -297.63726     -182044.83     -58844.356     -58844.305     -428445.82      0.04327525    -5.3488654e-09  1.532389e-09   5.3913089      7.0035158      17.079892      644.90456    
       301   0             -297.65575     -181969.64     -58743.89      -58743.838     -428421.2       0.04328917    -5.2053026e-09  1.6693271e-09  5.3912363      7.0034215      17.078131      644.82071    
       302   0             -297.67423     -181894.35     -58643.463     -58643.411     -428396.17      0.043303074   -5.1902592e-09  1.6654796e-09  5.3911639      7.0033274      17.07637       644.7369     
       303   0             -297.69272     -181818.94     -58543.075     -58543.024     -428370.74      0.043316961   -5.3794914e-09  1.4213181e-09  5.3910916      7.0032334      17.074609      644.65312    
       304   0             -297.71119     -181743.43     -58442.727     -58442.675     -428344.89      0.043330833   -5.4242953e-09  1.7011703e-09  5.3910194      7.0031396      17.072849      644.56938    
       305   0             -297.72967     -181667.81     -58342.418     -58342.366     -428318.64      0.043344689   -5.3568126e-09  1.9935743e-09  5.3909473      7.003046       17.071088      644.48567    
       306   0             -297.74814     -181592.07     -58242.148     -58242.097     -428291.97      0.043358528   -5.2205043e-09  1.6210466e-09  5.3908754      7.0029525      17.069327      644.40199    
       307   0             -297.76661     -181516.23     -58141.918     -58141.866     -428264.9       0.043372351   -5.6585519e-09  1.6886761e-09  5.3908035      7.0028592      17.067566      644.31835    
       308   0             -297.78507     -181440.27     -58041.727     -58041.675     -428237.41      0.043386158   -5.8571289e-09  1.7434855e-09  5.3907318      7.0027661      17.065805      644.23474    
       309   0             -297.80353     -181364.2      -57941.575     -57941.523     -428209.5       0.043399948   -5.6497047e-09  1.2614504e-09  5.3906603      7.0026731      17.064045      644.15116    
       310   0             -297.82199     -181288.02     -57841.463     -57841.411     -428181.18      0.043413723   -5.4834449e-09  1.4587248e-09  5.3905888      7.0025803      17.062284      644.06762    
       311   0             -297.84044     -181211.72     -57741.39      -57741.338     -428152.44      0.043427482   -5.3163423e-09  8.6588703e-10  5.3905175      7.0024877      17.060523      643.98412    
       312   0             -297.85889     -181135.31     -57641.356     -57641.304     -428123.28      0.043441224   -5.3778105e-09  1.1411961e-09  5.3904463      7.0023952      17.058762      643.90064    
       313   0             -297.87733     -181058.79     -57541.361     -57541.309     -428093.71      0.04345495    -5.0447071e-09  1.1022651e-09  5.3903753      7.0023029      17.057001      643.8172     
       314   0             -297.89577     -180982.16     -57441.406     -57441.354     -428063.72      0.04346866    -5.3962851e-09  1.6000433e-09  5.3903043      7.0022107      17.055241      643.73379    
       315   0             -297.91421     -180905.41     -57341.49      -57341.438     -428033.32      0.043482353   -5.206158e-09   1.4958705e-09  5.3902335      7.0021187      17.05348       643.65042    
       316   0             -297.93265     -180828.56     -57241.613     -57241.561     -428002.49      0.04349603    -5.1726798e-09  1.7222977e-09  5.3901628      7.0020269      17.051719      643.56708    
       317   0             -297.95108     -180751.58     -57141.776     -57141.724     -427971.25      0.04350969    -5.0865219e-09  1.6159039e-09  5.3900922      7.0019352      17.049958      643.48377    
       318   0             -297.9695      -180674.5      -57041.977     -57041.925     -427939.59      0.043523334   -5.2876763e-09  1.4724981e-09  5.3900218      7.0018437      17.048197      643.4005     
       319   0             -297.98793     -180597.3      -56942.218     -56942.166     -427907.51      0.043536962   -5.2624259e-09  1.8535928e-09  5.3899515      7.0017523      17.046436      643.31726    
       320   0             -298.00634     -180519.99     -56842.498     -56842.447     -427875.01      0.043550574   -5.3742287e-09  1.95333e-09    5.3898813      7.0016612      17.044676      643.23405    
       321   0             -298.02476     -180442.56     -56742.818     -56742.766     -427842.1       0.043564169   -5.5492964e-09  1.716325e-09   5.3898112      7.0015701      17.042915      643.15088    
       322   0             -298.04317     -180365.02     -56643.177     -56643.125     -427808.76      0.043577748   -5.2222739e-09  1.5107737e-09  5.3897412      7.0014793      17.041154      643.06774    
       323   0             -298.06158     -180287.37     -56543.574     -56543.523     -427775.01      0.043591309   -4.875333e-09   1.5909267e-09  5.3896714      7.0013886      17.039393      642.98463    
       324   0             -298.07998     -180209.6      -56444.011     -56443.96      -427740.83      0.043604855   -4.903697e-09   1.7025101e-09  5.3896017      7.001298       17.037632      642.90156    
       325   0             -298.09838     -180131.72     -56344.488     -56344.436     -427706.23      0.043618384   -5.0673571e-09  1.7843299e-09  5.3895321      7.0012076      17.035872      642.81852    
       326   0             -298.11678     -180053.72     -56245.003     -56244.951     -427671.21      0.043631897   -4.8236598e-09  1.8993493e-09  5.3894627      7.0011174      17.034111      642.73551    
       327   0             -298.13517     -179975.61     -56145.558     -56145.506     -427635.78      0.043645394   -4.8304914e-09  2.1965081e-09  5.3893933      7.0010273      17.03235       642.65254    
       328   0             -298.15356     -179897.39     -56046.151     -56046.099     -427599.92      0.043658874   -4.5605094e-09  2.23334e-09    5.3893241      7.0009374      17.030589      642.56959    
       329   0             -298.17194     -179819.05     -55946.784     -55946.732     -427563.64      0.043672337   -4.8809838e-09  1.8135883e-09  5.389255       7.0008477      17.028828      642.48669    
       330   0             -298.19032     -179740.6      -55847.456     -55847.404     -427526.93      0.043685783   -5.3496612e-09  2.0491791e-09  5.3891861      7.0007581      17.027068      642.40381    
       331   0             -298.2087      -179662.03     -55748.167     -55748.115     -427489.81      0.043699213   -5.1237949e-09  2.2318496e-09  5.3891172      7.0006687      17.025307      642.32097    
       332   0             -298.22707     -179583.35     -55648.917     -55648.865     -427452.26      0.043712626   -5.3405597e-09  1.8893397e-09  5.3890485      7.0005794      17.023546      642.23816    
       333   0             -298.24544     -179504.55     -55549.706     -55549.654     -427414.29      0.043726022   -5.1471529e-09  2.2104155e-09  5.3889799      7.0004903      17.021785      642.15538    
       334   0             -298.26381     -179425.64     -55450.534     -55450.482     -427375.9       0.043739402   -4.8572462e-09  2.2778646e-09  5.3889114      7.0004013      17.020024      642.07263    
       335   0             -298.28217     -179346.61     -55351.401     -55351.349     -427337.08      0.043752764   -4.8089348e-09  2.5282405e-09  5.3888431      7.0003125      17.018263      641.98992    
       336   0             -298.30053     -179267.47     -55252.307     -55252.255     -427297.84      0.043766253   -4.7897618e-09  2.8201024e-09  5.3887749      7.0002239      17.016503      641.90724    
       337   0             -298.31888     -179188.2      -55153.252     -55153.2       -427258.16      0.043779687   -4.7189489e-09  2.2419868e-09  5.3887068      7.0001354      17.014742      641.8246     
       338   0             -298.33723     -179108.83     -55054.235     -55054.183     -427218.06      0.043793106   -5.0277861e-09  2.3776371e-09  5.3886388      7.0000471      17.012981      641.74198    
       339   0             -298.35558     -179029.33     -54955.257     -54955.205     -427177.53      0.043806507   -5.1973937e-09  2.6330974e-09  5.3885709      6.999959       17.01122       641.6594     
       340   0             -298.37392     -178949.72     -54856.318     -54856.266     -427136.57      0.043819891   -5.619942e-09   2.5717925e-09  5.3885032      6.999871       17.009459      641.57685    
       341   0             -298.39225     -178869.99     -54757.417     -54757.365     -427095.17      0.043833259   -5.8172903e-09  2.5560548e-09  5.3884355      6.9997831      17.007699      641.49434    
       342   0             -298.41059     -178790.14     -54658.555     -54658.503     -427053.35      0.043846609   -5.9219465e-09  2.7413759e-09  5.388368       6.9996954      17.005938      641.41185    
       343   0             -298.42892     -178710.17     -54559.732     -54559.68      -427011.1       0.043859942   -5.8079299e-09  2.6936622e-09  5.3883007      6.9996079      17.004177      641.3294     
       344   0             -298.44724     -178630.09     -54460.947     -54460.895     -426968.42      0.043873259   -5.4780947e-09  2.9920877e-09  5.3882334      6.9995206      17.002416      641.24698    
       345   0             -298.46556     -178549.89     -54362.201     -54362.149     -426925.31      0.043886558   -5.6167762e-09  3.2359503e-09  5.3881663      6.9994333      17.000655      641.1646     
       346   0             -298.48388     -178469.57     -54263.493     -54263.441     -426881.76      0.043899841   -5.3311748e-09  3.8231925e-09  5.3880993      6.9993463      16.998894      641.08224    
       347   0             -298.50219     -178389.13     -54164.824     -54164.772     -426837.79      0.043913106   -5.3358144e-09  4.3466496e-09  5.3880324      6.9992594      16.997134      640.99992    
       348   0             -298.5205      -178308.57     -54066.194     -54066.141     -426793.38      0.043926355   -5.20847e-09    4.3556082e-09  5.3879656      6.9991727      16.995373      640.91763    
       349   0             -298.53881     -178227.9      -53967.601     -53967.549     -426748.54      0.043939587   -5.3521248e-09  4.3068721e-09  5.3878989      6.9990861      16.993612      640.83537    
       350   0             -298.55711     -178147.1      -53869.048     -53868.995     -426703.27      0.043952802   -5.4417145e-09  4.6312609e-09  5.3878324      6.9989996      16.991851      640.75315    
       351   0             -298.57541     -178066.19     -53770.532     -53770.48      -426657.57      0.043965999   -5.4064732e-09  4.336896e-09   5.387766       6.9989134      16.99009       640.67095    
       352   0             -298.5937      -177985.16     -53672.055     -53672.003     -426611.43      0.043979179   -5.4563868e-09  4.392381e-09   5.3876997      6.9988273      16.98833       640.58879    
[...]
      1272   0             -349.60216     -14656.023      72553.554      86577.793     -203099.41     -70197.629     -17410.005     -6375.3904      5.3681244      6.9733983      15.847322      593.22977    
      1273   0             -349.60216     -14656.023      72553.554      86577.793     -203099.41     -70197.629     -17410.005     -6375.3904      5.3681244      6.9733983      15.847322      593.22977    
      1274   0             -349.60216     -14656.022      72553.554      86577.793     -203099.41     -70197.629     -17410.005     -6375.3903      5.3681244      6.9733983      15.847322      593.22977    
      1275   0             -349.60216     -14656.022      72553.554      86577.793     -203099.41     -70197.629     -17410.005     -6375.3903      5.3681244      6.9733983      15.847322      593.22977    
      1276   0             -349.60216     -14656.022      72553.554      86577.793     -203099.41     -70197.629     -17410.005     -6375.3903      5.3681244      6.9733983      15.847322      593.22977    
      1277   0             -349.60216     -14656.022      72553.554      86577.793     -203099.41     -70197.629     -17410.005     -6375.3902      5.3681244      6.9733983      15.847322      593.22977    
      1278   0             -349.60216     -14656.022      72553.554      86577.793     -203099.41     -70197.629     -17410.005     -6375.3902      5.3681244      6.9733983      15.847322      593.22977    
      1279   0             -349.60216     -14656.022      72553.554      86577.793     -203099.41     -70197.629     -17410.005     -6375.3902      5.3681244      6.9733983      15.847322      593.22977    
      1280   0             -349.60216     -14656.022      72553.554      86577.793     -203099.41     -70197.629     -17410.005     -6375.3902      5.3681244      6.9733983      15.847322      593.22977    
      1281   0             -349.60216     -14656.022      72553.554      86577.793     -203099.41     -70197.629     -17410.005     -6375.3902      5.3681244      6.9733983      15.847322      593.22977    
      1282   0             -349.60216     -14656.022      72553.554      86577.793     -203099.41     -70197.629     -17410.005     -6375.3902      5.3681244      6.9733983      15.847322      593.22977    
      1283   0             -349.60216     -14656.022      72553.554      86577.793     -203099.41     -70197.629     -17410.005     -6375.3902      5.3681244      6.9733983      15.847322      593.22977    
      1284   0             -349.60216     -14656.022      72553.554      86577.793     -203099.41     -70197.629     -17410.005     -6375.3902      5.3681244      6.9733983      15.847322      593.22977    
      1285   0             -349.60216     -14656.022      72553.554      86577.793     -203099.41     -70197.629     -17410.005     -6375.3902      5.3681244      6.9733983      15.847322      593.22977    
      1286   0             -349.60216     -14656.022      72553.554      86577.792     -203099.41     -70197.629     -17410.005     -6375.3902      5.3681244      6.9733983      15.847322      593.22977    
      1287   0             -349.60216     -14656.022      72553.554      86577.793     -203099.41     -70197.629     -17410.005     -6375.3902      5.3681244      6.9733983      15.847322      593.22977    
      1288   0             -349.60216     -14656.022      72553.554      86577.793     -203099.41     -70197.629     -17410.005     -6375.3902      5.3681244      6.9733983      15.847322      593.22977    
      1289   0             -349.60216     -14656.022      72553.554      86577.793     -203099.41     -70197.629     -17410.005     -6375.3902      5.3681244      6.9733983      15.847322      593.22977    
      1290   0             -349.60216     -14656.022      72553.554      86577.793     -203099.41     -70197.629     -17410.005     -6375.3902      5.3681244      6.9733983      15.847322      593.22977    
      1291   0             -349.60216     -14656.022      72553.554      86577.793     -203099.41     -70197.629     -17410.005     -6375.3902      5.3681244      6.9733983      15.847322      593.22977    
      1292   0             -349.60216     -14656.022      72553.554      86577.793     -203099.41     -70197.629     -17410.005     -6375.3902      5.3681244      6.9733983      15.847322      593.22977    
      1293   0             -349.60216     -14656.022      72553.554      86577.793     -203099.41     -70197.629     -17410.005     -6375.3902      5.3681244      6.9733983      15.847322      593.22977    
      1294   0             -349.60216     -14656.022      72553.554      86577.793     -203099.41     -70197.629     -17410.005     -6375.3902      5.3681244      6.9733983      15.847322      593.22977    
      1295   0             -349.60216     -14656.022      72553.554      86577.793     -203099.41     -70197.629     -17410.005     -6375.3902      5.3681244      6.9733983      15.847322      593.22977    
      1296   0             -349.60216     -14656.022      72553.554      86577.793     -203099.41     -70197.629     -17410.005     -6375.3902      5.3681244      6.9733983      15.847322      593.22977    
      1297   0             -349.60216     -14656.022      72553.554      86577.792     -203099.41     -70197.629     -17410.005     -6375.3902      5.3681244      6.9733983      15.847322      593.22977    
      1298   0             -349.60216     -14656.022      72553.554      86577.792     -203099.41     -70197.629     -17410.005     -6375.3902      5.3681244      6.9733983      15.847322      593.22977    
      1299   0             -349.60216     -14656.022      72553.554      86577.792     -203099.41     -70197.629     -17410.005     -6375.3902      5.3681244      6.9733983      15.847322      593.22977    
      1300   0             -349.60216     -14656.022      72553.554      86577.792     -203099.41     -70197.629     -17410.005     -6375.3902      5.3681244      6.9733983      15.847322      593.22977    
      1301   0             -349.60216     -14656.022      72553.554      86577.792     -203099.41     -70197.629     -17410.005     -6375.3902      5.3681244      6.9733983      15.847322      593.22977    
      1302   0             -349.60216     -14656.022      72553.554      86577.792     -203099.41     -70197.629     -17410.005     -6375.3902      5.3681244      6.9733983      15.847322      593.22977    
      1303   0             -349.60216     -14656.022      72553.554      86577.792     -203099.41     -70197.629     -17410.005     -6375.3902      5.3681244      6.9733983      15.847322      593.22977    
      1304   0             -349.60216     -14656.022      72553.554      86577.792     -203099.41     -70197.629     -17410.005     -6375.3902      5.3681244      6.9733983      15.847322      593.22977    
      1305   0             -349.60216     -14656.022      72553.554      86577.792     -203099.41     -70197.629     -17410.005     -6375.3902      5.3681244      6.9733983      15.847322      593.22977    
      1306   0             -349.60216     -14656.022      72553.554      86577.792     -203099.41     -70197.629     -17410.005     -6375.3902      5.3681244      6.9733983      15.847322      593.22977    
      1307   0             -349.60216     -14656.022      72553.554      86577.792     -203099.41     -70197.629     -17410.005     -6375.3902      5.3681244      6.9733983      15.847322      593.22977    
      1308   0             -349.60216     -14656.022      72553.554      86577.792     -203099.41     -70197.629     -17410.005     -6375.3902      5.3681244      6.9733983      15.847322      593.22977    
      1309   0             -349.60216     -14656.022      72553.554      86577.792     -203099.41     -70197.629     -17410.005     -6375.3902      5.3681244      6.9733983      15.847322      593.22977    
      1310   0             -349.60216     -14656.022      72553.554      86577.792     -203099.41     -70197.629     -17410.005     -6375.3902      5.3681244      6.9733983      15.847322      593.22977    
Loop time of 0.268744 on 4 procs for 310 steps with 96 atoms

59.6% CPU use with 4 MPI tasks x 1 OpenMP threads

Minimization stats:
  Stopping criterion = force tolerance
  Energy initial, next-to-last, final = 
     -308.937448987778  -349.602162957769  -349.602162957769
  Force two-norm initial, final = 23.733062 7.9747321e-11
  Force max component initial, final = 2.4224729 1.9045931e-11
  Final line search alpha, max atom move = 1 1.9045931e-11
  Iterations, force evaluations = 310 465

MPI task timing breakdown:
Section |  min time  |  avg time  |  max time  |%varavg| %total
---------------------------------------------------------------
Pair    | 0.24607    | 0.24992    | 0.25194    |   0.5 | 93.00
Neigh   | 4.4e-05    | 4.675e-05  | 4.8e-05    |   0.0 |  0.02
Comm    | 0.010425   | 0.012305   | 0.016037   |   2.0 |  4.58
Output  | 0.002998   | 0.003174   | 0.00369    |   0.5 |  1.18
Modify  | 0          | 0          | 0          |   0.0 |  0.00
Other   |            | 0.003298   |            |       |  1.23

Nlocal:             24 ave          25 max          23 min
Histogram: 1 0 0 0 0 2 0 0 0 1
Nghost:         610.25 ave         612 max         609 min
Histogram: 2 0 0 0 0 0 1 0 0 1
Neighs:        1158.75 ave        1218 max        1100 min
Histogram: 1 0 0 0 1 1 0 0 0 1
FullNghs:       2317.5 ave        2411 max        2222 min
Histogram: 1 0 0 0 0 2 0 0 0 1

Total # of neighbors = 9270
Ave neighs/atom = 96.5625
Neighbor list builds = 1
Dangerous builds = 0

# Obtain new stress tensor

variable tmp equal pe
variable e1 equal ${tmp}
variable e1 equal -349.602162957769
variable tmp equal press
variable p1 equal ${tmp}
variable p1 equal -14656.0223858378
variable tmp equal pxx
variable pxx1 equal ${tmp}
variable pxx1 equal 72553.5541589252
variable tmp equal pyy
variable pyy1 equal ${tmp}
variable pyy1 equal 86577.7924951577
variable tmp equal pzz
variable pzz1 equal ${tmp}
variable pzz1 equal -203099.413811596
variable tmp equal pxy
variable pxy1 equal ${tmp}
variable pxy1 equal -70197.6291375882
variable tmp equal pxz
variable pxz1 equal ${tmp}
variable pxz1 equal -17410.0052159682
variable tmp equal pyz
variable pyz1 equal ${tmp}
variable pyz1 equal -6375.39018274852

# Compute elastic constant from pressure tensor

variable C1pos equal ${d1}
variable C1pos equal -6671104.78682627
variable C2pos equal ${d2}
variable C2pos equal -8073522.58476769
variable C3pos equal ${d3}
variable C3pos equal -9189794.816697
variable C4pos equal ${d4}
variable C4pos equal 637539.018275559
variable C5pos equal ${d5}
variable C5pos equal 1741000.52159629
variable C6pos equal ${d6}
variable C6pos equal 7019767.7321375

# Combine positive and negative

variable C1${dir} equal 0.5*(${C1neg}+${C1pos})
variable C16 equal 0.5*(${C1neg}+${C1pos})
variable C16 equal 0.5*(6671016.79861166+${C1pos})
variable C16 equal 0.5*(6671016.79861166+-6671104.78682627)
variable C2${dir} equal 0.5*(${C2neg}+${C2pos})
variable C26 equal 0.5*(${C2neg}+${C2pos})
variable C26 equal 0.5*(8073501.15054077+${C2pos})
variable C26 equal 0.5*(8073501.15054077+-8073522.58476769)
variable C3${dir} equal 0.5*(${C3neg}+${C3pos})
variable C36 equal 0.5*(${C3neg}+${C3pos})
variable C36 equal 0.5*(9189771.6384574+${C3pos})
variable C36 equal 0.5*(9189771.6384574+-9189794.816697)
variable C4${dir} equal 0.5*(${C4neg}+${C4pos})
variable C46 equal 0.5*(${C4neg}+${C4pos})
variable C46 equal 0.5*(-637525.044667566+${C4pos})
variable C46 equal 0.5*(-637525.044667566+637539.018275559)
variable C5${dir} equal 0.5*(${C5neg}+${C5pos})
variable C56 equal 0.5*(${C5neg}+${C5pos})
variable C56 equal 0.5*(-1741057.79368943+${C5pos})
variable C56 equal 0.5*(-1741057.79368943+1741000.52159629)
variable C6${dir} equal 0.5*(${C6neg}+${C6pos})
variable C66 equal 0.5*(${C6neg}+${C6pos})
variable C66 equal 0.5*(-7019475.51250418+${C6pos})
variable C66 equal 0.5*(-7019475.51250418+7019767.7321375)

# Delete dir to make sure it is not reused

variable dir delete

# Output final values

variable C11all equal ${C11}
variable C11all equal 396.232256975025
variable C22all equal ${C22}
variable C22all equal 383.883292985149
variable C33all equal ${C33}
variable C33all equal 210.798404899426

variable C12all equal 0.5*(${C12}+${C21})
variable C12all equal 0.5*(64.978592325002+${C21})
variable C12all equal 0.5*(64.978592325002+66.381047129631)
variable C13all equal 0.5*(${C13}+${C31})
variable C13all equal 0.5*(56.1704660146497+${C31})
variable C13all equal 0.5*(56.1704660146497+28.6052196994424)
variable C23all equal 0.5*(${C23}+${C32})
variable C23all equal 0.5*(94.8662791098468+${C32})
variable C23all equal 0.5*(94.8662791098468+65.8985607996583)

variable C44all equal ${C44}
variable C44all equal 247.667036939005
variable C55all equal ${C55}
variable C55all equal 283.791226750007
variable C66all equal ${C66}
variable C66all equal 146.109816660173

variable C14all equal 0.5*(${C14}+${C41})
variable C14all equal 0.5*(-2.61298683006316+${C41})
variable C14all equal 0.5*(-2.61298683006316+-3.25052478746511)
variable C15all equal 0.5*(${C15}+${C51})
variable C15all equal 0.5*(5.32548133470118+${C51})
variable C15all equal 0.5*(5.32548133470118+1.84341583005153)
variable C16all equal 0.5*(${C16}+${C61})
variable C16all equal 0.5*(-43.9941073050722+${C61})
variable C16all equal 0.5*(-43.9941073050722+-58.0333509901538)

variable C24all equal 0.5*(${C24}+${C42})
variable C24all equal 0.5*(5.80418996466324+${C42})
variable C24all equal 0.5*(5.80418996466324+4.52912141650449)
variable C25all equal 0.5*(${C25}+${C52})
variable C25all equal 0.5*(-1.81699833506718+${C52})
variable C25all equal 0.5*(-1.81699833506718+-3.55803225503769)
variable C26all equal 0.5*(${C26}+${C62})
variable C26all equal 0.5*(-10.7171134599485+${C62})
variable C26all equal 0.5*(-10.7171134599485+-10.717101664748)

variable C34all equal 0.5*(${C34}+${C43})
variable C34all equal 0.5*(-7.18377030082047+${C43})
variable C34all equal 0.5*(-7.18377030082047+-7.18377310497453)
variable C35all equal 0.5*(${C35}+${C53})
variable C35all equal 0.5*(-1.49850120022893+${C53})
variable C35all equal 0.5*(-1.49850120022893+-1.49847493995912)
variable C36all equal 0.5*(${C36}+${C63})
variable C36all equal 0.5*(-11.5891197994351+${C63})
variable C36all equal 0.5*(-11.5891197994351+-18.6087176101282)

variable C45all equal 0.5*(${C45}+${C54})
variable C45all equal 0.5*(28.9140248299809+${C54})
variable C45all equal 0.5*(28.9140248299809+28.9140184099087)
variable C46all equal 0.5*(${C46}+${C64})
variable C46all equal 0.5*(6.98680399649311+${C64})
variable C46all equal 0.5*(6.98680399649311+8.72784233512357)
variable C56all equal 0.5*(${C56}+${C65})
variable C56all equal 0.5*(-28.6360465700272+${C65})
variable C56all equal 0.5*(-28.6360465700272+-28.6360438852571)

# Average moduli for cubic crystals

variable C11cubic equal (${C11all}+${C22all}+${C33all})/3.0
variable C11cubic equal (396.232256975025+${C22all}+${C33all})/3.0
variable C11cubic equal (396.232256975025+383.883292985149+${C33all})/3.0
variable C11cubic equal (396.232256975025+383.883292985149+210.798404899426)/3.0
variable C12cubic equal (${C12all}+${C13all}+${C23all})/3.0
variable C12cubic equal (65.6798197273165+${C13all}+${C23all})/3.0
variable C12cubic equal (65.6798197273165+42.3878428570461+${C23all})/3.0
variable C12cubic equal (65.6798197273165+42.3878428570461+80.3824199547525)/3.0
variable C44cubic equal (${C44all}+${C55all}+${C66all})/3.0
variable C44cubic equal (247.667036939005+${C55all}+${C66all})/3.0
variable C44cubic equal (247.667036939005+283.791226750007+${C66all})/3.0
variable C44cubic equal (247.667036939005+283.791226750007+146.109816660173)/3.0

variable bulkmodulus equal (${C11cubic}+2*${C12cubic})/3.0
variable bulkmodulus equal (330.304651619867+2*${C12cubic})/3.0
variable bulkmodulus equal (330.304651619867+2*62.816694179705)/3.0
variable shearmodulus1 equal ${C44cubic}
variable shearmodulus1 equal 225.856026783062
variable shearmodulus2 equal (${C11cubic}-${C12cubic})/2.0
variable shearmodulus2 equal (330.304651619867-${C12cubic})/2.0
variable shearmodulus2 equal (330.304651619867-62.816694179705)/2.0
variable poissonratio equal 1.0/(1.0+${C11cubic}/${C12cubic})
variable poissonratio equal 1.0/(1.0+330.304651619867/${C12cubic})
variable poissonratio equal 1.0/(1.0+330.304651619867/62.816694179705)

# For Stillinger-Weber silicon, the analytical results
# are known to be (E. R. Cowley, 1988):
#               C11 = 151.4 GPa
#               C12 = 76.4 GPa
#               C44 = 56.4 GPa

print "========================================="
=========================================
print "Components of the Elastic Constant Tensor"
Components of the Elastic Constant Tensor
print "========================================="
=========================================

print "Elastic Constant C11all = ${C11all} ${cunits}"
Elastic Constant C11all = 396.232256975025 GPa
print "Elastic Constant C22all = ${C22all} ${cunits}"
Elastic Constant C22all = 383.883292985149 GPa
print "Elastic Constant C33all = ${C33all} ${cunits}"
Elastic Constant C33all = 210.798404899426 GPa

print "Elastic Constant C12all = ${C12all} ${cunits}"
Elastic Constant C12all = 65.6798197273165 GPa
print "Elastic Constant C13all = ${C13all} ${cunits}"
Elastic Constant C13all = 42.3878428570461 GPa
print "Elastic Constant C23all = ${C23all} ${cunits}"
Elastic Constant C23all = 80.3824199547525 GPa

print "Elastic Constant C44all = ${C44all} ${cunits}"
Elastic Constant C44all = 247.667036939005 GPa
print "Elastic Constant C55all = ${C55all} ${cunits}"
Elastic Constant C55all = 283.791226750007 GPa
print "Elastic Constant C66all = ${C66all} ${cunits}"
Elastic Constant C66all = 146.109816660173 GPa

print "Elastic Constant C14all = ${C14all} ${cunits}"
Elastic Constant C14all = -2.93175580876413 GPa
print "Elastic Constant C15all = ${C15all} ${cunits}"
Elastic Constant C15all = 3.58444858237635 GPa
print "Elastic Constant C16all = ${C16all} ${cunits}"
Elastic Constant C16all = -51.013729147613 GPa

print "Elastic Constant C24all = ${C24all} ${cunits}"
Elastic Constant C24all = 5.16665569058387 GPa
print "Elastic Constant C25all = ${C25all} ${cunits}"
Elastic Constant C25all = -2.68751529505243 GPa
print "Elastic Constant C26all = ${C26all} ${cunits}"
Elastic Constant C26all = -10.7171075623483 GPa

print "Elastic Constant C34all = ${C34all} ${cunits}"
Elastic Constant C34all = -7.1837717028975 GPa
print "Elastic Constant C35all = ${C35all} ${cunits}"
Elastic Constant C35all = -1.49848807009402 GPa
print "Elastic Constant C36all = ${C36all} ${cunits}"
Elastic Constant C36all = -15.0989187047816 GPa

print "Elastic Constant C45all = ${C45all} ${cunits}"
Elastic Constant C45all = 28.9140216199448 GPa
print "Elastic Constant C46all = ${C46all} ${cunits}"
Elastic Constant C46all = 7.85732316580834 GPa
print "Elastic Constant C56all = ${C56all} ${cunits}"
Elastic Constant C56all = -28.6360452276421 GPa

print "========================================="
=========================================
print "Average properties for a cubic crystal"
Average properties for a cubic crystal
print "========================================="
=========================================

print "Bulk Modulus = ${bulkmodulus} ${cunits}"
Bulk Modulus = 151.979346659759 GPa
print "Shear Modulus 1 = ${shearmodulus1} ${cunits}"
Shear Modulus 1 = 225.856026783062 GPa
print "Shear Modulus 2 = ${shearmodulus2} ${cunits}"
Shear Modulus 2 = 133.743978720081 GPa
print "Poisson Ratio = ${poissonratio}"
Poisson Ratio = 0.159789578589129
Total wall time: 0:00:03
