LAMMPS data file via write_data, version 22 Dec 2022, timestep = 0

3288 atoms
3 atom types
300 bonds
2 bond types

0 29.212593625 xlo xhi
0 29.212593625 ylo yhi
0 157 zlo zhi

Masses

1 12.01115
2 15.9994
3 1.008

Atoms # full

2689 2 2 0 9.660722063035907 18.350006770845457 34.888145654955515 0 0 0
2690 2 2 0 9.571975804477296 17.46718552354955 35.707173735618646 0 0 0
2691 3 2 0 16.872767762406532 27.71460796914264 7.411435921202416 0 0 0
2692 3 2 0 16.047008659088554 26.869637848740552 7.16202932763447 0 0 0
2693 4 2 0 15.395086774993562 16.149466134149016 17.976242778656072 0 0 0
2694 4 2 0 14.954488165670426 17.27186910551255 17.911894621442137 0 0 0
2695 5 2 0 0.4967588874246993 28.734709004038628 7.566467965622136 0 0 0
2696 5 2 0 1.495096361223396 29.169348024498966 7.044483808484669 0 0 0
2697 6 2 0 8.607506656777296 24.116437066876745 1.3400268544214313 0 0 0
2698 6 2 0 9.788144822162007 23.932229716011488 1.5138584520216032 0 0 0
2699 7 2 0 27.75520862596895 3.261017345564421 9.93626209796874 0 0 0
2700 7 2 0 27.590459292257844 3.9734770421928425 10.897154957616412 0 0 0
2701 8 2 0 16.92870137429641 24.961620449822917 28.42886973407236 0 0 0
2702 8 2 0 17.652490917708363 25.79965552436274 28.910411176409934 0 0 0
2703 9 2 0 11.957824641345574 9.53736124420556 9.686790628289232 0 0 0
2704 9 2 0 13.134829786408979 9.704035526578473 9.474812275409155 0 0 0
2705 10 2 0 1.0154924549522617 5.383333225060049 15.696074624575889 0 0 0
2706 10 2 0 2.2180587442926716 5.487529984527981 15.663924895830238 0 0 0
2707 11 2 0 20.543203859384388 11.46249679740574 7.6734894451246 0 0 0
2708 11 2 0 20.324790908246836 10.424251780652595 8.250030265849944 0 0 0
2709 12 2 0 5.509957858348912 20.82791637035227 14.755963897763783 0 0 0
2710 12 2 0 6.666337694724138 21.16569462838561 14.673819071847815 0 0 0
2711 13 2 0 19.27460376263272 10.1928134007463 38.675930447115334 0 0 0
2888 101 2 0 24.096516579600877 15.34222462380168 21.615132932367946 0 0 0
2713 14 2 0 28.537463251338675 18.920538925796357 37.775538250681905 0 0 0
2714 14 2 0 29.13906722558657 18.245522006853264 36.975237640092544 0 0 0
2715 15 2 0 7.916557721980781 7.370322498634051 16.907913602566147 0 0 0
2716 15 2 0 9.079679886842193 7.65470373907171 17.063895619783658 0 0 0
2717 16 2 0 15.994101437643355 7.344194046415139 7.653359442662655 0 0 0
2718 16 2 0 15.751752004777423 6.404645719596027 6.934630047159057 0 0 0
2719 17 2 0 17.874097843341882 27.888516385433867 16.991258349282873 0 0 0
2720 17 2 0 19.071228058326344 27.739007202341867 16.940440020478917 0 0 0
2721 18 2 0 5.191403849780127 1.4237054089372514 24.25804734974122 0 0 0
2722 18 2 0 5.3834977974027725 1.528664294060168 25.445540422445433 0 0 0
2723 19 2 0 9.877984503089586 0.8350054930310233 27.534123898065825 0 0 0
2724 19 2 0 9.901998898171929 2.0305670092172794 27.366456907148564 0 0 0
2725 20 2 0 4.095643605389985 14.80417926887086 1.5220147112954818 0 0 0
2726 20 2 0 5.135505094756492 14.239875342978939 1.2805495747737943 0 0 0
2727 21 2 0 21.83378907596402 8.215801942243893 11.183918523363186 0 0 0
2728 21 2 0 22.054773737436868 8.87037163648123 10.193584971079023 0 0 0
2729 22 2 0 11.671852470775354 16.329015219795377 5.302420738462895 0 0 0
2730 22 2 0 12.15620236959335 15.55527535705743 4.5119853835316635 0 0 0
2731 23 2 0 19.240575393820862 27.38208824734023 13.184069388978479 0 0 0
2732 23 2 0 20.43353806276003 27.205879507763637 13.122046807490978 0 0 0
2733 24 2 0 12.638201590839044 12.072822619579068 32.31576174212768 0 0 0
2734 24 2 0 11.609980666121638 11.445301368601218 32.23188648031301 0 0 0
2735 25 2 0 26.92797874700926 2.014961148984746 32.80486241754681 0 0 0
2736 25 2 0 27.586644802264328 1.4765769922403968 33.661809193852896 0 0 0
2737 26 2 0 15.481221066061467 26.057084338948286 19.08028007317971 0 0 0
2738 26 2 0 16.6701499024999 25.903096271954723 19.224474896626116 0 0 0
2739 27 2 0 26.643932338566035 26.341305002511568 20.540169987001978 0 0 0
2740 27 2 0 27.119289017857984 26.599211165897884 19.460551217092952 0 0 0
2741 28 2 0 27.79408593113992 8.262673886259385 30.061729479218492 0 0 0
2742 28 2 0 27.85811424949964 9.443076872856047 29.815547811172905 0 0 0
2743 29 2 0 12.01238101459671 28.72183868768096 28.300785942444378 0 0 0
2744 29 2 0 13.145093870185196 28.30360884177369 28.310867250740564 0 0 0
2745 30 2 0 1.4618573236032517 20.358198171595653 32.86605849513013 0 0 0
2746 30 2 0 2.6633879684863 20.367347477507714 32.985627093048876 0 0 0
2747 31 2 0 28.63961636868968 6.501731805688805 38.28483053032606 0 0 0
2748 31 2 0 0.5042583472770055 7.043309071364786 38.35050982437514 1 0 0
2749 32 2 0 23.71854128417781 19.29365431675451 28.496719627912285 0 0 0
2750 32 2 0 24.853793501100334 19.220824853059934 28.901632610157172 0 0 0
2751 33 2 0 11.385150391407091 15.535678644710746 30.612040735447312 0 0 0
2752 33 2 0 12.585389452662387 15.661391880984972 30.571069671725905 0 0 0
2753 34 2 0 17.088793798751446 0.8428586665814546 11.277049972194265 0 0 0
2754 34 2 0 18.295968014840227 0.8679246185758482 11.289634091593628 0 0 0
2755 35 2 0 13.68124703460003 5.315309329753767 16.91026840734112 0 0 0
2756 35 2 0 13.663510812183745 5.5069130651205125 15.718198910622114 0 0 0
2757 36 2 0 15.098166819221202 16.873063376034093 31.554718820686453 0 0 0
2758 36 2 0 16.10306989615035 16.256843123642728 31.81644130065532 0 0 0
2759 37 2 0 4.061082572857539 17.948416901217534 5.053926818779112 0 0 0
2760 37 2 0 4.065001979495293 17.492051242848717 3.935995124035105 0 0 0
2761 38 2 0 13.252128080432813 28.31785976947445 15.16036112526607 0 0 0
2762 38 2 0 13.719975331988325 0.008913667609277809 14.510287011688055 0 1 0
2763 39 2 0 1.0290901000554542 23.483462087380527 24.019438304106203 0 0 0
2764 39 2 0 0.8160480342350297 22.403918432783374 23.522191055737764 0 0 0
2765 40 2 0 4.288883398219713 3.372086408241165 32.516439894890716 0 0 0
2766 40 2 0 3.793824631709898 4.141416368723606 31.728338074307953 0 0 0
2767 41 2 0 0.22883392667591085 13.040168809367977 36.66335132826318 0 0 0
2768 41 2 0 0.5130949614156776 11.993769095959223 36.132032634909784 0 0 0
2769 42 2 0 8.559517224878242 20.18435661274967 20.86844259639526 0 0 0
2770 42 2 0 9.748778615814565 20.30777941127376 21.0372039866262 0 0 0
2771 43 2 0 11.316219139107234 22.837357463528342 35.04415744524775 0 0 0
2772 43 2 0 10.51039239147987 23.697081613915678 35.30792607122338 0 0 0
2773 44 2 0 27.44116785793937 18.274308905690184 25.288518652072383 0 0 0
2774 44 2 0 27.277068434459338 18.67574243934169 26.415451989618838 0 0 0
2775 45 2 0 8.072816638893176 6.708881273801395 6.39591568065318 0 0 0
2776 45 2 0 9.156264784592068 7.234592242712233 6.484370995634603 0 0 0
2777 46 2 0 17.59801504968944 21.63259464148293 31.489418197238127 0 0 0
2778 46 2 0 18.78343050704763 21.73830618848188 31.28528218305306 0 0 0
2779 47 2 0 18.368737666078818 14.77439947627877 22.083176958458846 0 0 0
2780 47 2 0 19.086027508462276 14.496457535820827 21.152424676835007 0 0 0
2781 48 2 0 16.097047392603518 16.087406084849302 37.83291051645018 0 0 0
2782 48 2 0 17.189865852658205 15.895588278855763 37.35645485989068 0 0 0
2783 49 2 0 2.0887414824804535 27.965839029266725 27.3633648677803 0 0 0
2784 49 2 0 3.2506001445280717 27.68645735301908 27.536819698793952 0 0 0
2785 50 2 0 14.3833939017007 5.820000494818662 23.33234716031531 0 0 0
2786 50 2 0 13.56285505274208 6.705874074947254 23.332844533225906 0 0 0
2787 51 2 0 21.297932240179165 19.57066729024774 26.80211240861397 0 0 0
2788 51 2 0 20.189861276339826 19.59032334439653 27.281537719409567 0 0 0
2789 52 2 0 5.906852341178989 2.2032390009772604 7.044912473952813 0 0 0
2790 52 2 0 7.111934787765798 2.225785924068035 6.971945473277925 0 0 0
2791 53 2 0 8.147844807053778 9.289138602624144 10.330957264149003 0 0 0
2792 53 2 0 8.820735290982958 8.29760185082234 10.47971719310799 0 0 0
2793 54 2 0 23.537807589159094 2.60888273635393 28.59240490475208 0 0 0
2794 54 2 0 23.40572893451005 3.680846570975273 29.132316949672365 0 0 0
2795 55 2 0 17.849414909087965 0.6338911186231253 5.556717999224317 0 0 0
2796 55 2 0 18.870235125578727 1.27131977453846 5.458396871170783 0 0 0
2797 56 2 0 14.616601275658358 26.974333927615753 24.049187016529977 0 0 0
2798 56 2 0 15.723793399821076 27.429846105234226 23.892054886673208 0 0 0
2799 57 2 0 11.672911025996008 19.516350236784756 7.343042832174009 0 0 0
2800 57 2 0 12.683996421660087 20.165249019219626 7.221828382419225 0 0 0
2801 58 2 0 22.307420584715558 19.02800532558074 35.74912226336216 0 0 0
2802 58 2 0 22.180319953374457 19.305980103347725 34.58094774624663 0 0 0
2803 59 2 0 20.556424862316817 5.261717651994989 22.08765747492971 0 0 0
2804 59 2 0 20.794054733843957 4.646516272200953 23.09914922302136 0 0 0
2805 60 2 0 0.24684185210149268 24.282494171381032 28.7043748308083 0 0 0
2806 60 2 0 1.3933475985556765 24.11840827366163 28.3628244809078 0 0 0
2807 61 2 0 25.753343281179266 13.42080744168499 31.10568783095256 0 0 0
2808 61 2 0 25.780076461382233 13.789011789358307 29.956006507528237 0 0 0
2809 62 2 0 9.252347749583983 11.106246155270393 0.3912900476687603 0 0 0
2810 62 2 0 9.013177263609318 11.638839084512925 1.4482661592055828 0 0 0
2811 63 2 0 16.640404508108578 17.692866381233607 22.726202840437466 0 0 0
2812 63 2 0 16.970064093077678 18.742580756217464 23.223676999555558 0 0 0
2813 64 2 0 2.1217292808035366 9.7972870835298 5.404396610092623 0 0 0
2814 64 2 0 0.9941240197896991 9.381359986986018 5.287917960999429 0 0 0
2815 65 2 0 13.771785416107278 21.300687485135605 10.890031465421483 0 0 0
2816 65 2 0 14.433539142327678 22.045006881133318 10.207296602846693 0 0 0
2817 66 2 0 1.2403869546747408 21.70965307698351 12.534357140502811 0 0 0
2818 66 2 0 1.1504151334090553 22.397400597378006 11.545941909150441 0 0 0
2819 67 2 0 26.096086031855453 28.117155902652897 1.53243826052677 0 0 0
2820 67 2 0 25.209676133322116 28.914118736811673 1.3396067725593426 0 0 0
2821 68 2 0 22.35689263429968 22.46197321651526 38.332202990506545 0 0 0
2822 68 2 0 23.559979784658875 22.539574219923452 38.2642644674829 0 0 0
2823 69 2 0 4.757476039285354 8.74827667669899 6.635653165831681 0 0 0
2824 69 2 0 4.685078281458679 9.453621068267628 7.613049760845365 0 0 0
2825 70 2 0 19.154098748139575 3.6114379288281393 31.369754546133354 0 0 0
2826 70 2 0 18.135984198735443 3.8290194496255436 30.758070562282942 0 0 0
2827 71 2 0 11.820220999581704 21.85932573182718 25.55979025864124 0 0 0
2828 71 2 0 11.67825986936954 21.268015981728535 26.60298538274179 0 0 0
2829 72 2 0 24.20278475883129 10.852706566000373 17.10503682042773 0 0 0
2830 72 2 0 24.246865177015312 10.579061957877434 18.2802950027766 0 0 0
2831 73 2 0 18.671794204559678 13.45726333321093 10.837993814551623 0 0 0
2832 73 2 0 19.787448515615086 13.188587894048228 11.213740027592042 0 0 0
2833 74 2 0 19.040823661578322 2.6562382663152038 0.44768271213755967 0 0 0
2834 74 2 0 20.199321774652958 2.954430472867551 0.2833057674222104 0 0 0
2835 75 2 0 20.494022770248677 3.8606539406968015 17.737243155190225 0 0 0
2836 75 2 0 19.98722192695689 3.1134457432894482 18.539046787612772 0 0 0
2837 76 2 0 24.697826703432117 17.035003780629207 11.755689205613612 0 0 0
2838 76 2 0 25.845263828254648 16.890134528838647 12.102758643139667 0 0 0
2839 77 2 0 17.3350103380575 19.200589358197476 18.239738804273678 0 0 0
2840 77 2 0 17.485343273040698 19.80705636926001 17.20646535394593 0 0 0
2841 78 2 0 3.391899577751785 15.432328216300178 34.057850663494925 0 0 0
2842 78 2 0 3.614537516957934 15.00361381995868 35.16450895058971 0 0 0
2843 79 2 0 1.3359960429780253 18.05956024771286 19.088508492592194 0 0 0
2844 79 2 0 0.5467666476587099 17.506679033892837 19.81617295851643 0 0 0
2845 80 2 0 28.76547191005504 10.74331541293711 24.02476015375583 0 0 0
2846 80 2 0 28.59720360708973 9.72928898925762 24.658394464929838 0 0 0
2847 81 2 0 14.337049918791058 20.621462515872388 4.014371082389523 0 0 0
2848 81 2 0 13.572616237573621 19.73438450533162 3.7197696563315477 0 0 0
2849 82 2 0 2.0239126421943565 12.728571740525641 10.640725551064715 0 0 0
2850 82 2 0 1.3912844051518705 12.954323507515621 9.63729448547156 0 0 0
2851 83 2 0 28.67638844758254 14.873032256003706 19.793849494191925 0 0 0
2852 83 2 0 28.926714844151277 15.131259414272039 20.946547060734673 0 0 0
2853 84 2 0 17.44357192616629 3.6806750562893953 25.649265667573154 0 0 0
2854 84 2 0 17.587007121363104 4.649458520183776 24.942907971456194 0 0 0
2855 85 2 0 26.540286321875026 27.81114579662423 7.080399464962615 0 0 0
2856 85 2 0 27.730636039440636 27.98282108571835 6.972457837191267 0 0 0
2857 86 2 0 23.982312538299652 24.540945009653456 25.97893351332872 0 0 0
2858 86 2 0 23.311355127687023 23.88416822837032 25.219646569735353 0 0 0
2859 87 2 0 16.663069332438234 6.905949873511218 22.61572164338821 0 0 0
2860 87 2 0 16.448975927766483 7.330182137119427 21.505655316275313 0 0 0
2861 88 2 0 24.163319811885007 20.327207003847246 16.71844788660275 0 0 0
2862 88 2 0 24.635054806917122 19.60158295350546 15.8764312109795 0 0 0
2863 89 2 0 6.981332782926683 21.28843036111591 7.073292295996395 0 0 0
2864 89 2 0 6.481266548060531 22.29349354098837 6.628502440883387 0 0 0
2865 90 2 0 10.411758472133736 25.99912377082659 22.11072853408184 0 0 0
2866 90 2 0 11.595950780263147 26.13498876352693 21.91763391705258 0 0 0
2867 91 2 0 21.826713292796846 22.80717824851493 26.67991839997743 0 0 0
2868 91 2 0 21.3543276301221 21.696781000204304 26.723804464320587 0 0 0
2869 92 2 0 11.836038606436674 3.6485699094015636 4.891459901071212 0 0 0
2870 92 2 0 11.987071480197809 3.5544319063541487 6.0857728238120234 0 0 0
2871 93 2 0 3.795074035544158 21.353764615402685 21.272568454656803 0 0 0
2872 93 2 0 3.9872246293971814 20.17083155369193 21.420229454225254 0 0 0
2873 94 2 0 14.540306417149878 14.549877647392186 27.74791101757632 0 0 0
2874 94 2 0 15.67693807152321 14.95066648123337 27.673795952004163 0 0 0
2875 95 2 0 0.25602381815260966 20.53530673857137 29.066108087416072 0 0 0
2876 95 2 0 29.15709090221407 19.387069839180114 29.272407595818837 -1 0 0
2877 96 2 0 14.492792451354157 5.386048080811826 27.446614798847982 0 0 0
2878 96 2 0 15.434798838012059 5.20371704719141 26.71351479770582 0 0 0
2879 97 2 0 25.0949281605998 4.763889589863175 7.087574072525418 0 0 0
2880 97 2 0 25.088706144194916 5.574730094851923 6.192836562424579 0 0 0
2881 98 2 0 12.082103671866358 15.805220911518143 35.288898298837964 0 0 0
2882 98 2 0 13.174639667518855 15.294712885759088 35.35056598761581 0 0 0
2883 99 2 0 3.3503403029228815 13.778083150555196 17.73554282116826 0 0 0
2884 99 2 0 4.51106326716339 13.483347039410491 17.890168417600492 0 0 0
2885 100 2 0 28.63183734852989 1.1440257127306932 2.5114215324346993 0 0 0
2886 100 2 0 0.3445178985716808 1.31028994825183 1.7536087884225005 1 0 0
2887 101 2 0 23.898227058474408 14.178927007467589 21.871016053426874 0 0 0
3062 188 2 0 9.92376761882848 15.119502340440956 39.23593765461972 0 0 0
3089 202 3 0 3.1089869128137724 1.1802400922272822 8.28204335739242 0 0 0
3090 202 3 0 3.0544970775381164 0.6381915019621165 8.784923207498961 0 0 0
3091 203 3 0 5.0796376717357825 18.888876378304587 14.176183243138203 0 0 0
3092 203 3 0 4.572625001590898 18.37006822321878 14.023048627427004 0 0 0
3093 204 3 0 17.742527361467722 1.376465247659856 14.402912942789976 0 0 0
3094 204 3 0 17.4720016397682 2.065616024445714 14.363403440712618 0 0 0
3095 205 3 0 14.384183961311244 1.1411288236813582 24.976037678163213 0 0 0
3096 205 3 0 14.997159036321062 1.4079953824965104 24.65554156710589 0 0 0
3097 206 3 0 20.81243626487018 18.612825617988598 4.644160440646738 0 0 0
3098 206 3 0 21.53734320964552 18.499723067320687 4.750892321773668 0 0 0
3099 207 3 0 27.56281346230583 20.995763754987465 34.324534711373396 0 0 0
3100 207 3 0 27.461658053599063 21.433211058573647 34.91451894834464 0 0 0
3101 208 3 0 20.21350768321396 10.250294671341846 29.95668554981898 0 0 0
3102 208 3 0 20.65791146581075 10.764844736984765 30.25235000145383 0 0 0
3103 209 3 0 20.818457184783433 13.315579238853122 28.724535367201387 0 0 0
3104 209 3 0 21.541133470125054 13.417916558067432 28.594381536290175 0 0 0
3105 210 3 0 13.973113586579515 17.8764246141905 26.55237379053072 0 0 0
3106 210 3 0 14.71148430866397 17.940400993047252 26.53263399020606 0 0 0
3107 211 3 0 20.432413261021342 26.19310047483268 33.1320564534142 0 0 0
3108 211 3 0 20.298308613424343 25.55562233369746 33.486050130006966 0 0 0
3109 212 3 0 25.429040370362113 12.753439890887757 12.380287867480737 0 0 0
3110 212 3 0 26.1390528015742 12.960834342652495 12.329851284512538 0 0 0
3111 213 3 0 5.334415386224366 8.63533120600293 27.77447692995125 0 0 0
3112 213 3 0 5.947020778661811 8.7296657859702 28.181281035361906 0 0 0
3113 214 3 0 5.537841034779716 10.94785728634863 37.542706577010605 0 0 0
3114 214 3 0 5.90722338385416 10.533399693218684 37.05132531598289 0 0 0
3115 215 3 0 11.548584133818494 21.29044875192478 28.958635138486176 0 0 0
3116 215 3 0 12.262736326802553 21.465057655991433 29.054407451169457 0 0 0
3117 216 3 0 4.43874611661865 28.230611827988522 7.144840136160678 0 0 0
3118 216 3 0 4.289944568356288 27.653733045790847 6.703543263426626 0 0 0
3119 217 3 0 4.379704894737831 7.002647967696087 37.747416159387235 0 0 0
3120 217 3 0 5.114737889677357 6.910849948363242 37.716213915929465 0 0 0
3121 218 3 0 13.532041705953318 10.873045761437897 13.91426463686886 0 0 0
3122 218 3 0 13.649986594373551 10.937490082291006 14.643380466353667 0 0 0
3123 219 3 0 23.544626881752002 7.4407633260399955 7.706890870083856 0 0 0
3124 219 3 0 23.55937162089407 8.174833146413071 7.603944031933911 0 0 0
3125 220 3 0 23.09569708110027 12.093455545713955 8.862924997182748 0 0 0
3126 220 3 0 23.73416772972663 11.746975271878533 8.714666403214071 0 0 0
3127 221 3 0 5.672188437703694 12.503667619217403 33.51079748929253 0 0 0
3128 221 3 0 5.807872104797662 12.905570701045612 32.90273678895011 0 0 0
3129 222 3 0 0.6316671792572877 28.532926416832947 25.26292925304204 0 0 0
3130 222 3 0 0.9290560115418935 28.05785334500362 24.777605218138504 0 0 0
3131 223 3 0 12.878481366884603 4.073432900917987 38.32909969788577 0 0 0
3132 223 3 0 13.610955505809237 3.965241464460773 38.29101808967473 0 0 0
3133 224 3 0 16.562026638316667 2.7356360561597755 5.652573792703521 0 0 0
3134 224 3 0 15.930703248183761 2.350340606491057 5.601074729258892 0 0 0
3135 225 3 0 11.424879809420036 13.610082385711754 20.576244036582676 0 0 0
3136 225 3 0 11.829298039950972 13.279516742804708 21.102405808800757 0 0 0
3137 226 3 0 14.49787446171552 3.4682683025372865 17.7609061715628 0 0 0
3138 226 3 0 15.227871844187947 3.3737202670349844 17.849441196078878 0 0 0
3139 227 3 0 7.406975887145084 12.949867549584402 4.718847450415066 0 0 0
3140 227 3 0 7.698842919879702 13.108220865969178 4.05596599616202 0 0 0
3141 228 3 0 23.14098167427631 2.674388792317769 13.126600896105822 0 0 0
3142 228 3 0 23.180294796621567 3.399151338291073 12.975446371311621 0 0 0
3143 229 3 0 4.368350421589193 9.702035507047402 3.4024283740205794 0 0 0
3144 229 3 0 5.06383142459814 9.445244113460944 3.4086182555698903 0 0 0
3145 230 3 0 5.819840459375613 16.77722052887721 10.118956169513313 0 0 0
3146 230 3 0 6.557575300051632 16.78283816482189 10.19237079352735 0 0 0
3147 231 3 0 21.21920600961953 11.521221523621856 17.239015615458413 0 0 0
3148 231 3 0 21.88062420961923 11.853747722190944 17.279342430040593 0 0 0
3149 232 3 0 25.35216909883207 14.096050842379414 6.060243261491379 0 0 0
3150 232 3 0 26.04920925918516 14.051333853242221 6.308858155931429 0 0 0
3151 233 3 0 1.4352140441918244 21.03478913630967 19.504268670905997 0 0 0
3152 233 3 0 2.172155857868576 21.11197654283034 19.47911260743349 0 0 0
3153 234 3 0 19.93148713525139 14.076995100940271 33.36271633011869 0 0 0
3154 234 3 0 20.6726871052789 14.092385491672067 33.37044292732175 0 0 0
3155 235 3 0 15.528179538615323 22.079773600568245 7.669137733478868 0 0 0
3156 235 3 0 15.517289571493638 22.19741750069322 6.937211998598974 0 0 0
3157 236 3 0 24.4905157896112 21.22748502989595 4.429473245575589 0 0 0
3158 236 3 0 25.107522117756353 20.849128346564303 4.590169764539495 0 0 0
3159 237 3 0 6.182728161121372 24.27980124992936 32.741793686232405 0 0 0
3160 237 3 0 6.185134660567527 23.999594625403777 32.05538825477634 0 0 0
3161 238 3 0 14.965394434543304 21.201163588616442 30.032507906614992 0 0 0
3162 238 3 0 15.252650709742687 21.755999426009534 29.63336509269637 0 0 0
3163 239 3 0 29.03562129461327 16.484395528599045 29.890111859290894 0 0 0
3164 239 3 0 28.904814348361292 15.82156019483645 29.584804107787487 0 0 0
3165 240 3 0 16.316890705029007 6.263435387358792 37.72846196903171 0 0 0
3166 240 3 0 16.012926672324763 6.735800797463703 37.244570714555465 0 0 0
3167 241 3 0 23.099843782348763 10.102433258607494 37.690177638274086 0 0 0
3168 241 3 0 23.274378880614655 9.459948167492588 37.363950160632506 0 0 0
3169 242 3 0 11.294339072185343 2.089748948481426 8.535403836919619 0 0 0
3170 242 3 0 12.024540641742439 2.165530035707728 8.639022631716488 0 0 0
3171 243 3 0 25.339537110794687 10.499002283637257 23.45177988394374 0 0 0
3172 243 3 0 24.8447628245082 11.026869352040713 23.613732728083146 0 0 0
3173 244 3 0 2.9178056823232805 21.163849901273622 15.205478894625204 0 0 0
3174 244 3 0 2.817049315807258 21.41032842868499 15.897411297488093 0 0 0
3175 245 3 0 18.35506632512349 19.127057263117255 25.027803968727316 0 0 0
3176 245 3 0 19.020299000254884 19.449841621171498 25.082115165851317 0 0 0
3177 246 3 0 25.365174596388698 24.051122695337945 8.481954954936603 0 0 0
3178 246 3 0 26.09301477865401 24.11602914746632 8.356616287510674 0 0 0
3179 247 3 0 24.745451787050968 17.421864031686816 25.172126529416484 0 0 0
3180 247 3 0 25.18586478013014 17.25120883114394 24.60064848254616 0 0 0
3181 248 3 0 22.116732454828536 15.540331381373928 0.2970013233469402 0 0 0
3182 248 3 0 22.787718464173913 15.422556042770523 0.004459523120683706 0 0 0
3183 249 3 0 12.465809831665418 6.507079099644779 32.984618792016164 0 0 0
3184 249 3 0 13.179186239153701 6.335539907288666 33.09111934001908 0 0 0
2889 102 2 0 16.695759372709986 18.67411416574078 72.49555527884031 0 0 0
2890 102 2 0 16.362085646028227 19.42155551738757 71.60783374594233 0 0 0
2891 103 2 0 8.806705260799182 12.932633197312919 72.97856670691742 0 0 0
2892 103 2 0 9.931749249026707 12.513035946368719 73.10612226952908 0 0 0
2893 104 2 0 1.0711575151920014 8.46408461415288 67.42356918619119 0 0 0
2894 104 2 0 2.1175915217924213 8.944271733037938 67.05962901159232 0 0 0
2895 105 2 0 0.47137750260835676 2.1813349145876257 43.12340013768951 0 0 0
2896 105 2 0 0.623957546344169 3.1808490805143963 43.78351150129817 0 0 0
2897 106 2 0 1.6870287837870093 12.449407229308434 40.183506224470655 0 0 0
2898 106 2 0 1.995840366128657 13.259097653298529 41.0243944892897 0 0 0
2899 107 2 0 28.81679696763897 10.406635045890384 55.672890978463855 0 0 0
2900 107 2 0 28.379017392641266 10.03949393412883 56.73666383850933 0 0 0
2901 108 2 0 3.3178041135942875 13.28140282643972 63.43505048116157 0 0 0
2902 108 2 0 4.20982683822562 13.08160816074567 64.22399521959481 0 0 0
2903 109 2 0 2.249164544735673 15.65709726813072 71.38173329202918 0 0 0
2904 109 2 0 3.234740596541915 15.816318934295357 72.06095678774305 0 0 0
2905 110 2 0 3.507546243788339 7.6082872729875195 50.51829931335113 0 0 0
2906 110 2 0 4.690341927737529 7.706676062265645 50.74049352159147 0 0 0
2907 111 2 0 4.225251274378289 20.53140974916656 40.17673330414616 0 0 0
2908 111 2 0 4.408716211714724 20.82018726611594 41.334750753268885 0 0 0
2909 112 2 0 22.834919626646368 7.478302499473285 41.564364529810426 0 0 0
2910 112 2 0 23.45210165806325 7.120195865054539 42.53848065660508 0 0 0
2911 113 2 0 5.062876435988026 28.322605464706445 56.1836361335304 0 0 0
2912 113 2 0 4.270740130864305 28.56845462241021 57.06120921639091 0 0 0
2913 114 2 0 28.426579677602813 25.578904286122444 56.15043564666554 0 0 0
2914 114 2 0 0.20153521394887974 24.94366789812274 56.43199849095748 1 0 0
2915 115 2 0 14.542291779666353 7.804791879453406 40.627313178729615 0 0 0
2916 115 2 0 13.633606936986695 8.382277658301613 40.08063385598883 0 0 0
2917 116 2 0 12.14874599926164 27.61294664575708 62.782993491435434 0 0 0
2918 116 2 0 13.356245960310721 27.613251886885987 62.783023396608414 0 0 0
2919 117 2 0 15.049275176445725 14.367599680049677 42.24940107846895 0 0 0
2920 117 2 0 15.240873618618146 13.506689708433795 43.074131523965804 0 0 0
2921 118 2 0 21.407229289254335 18.544099679976583 58.676124776574305 0 0 0
2922 118 2 0 22.45123862385663 18.563769975998596 59.28251890477615 0 0 0
2923 119 2 0 27.882162631582304 17.282782923313093 71.31588010802912 0 0 0
2924 119 2 0 28.052687072632118 18.4733433084483 71.2084388014876 0 0 0
2925 120 2 0 7.058743763115189 4.268150364887092 62.60161649962338 0 0 0
2926 120 2 0 7.837452690592718 4.178280853923098 63.52008921411515 0 0 0
2927 121 2 0 13.014665066989318 13.894089827463011 67.8627510326575 0 0 0
2928 121 2 0 12.857109761763253 12.781942517002625 67.41962471248361 0 0 0
2929 122 2 0 6.576120101550388 16.70763557323646 56.33877918239878 0 0 0
2930 122 2 0 7.508143272744239 17.07334644657798 55.6637646525718 0 0 0
2931 123 2 0 11.1384666575357 14.835951797886437 69.88450842026717 0 0 0
2932 123 2 0 11.879445009049297 14.040646246174632 70.41033768153414 0 0 0
2933 124 2 0 22.742440958855695 20.86503781498594 71.49434199263258 0 0 0
2934 124 2 0 21.62382233796785 20.682507398292366 71.07789118163008 0 0 0
2935 125 2 0 29.00108592171479 24.48348343535861 77.65456431923238 -1 0 0
2936 125 2 0 0.9826787358975588 24.621679430383853 77.7680405961847 0 0 0
2937 126 2 0 8.06550092772491 26.488608880157663 48.327430270567106 0 0 0
2938 126 2 0 8.575006227521735 27.568970850207677 48.504287877552514 0 0 0
2939 127 2 0 26.637264562103628 3.129650406103644 39.619499813405454 0 0 0
2940 127 2 0 27.102263302838605 2.1454779279440332 40.14222053649577 0 0 0
2941 128 2 0 17.91527903223552 18.036474462646964 41.190334807409414 0 0 0
2942 128 2 0 19.122742215966152 18.04168256292064 41.182474424045466 0 0 0
2943 129 2 0 2.261495049442912 20.3186798177065 55.58773149184575 0 0 0
2944 129 2 0 3.4280417092134456 20.119281919706335 55.34801161605042 0 0 0
2945 130 2 0 25.981061019192264 22.702129873917965 55.2144632690995 0 0 0
2946 130 2 0 27.17685430105489 22.842417769995688 55.12251772398558 0 0 0
2947 131 2 0 8.579100037840263 10.991666555213852 60.872409689331455 0 0 0
2948 131 2 0 8.18806667823711 10.101223807147166 60.1566856684317 0 0 0
2949 132 2 0 23.156330085475897 9.58609208955711 54.10663093028635 0 0 0
2950 132 2 0 24.097348982974825 9.427722111744213 53.36672645356152 0 0 0
2951 133 2 0 9.775948865386285 28.383777250814674 57.43711284246436 0 0 0
2952 133 2 0 10.890219043996483 28.58726174537381 57.018720347868665 0 0 0
2953 134 2 0 8.659867147119273 20.15195705225328 63.98101855318478 0 0 0
2954 134 2 0 9.356359380127044 19.246956876622377 63.5886800495073 0 0 0
2955 135 2 0 0.881305922501864 9.539623439123783 78.42557173675414 0 0 0
2956 135 2 0 1.9077630911767969 9.34311495812726 77.82073593443067 0 0 0
2957 136 2 0 5.358238336961417 21.135039462589432 78.28773396657763 0 0 0
2958 136 2 0 6.473950647477221 21.553010247598813 78.48405694801926 0 0 0
2959 137 2 0 2.0643555851367124 15.754063082182062 48.884437307344186 0 0 0
2960 137 2 0 1.660509773140521 14.68246873328698 48.50148775250797 0 0 0
2961 138 2 0 13.481152758424805 27.789401678200605 75.05448148827873 0 0 0
2962 138 2 0 12.621760591102493 27.569390827119307 74.23527664322987 0 0 0
2963 139 2 0 16.870751747797147 15.504128872198846 74.54614838816727 0 0 0
2964 139 2 0 17.615358520803003 14.693635490475588 75.04285502369433 0 0 0
2965 140 2 0 6.416807304026582 16.355299656024492 40.762803790821245 0 0 0
2966 140 2 0 5.216650082579731 16.486458536274228 40.740980822631506 0 0 0
2967 141 2 0 24.397783473961347 1.6697073980944461 64.10838289401289 0 0 0
2968 141 2 0 23.539773236979265 1.51375588079094 64.9435797615146 0 0 0
2969 142 2 0 25.2619756434154 23.240287175150595 63.006339083954394 0 0 0
2970 142 2 0 25.643458824137856 24.379907242461254 63.12378241074959 0 0 0
2971 143 2 0 2.064416229551387 14.332067964410351 76.60988133588262 0 0 0
2972 143 2 0 3.207284322309317 14.555236158445597 76.92941964301792 0 0 0
2973 144 2 0 11.415817269644764 6.853666370068052 48.452848127644245 0 0 0
2974 144 2 0 11.472620230591927 7.682546108010876 49.329083286523115 0 0 0
2975 145 2 0 3.078010317455065 6.324675712096988 47.633588415031625 0 0 0
2976 145 2 0 4.285420884072763 6.316932866096114 47.64607928993041 0 0 0
2977 146 2 0 23.358090080176694 24.509794555264968 59.32489543352844 0 0 0
2978 146 2 0 22.17664156782059 24.622412835038773 59.54749998359951 0 0 0
2979 147 2 0 13.275384676554733 19.63492792220664 39.896749627224025 0 0 0
2980 147 2 0 14.30052083233667 20.023693015583692 39.39077155034701 0 0 0
2981 148 2 0 21.95038317313107 0.6029430500854931 68.37555090895623 0 0 0
2982 148 2 0 21.829542434903576 1.7985246881601749 68.25706752327159 0 0 0
2983 149 2 0 13.753108260398598 2.1755510284179125 63.333862799113184 0 0 0
2984 149 2 0 14.578569433770472 3.0553673711507483 63.282938302888404 0 0 0
2985 150 2 0 19.769939865801902 17.979635469057314 51.27594607409144 0 0 0
2986 150 2 0 20.93899902853189 18.213664098933727 51.46722473059875 0 0 0
2987 151 2 0 12.05588429783935 12.59378008554868 50.42016870353767 0 0 0
2988 151 2 0 11.486774701370193 13.507962629240374 50.96646605298767 0 0 0
2989 152 2 0 23.613749150766427 21.35174475313441 65.21343982427115 0 0 0