ITEM: TIMESTEP
0
ITEM: NUMBER OF ATOMS
12000
ITEM: BOX BOUNDS pp pp pp
-5.5944240234822296e-01 2.7900442402348023e+01
-6.2365038572154141e-01 2.7964650385721772e+01
-4.9823953024901328e+00 2.2371039530248339e+02
ITEM: ATOMS id type x y z c_peratom fx fy fz 
242 2 4.93384 4.71521 -0.142115 -23.1362 0.10548 0.992763 1.38331 
1201 2 5.29847 1.95065 -2.38801 -23.5889 -0.559211 -0.956485 -0.276098 
1202 2 5.15237 2.52285 3.37424 -24.9566 -1.77994 -1.03008 0.931954 
2041 2 1.87552 4.96693 -1.82528 -22.8834 4.73128 6.16515 -3.50744 
2042 2 2.29167 4.99133 3.63046 -24.7835 -0.872835 -0.969299 3.33884 
3002 2 1.90126 2.5923 0.698065 -24.0069 -0.670456 -3.9279 3.33776 
9002 1 0.380639 3.67404 2.51154 -7.564 0.18412 2.42448 1.74816 
11001 1 3.00613 4.00597 1.98104 -7.44052 2.83246 -0.969235 -3.52867 
10040 1 -0.390726 2.0521 0.476677 -6.45368 0.0763251 -0.696472 -3.03487 
1001 2 -0.544796 2.29193 -1.87407 -23.5436 -2.41129 -1.38764 1.94414 
4241 1 0.755415 4.01802 -0.497379 -9.03173 -2.1958 -1.25156 1.69467 
9202 1 3.55068 2.98562 -1.18195 -8.95973 0.256118 1.47866 1.10536 
4240 1 4.14722 3.45515 -4.20693 -8.0683 1.3273 0.0571576 -0.157832 
4281 1 3.97266 6.07817 -2.21463 -7.29581 1.12506 -2.58171 -0.831875 
5801 1 1.83987 0.400965 -0.0970877 -7.07501 -0.777407 0.598979 -1.66295 
5200 1 3.46201 0.575109 -3.43136 -8.08937 -0.786007 0.898577 -0.0286286 
3001 2 2.50924 2.22364 -4.85915 -23.558 -1.27312 -1.68885 -1.16433 
11002 1 4.08984 0.855939 2.34481 -7.31128 0.736281 1.53342 -2.14067 
1002 2 -0.459611 1.92557 4.04808 -24.9322 0.401474 0.871924 -1.6412 
11162 1 0.275316 1.20881 -3.49219 -8.03786 1.53904 -1.57795 -0.979507 
8201 1 5.97267 3.45074 1.55035 -7.59885 -0.0333403 0.697513 0.183344 
10361 1 6.3993 0.962936 -0.356594 -7.63623 -0.251304 1.14911 -4.1905 
10240 1 6.35036 0.201678 -3.39081 -6.61619 0.802058 7.35509 1.50704 
41 2 -0.0900297 5.06006 -4.7605 -23.757 -2.41862 1.29307 -2.31916 
6041 1 3.20464 6.06573 0.142494 -6.772 -0.155 -0.276129 0.827078 
8202 1 2.48432 2.3078 4.07224 -5.48026 -0.224242 -1.61676 -1.9676 
8001 1 0.62217 0.952003 2.37106 -6.53381 0.73031 -3.48384 1.95173 
2002 2 2.80617 -0.458489 3.48265 -24.709 1.48039 2.32955 -3.97714 
202 2 5.33731 -0.489186 0.773485 -24.8057 0.835991 -0.569329 5.56112 
10080 1 1.27155 3.87405 -3.67116 -8.58801 2.24844 -1.60122 0.316239 
11041 1 6.96114 2.85649 -3.89033 -8.16326 -0.717297 0.251626 1.14852 
7402 1 12.6033 0.565389 1.63537 -8.37352 -1.3208 0.489967 1.73652 
4201 1 12.1585 0.840392 -3.87169 -8.56192 -1.18523 0.00748741 -1.73014 
442 2 10.9553 4.61873 1.07237 -23.7426 -1.19036 1.83228 -1.92618 
1401 2 10.6886 2.02558 -2.48116 -23.1341 3.54623 3.3159 4.67069 
1402 2 10.959 2.14928 3.43983 -23.6758 0.172171 0.646822 1.87615 
2241 2 8.06797 4.45295 -2.54142 -22.7892 -1.20365 2.59139 0.628742 
2242 2 8.15503 4.68889 3.78032 -24.3366 -0.186008 2.24388 -0.0393918 
3202 2 8.04434 2.03072 0.480981 -24.6614 0.415288 1.74001 2.28967 
5201 1 12.3771 0.784226 -1.23454 -7.64964 -2.04336 1.73629 2.27482 
6202 1 6.70898 3.59219 -1.07709 -8.60549 -2.60238 0.23846 -1.381 
5361 1 9.91424 0.81132 2.0478 -7.75761 -0.947552 -1.16311 -0.0146452 
9201 1 9.29207 0.728956 -0.83247 -8.36491 0.630489 -0.567439 -0.142814 
11242 1 12.3466 3.52779 2.25322 -8.51887 0.49524 -3.8741 -1.00307 
11480 1 12.1276 3.7141 -3.80656 -8.66594 0.972367 -3.79313 -2.10629 
7242 1 9.28504 3.24388 2.05693 -8.38734 0.130395 2.40883 0.602135 
5002 1 9.47488 6.24439 1.21683 -7.28012 0.909211 -0.638346 -0.197805 
10401 1 12.0138 3.73915 -0.879795 -7.83678 -0.637495 -1.06236 1.41639 
7280 1 9.29819 3.57121 -0.91555 -7.73489 0.796674 -0.681634 -0.197023 
10001 1 6.95516 0.647381 2.07091 -6.55533 0.831807 0.184065 0.633118 
2441 2 13.2848 4.71599 -2.2752 -24.0755 2.49998 3.14156 1.5596 
6161 1 9.48681 0.898038 -3.62697 -8.70898 -2.64962 -2.11084 -2.79326 
8320 1 7.02679 5.67853 -4.39779 -8.41963 -0.0563645 1.66532 1.08374 
10442 1 12.033 5.98145 2.60557 -6.7396 -0.831023 2.23988 -1.93004 
4401 1 11.9731 6.1134 -3.53388 -7.70308 -0.714049 3.00094 -1.2439 
6440 1 9.50326 3.76201 -3.89052 -8.88401 1.49835 -1.18221 -0.780013 
2401 2 13.4677 -0.59438 -2.27666 -23.9604 -0.396375 -4.01144 -0.173332 
11201 1 15.2373 3.53474 -4.07065 -6.99393 -3.30801 -0.703456 1.15911 
7401 1 14.6507 0.489297 -3.56529 -7.42844 2.70127 3.2114 -0.99414 
2442 2 13.7535 5.18965 3.58855 -25.5755 -0.0366027 -0.491431 1.34247 
4442 1 17.1803 0.951297 -0.884212 -7.14732 1.87825 -0.304889 0.832647 
3402 2 13.7671 2.21642 1.02845 -23.0934 0.436962 4.27377 -2.80893 
6401 1 17.5445 1.17304 -4.06805 -6.11614 -2.49984 -0.137497 0.357828 
8401 1 20.2434 0.824949 -0.605232 -8.46304 0.567452 0.102834 0.859534 
9402 1 17.7841 3.34423 1.74873 -8.81109 -2.00741 0.998059 3.51931 
10201 1 14.9705 2.76181 -0.931177 -7.90251 -3.47161 1.88956 3.2435 
642 2 16.4168 5.02391 0.920118 -23.2396 -6.06618 -5.19681 -2.98082 
1601 2 16.0695 1.98141 -2.37432 -24.0292 4.13563 -0.896681 -6.63361 
1602 2 16.8447 1.86703 3.42473 -23.6371 0.104757 1.30317 0.633416 
2641 2 19.1683 5.43948 -2.39682 -23.5787 -1.71586 -1.82664 0.242307 
2642 2 19.3686 4.54418 3.57935 -24.4603 2.51029 2.02579 -0.702622 
3602 2 19.1083 2.39426 0.522331 -22.7137 0.545419 -6.69378 -1.11476 
9601 1 19.1154 4.10283 -0.494648 -7.39584 -0.734813 3.62037 -3.10745 
4842 1 17.5192 0.276528 2.13945 -6.92071 1.48233 -0.0171976 -0.883632 
9802 1 20.5089 6.11692 1.90472 -7.07931 -1.3017 -3.439 -2.35691 
8640 1 16.592 5.69908 -1.03698 -6.32391 0.58378 -0.366442 -1.7363 
5402 1 15.1119 3.74641 2.48874 -7.80974 0.636632 -0.821893 -1.13475 
5401 1 14.2186 5.36129 0.267369 -6.74095 -0.437376 0.85346 0.369679 
4762 1 20.721 2.9641 1.72822 -7.35759 -0.351441 1.11511 1.15459 
11642 1 15.1193 0.840107 1.74297 -7.93667 1.32098 -2.02942 2.06383 
4642 1 17.4635 6.2787 1.9559 -8.64441 5.59879 3.871 2.63831 
10441 1 17.5887 6.52184 -4.11736 -8.80254 0.30917 1.68446 0.350459 
10961 1 19.8242 1.03358 -3.30152 -6.93621 3.26638 -0.73499 0.393636 
6603 1 20.5607 2.70279 4.39727 -7.59526 -3.00648 1.61445 4.05123 
11401 1 17.9017 3.79794 -3.50822 -6.38466 2.55619 0.991178 0.276721 
4441 1 14.7016 6.39229 -3.04951 -7.38287 -0.738059 -0.154388 -1.74672 
841 2 22.1975 5.31129 -4.70101 -22.768 0.163517 -1.90024 -2.5899 
42 2 27.3901 4.22964 1.06986 -23.2979 0.609512 0.396479 -3.74281 
8441 1 22.8785 3.13229 -0.141364 -6.63283 0.0907172 -0.974404 -2.87701 
4802 1 21.0773 3.8273 -3.58911 -7.38573 -0.976892 1.16935 0.461282 
4840 1 22.7597 1.04929 -3.75317 -7.0301 2.52682 -0.872341 -5.9114 
5840 1 26.9491 -0.367424 -1.29099 -6.22824 1.29501 3.05504 1.0452 
842 2 22.0765 4.967 0.77283 -25.3623 1.84707 -1.35803 2.32627 
1801 2 21.9247 1.36593 -2.02881 -23.6169 -2.13506 2.58582 4.32091 
1802 2 22.1702 2.14901 3.41461 -24.7427 4.74683 -3.51053 -3.73932 
2841 2 25.1505 5.20965 -2.26571 -23.9457 0.686201 -2.53899 1.79219 
2842 2 25.3584 4.98788 3.71974 -23.5266 -3.44565 -3.43433 -0.0965609 
3802 2 24.6962 1.99366 0.654613 -24.8405 -1.25423 -0.943775 2.56105 
6801 1 26.012 2.94502 -0.641899 -7.4881 0.144896 2.33091 -1.45799 
4801 1 25.7317 0.82435 -3.63534 -6.65366 0.56625 -0.603849 0.0643865 
4002 1 25.9661 3.18932 2.22429 -8.11176 -1.31846 0.803948 1.1586 
8841 1 26.7404 6.05577 -0.356155 -7.87788 -0.428739 -1.35521 -0.176806 
7882 1 23.156 3.77888 2.28676 -6.30263 1.85559 -1.57232 2.11491 
10840 1 27.3403 4.14987 -2.67844 -7.39118 -0.504916 1.44736 -1.84547 
7802 1 26.0137 0.0185085 1.76281 -7.70558 1.55174 -0.178655 -1.51533 
9962 1 23.3062 0.587606 1.86749 -7.30096 0.808853 2.01183 0.440832 
5721 1 23.7394 0.642829 -0.813104 -8.03608 0.0683005 -1.78462 -0.587296 
4001 1 24.371 3.62367 -3.56487 -7.2157 -0.223437 1.25321 -0.564861 
11641 1 26.6161 6.39703 2.46463 -8.96862 -1.63745 -3.98916 -2.9467 
9841 1 21.274 5.60854 -1.01086 -7.80301 -1.97828 3.44158 -3.79108 
10801 1 23.6744 6.20747 2.14889 -7.90072 2.96425 1.05963 -0.274636 
6642 1 24.044 6.09787 -0.527182 -7.49141 -0.54782 -1.22229 -0.926846 
5603 1 20.8909 -0.117189 2.86873 -5.88579 1.65979 3.5071 -1.067 
11643 1 21.5389 5.62553 4.16521 -6.52924 -0.106575 -2.94582 0.581921 
7041 1 1.18014 6.75289 -3.23027 -7.19933 -1.44556 -2.78613 -0.263425 
7282 1 2.26519 13.1149 3.10785 -7.40966 -1.05049 1.31543 -0.458018 
9281 1 6.11036 11.916 -3.7312 -7.62819 -2.27977 -1.19279 0.79231 
4081 1 3.24392 12.1132 -3.7707 -9.20482 1.43753 -2.77928 1.04554 
10802 1 1.12627 7.30411 2.30481 -7.46333 -0.5903 -1.95803 2.51301 
9361 1 6.22865 8.79767 1.58781 -7.36468 -4.04865 5.28085 2.47103 
9001 1 0.636664 7.67426 -0.399157 -6.09885 0.617613 -2.13947 0.817632 
7201 1 3.60703 12.0889 -0.0884232 -8.05755 -2.64282 0.263354 -3.53183 
11042 1 3.07365 9.02615 -0.977988 -7.30509 2.53977 1.44041 0.32866 
282 2 5.12414 11.0855 0.855642 -23.1007 2.53025 -2.37462 -2.40813 
1241 2 5.20821 7.78921 -1.98136 -23.2804 -2.50752 0.225124 -0.346361 
1242 2 5.69187 8.37757 3.84575 -24.0818 -1.98833 -4.00101 -0.261526 
2081 2 2.18249 10.5921 -2.29209 -23.4899 -1.02531 -2.57062 -0.881146 
2082 2 2.29013 10.8585 3.83725 -25.4741 -1.14808 0.180306 -1.90336 
3042 2 2.2506 8.37622 0.86654 -24.791 -0.0487394 -0.0950482 0.549841 
10041 1 0.814216 9.30216 -3.95234 -7.22407 -1.09381 2.51624 0.444884 
6842 1 0.387443 10.0783 -1.13381 -7.20475 -1.51648 1.73697 0.412026 
9083 1 -0.16593 12.7046 1.26434 -7.17087 -0.275586 0.526741 -1.26043 
8081 1 0.483474 11.9216 -3.05001 -7.58442 2.96172 0.518211 1.62481 
9242 1 3.38752 8.928 3.12413 -7.02603 1.57998 0.978566 -1.16442 
7281 1 3.51468 8.8091 -3.60662 -7.85509 3.68108 2.67536 0.13112 
11122 1 4.42876 11.6037 2.70315 -7.37821 0.998116 -0.0192448 2.86974 
10042 1 -0.347778 11.4715 3.56803 -6.33074 -1.11366 -0.814897 1.2732 
11082 1 6.48388 12.4644 -0.957493 -7.54833 -2.75801 -1.80813 -1.81316 
8041 1 6.28161 6.81668 -0.341702 -7.36305 -0.535416 -2.58862 -0.778297 
5041 1 5.91774 9.55904 -1.08735 -8.20313 -0.691902 2.04481 0.765547 
5880 1 1.61315 10.6286 1.42375 -7.0932 0.288505 -1.12331 0.1822 
3081 2 1.88602 13.4806 -4.73098 -23.3018 -2.14645 0.821864 -1.15124 
1281 2 4.87801 13.5445 -2.46559 -23.8848 2.80924 -0.328331 1.28382 
3082 2 1.91226 13.2856 0.777455 -24.2353 1.56605 0.279828 2.48018 
1082 2 0.0899955 13.6034 3.65659 -25.2852 -1.00875 1.74953 -1.47769 
3441 2 13.3945 7.73054 -4.89778 -23.8126 -0.904164 0.689234 -0.151075 
11842 1 7.07685 6.54319 2.66596 -5.87138 -0.536569 -3.43612 -0.594834 
481 2 10.7629 10.6646 -4.91137 -26.5633 -0.267334 -0.352751 -0.493185 
8280 1 8.69296 6.96874 -1.98007 -7.30654 -0.838856 -1.91991 -0.522108 
4282 1 7.29827 12.9396 4.25707 -8.19332 -1.05817 -1.78486 -0.847045 
6241 1 6.77086 9.16708 -3.91461 -8.34598 -1.42967 -0.953477 0.487999 
4042 1 7.10011 11.847 1.31929 -8.34075 1.92278 -1.36386 3.5207 
6042 1 12.1316 6.93823 -0.876957 -7.39784 -1.79153 -1.09278 -0.908409 
8520 1 9.39841 10.6331 -3.09214 -5.66183 -3.10461 -2.23509 0.945055 
10481 1 9.9944 11.6374 2.78736 -9.17572 0.117614 -1.75977 -1.18789 
8241 1 12.3443 9.59732 -3.67318 -7.20502 0.399314 -3.0268 -0.741492 
6282 1 9.73514 12.485 -0.405821 -7.50919 -1.5545 -0.936715 0.840289 
482 2 10.5719 10.6367 0.659004 -23.3663 2.82119 2.13134 -0.832616 
1441 2 10.4916 7.98353 -2.12353 -24.0679 2.63043 2.33913 -0.818888 
1442 2 10.9338 8.09914 3.62203 -24.1906 -0.670176 -5.09957 6.78284 
2281 2 7.39432 10.5827 -2.17077 -23.9766 2.61864 3.5549 -2.40438 
2282 2 8.04658 10.7427 3.22632 -21.7692 -1.55459 2.99496 1.17038 
3242 2 7.92099 7.73416 1.13597 -24.642 -0.204803 -3.06629 -2.23935 
5241 1 8.36216 8.65991 3.16801 -8.12476 2.45398 1.35746 -0.138393 
11282 1 9.87643 8.42305 -4.28205 -6.89986 -0.536961 -1.86407 -0.434141 
9481 1 12.7195 11.6018 1.26729 -7.88505 -2.19458 -0.383979 0.0408511 
7641 1 8.97579 9.30696 0.147225 -8.47971 0.143684 0.927041 -0.861162 
2482 2 13.3765 11.0462 3.24179 -24.1662 3.58602 -2.60202 1.18373 
7679 1 11.3101 12.0958 -3.31634 -5.13768 1.7129 3.43462 -0.552311 
3442 2 13.4749 7.6752 0.548205 -24.6771 1.3357 0.527702 2.86441 
6320 1 11.771 9.68229 -0.871396 -7.17487 0.165437 -0.606769 -0.710056 
5442 1 11.7571 8.62836 1.89759 -7.95647 0.577619 3.30339 -4.21789 
7482 1 12.7799 9.1639 4.52315 -6.52591 -0.656616 4.07237 -0.747173 
1482 2 10.4699 13.5027 3.93148 -24.4991 -0.258267 2.7608 -0.853414 
4320 1 8.25048 13.1648 -2.87964 -6.39443 0.611915 1.02386 0.935182 
3282 2 7.87841 13.585 0.17983 -24.1873 0.223934 3.16728 1.13987 
1682 2 16.8388 13.6548 3.44256 -24.4056 -1.20146 0.0345423 -1.18585 
5480 1 14.526 11.6835 -3.87969 -7.00929 0.969848 1.81774 0.230359 
3482 2 13.8006 13.4852 0.799463 -24.2949 -0.461726 -0.42965 -1.94319 
6441 1 18.1088 7.58518 -1.13911 -7.81227 3.22471 0.832329 0.314306 
4481 1 17.8775 12.427 1.93412 -7.02644 -3.07688 -0.8245 1.01094 
11442 1 14.9118 6.87913 2.6411 -7.20053 -0.45605 -1.59751 -1.03901 
6442 1 17.914 9.3169 1.57554 -7.90671 1.27784 -3.04195 0.318865 
2481 2 13.8263 10.3952 -2.34155 -25.0636 -0.280006 0.418059 2.79948 
7441 1 15.0418 8.96848 -3.62906 -7.69513 -0.598972 -1.12931 -1.92986 
11482 1 18.1186 11.5672 -0.610661 -6.97332 0.532574 0.776474 -0.919408 
4482 1 15.1879 12.2815 2.17908 -7.86015 -0.639955 0.430303 0.799821 
682 2 16.5326 10.78 0.960497 -24.9453 -1.75201 1.33333 -0.669461 
1641 2 16.4326 7.75211 -2.44485 -24.0704 -1.77729 -0.714395 0.842742 
1642 2 16.7695 7.70052 3.44124 -24.2198 -1.26869 2.68834 2.29497 
2681 2 19.5894 10.7812 -2.40022 -23.6908 -1.71714 -0.946311 0.789917 
2682 2 19.7046 10.0917 3.6013 -25.0683 0.178384 1.15551 -0.860613 
3642 2 19.2963 7.60021 0.828187 -23.6203 0.595816 1.12579 0.803156 
10642 1 17.7474 9.53711 4.31665 -6.89703 0.42992 -2.32713 0.633403 
10641 1 14.7425 8.95008 -0.740997 -7.53128 0.800098 -1.15534 -0.916107 
10841 1 20.1949 11.3205 1.63393 -6.90801 2.633 -0.751283 -0.0965177 
4722 1 16.9987 10.5835 -2.83064 -6.26467 1.47389 -0.0680799 -0.601052 
5441 1 20.6537 9.03055 -1.49486 -7.15171 -0.87969 -0.0579399 1.26178 
9041 1 20.4285 6.84933 -3.79783 -8.95512 0.411943 -2.91352 2.03546 
5481 1 20.2133 12.9352 4.17545 -7.11239 0.173351 -3.82001 -6.06443 
4680 1 20.4082 9.46503 -4.14757 -7.32559 -0.552729 0.557242 -1.21199 
8281 1 15.0361 11.7648 -0.744905 -7.41995 1.36698 -0.29101 0.312691 
1681 2 16.2589 13.1314 -2.20872 -23.5205 -1.72557 -2.05037 1.84034 
3682 2 19.3593 13.393 0.919179 -24.1895 2.76603 0.179891 -2.09211 
7800 1 17.4205 13.0088 -4.03038 -8.37265 -0.957893 -0.455913 1.08583 
6242 1 14.8978 9.43386 2.12836 -6.40765 0.445448 1.77195 -0.414915 
7682 1 19.7621 7.82598 3.6636 -6.03003 -1.92665 1.83032 0.458463 
81 2 27.4797 10.7754 -4.48415 -24.7717 0.308981 -3.41553 -1.69918 
3841 2 24.7132 8.25629 -4.58942 -24.3552 1.79283 -0.661418 -2.30901 
7841 1 23.4575 6.56994 -3.2941 -9.34064 5.38624 -4.23476 -4.2687 
4120 1 23.1498 9.27115 -3.35 -8.09179 0.588249 1.07987 -1.51337 
10842 1 21.4503 8.37446 1.45911 -7.09679 -1.32104 1.73962 -2.30292 
8880 1 26.3573 6.58646 -3.28762 -7.8701 0.81949 1.37775 -1.25883 
4082 1 25.4426 11.4946 1.7216 -7.87885 1.87529 0.580284 -1.44425 
8160 1 27.1814 12.7801 -4.23855 -6.25249 -1.55371 3.15317 -0.392562 
82 2 27.5838 10.8196 0.527348 -23.9046 -0.524382 -2.31385 2.38054 
1041 2 27.5861 7.85025 -1.80863 -24.7263 0.959799 0.140717 -2.26386 
1042 2 27.8676 7.52661 3.64268 -23.399 2.12642 4.05773 3.00464 
4681 1 21.0698 12.1269 -3.29768 -7.62195 -1.32764 -3.20855 -1.5193 
9042 1 26.2621 8.80935 -0.397922 -7.82611 0.0911884 2.97922 0.857413 
7121 1 26.0693 9.25325 -2.97788 -8.30063 0.522237 1.59476 -1.03668 
9641 1 24.1253 12.3989 -3.42133 -5.68374 -0.405231 -1.46291 3.39352 
6682 1 23.578 8.95209 -0.748855 -6.88496 -1.0298 -0.97579 1.7631 
11881 1 25.9357 12.0455 -1.08159 -8.94051 1.79698 -1.28757 1.09888 
882 2 22.4682 10.3916 1.19768 -24.2289 -3.56634 -2.09119 -2.0593 
1841 2 22.0182 7.51506 -2.43899 -22.6919 -5.03444 6.88034 7.10894 
1842 2 22.3634 7.45463 3.22694 -25.5963 -3.63612 1.07088 2.28509 
2881 2 24.5635 10.4852 -1.73725 -23.4865 -0.710773 0.273212 -2.94317 
2882 2 25.2851 10.2809 3.57474 -23.6157 0.136713 1.09152 -0.877981 
3842 2 25.2482 7.32689 0.792681 -24.2418 -1.05932 1.61977 0.898792 
9842 1 22.7892 11.7351 -0.505621 -8.60712 2.42865 1.22964 -0.292748 
9882 1 26.8319 9.12966 2.39345 -7.32649 0.148509 -0.488582 -0.836298 
10843 1 23.934 9.23341 2.13091 -7.59993 2.86155 -4.33143 1.45086 
11683 1 23.0218 11.675 2.65731 -6.57584 0.351046 5.17618 2.10782 
3882 2 24.7001 13.0896 0.502368 -23.3597 -0.591506 4.70444 -0.0678002 
9843 1 21.8092 9.55222 3.93442 -6.71678 1.08233 0.487801 1.18599 
1881 2 22.2289 13.5879 -2.42537 -24.5378 -0.00080823 -2.46845 3.46599 
10243 1 6.47951 6.45863 4.93575 -6.58807 0.202603 0.868929 2.11635 
7444 1 3.16855 6.32839 13.5212 -7.27083 2.64189 -1.43768 0.703732 
203 2 5.22892 -0.605575 6.51424 -23.6371 -1.49192 0.50293 -5.21939 
8602 1 0.604919 6.46165 5.56109 -7.47387 -0.350648 1.94479 -3.69022 
4162 1 1.18839 3.85405 5.48851 -6.97584 -0.965395 1.1393 0.599066 
243 2 5.40106 4.70703 6.83279 -24.5091 -0.208671 0.803595 -1.54294 
244 2 5.57482 4.70647 12.0652 -23.8167 -0.860456 0.860889 -1.32205 
1203 2 4.84309 1.87462 9.13861 -24.0506 -2.06932 3.23627 2.68545 
2043 2 2.38892 5.03242 9.46587 -25.0693 -1.99073 0.756584 -1.16717 
3003 2 2.75122 2.38603 6.17301 -24.2078 -0.565225 -0.264067 -0.734964 
3004 2 2.47566 2.5268 12.432 -24.6895 2.86445 -0.931446 1.60191 
8003 1 3.92067 0.470098 13.9565 -6.77816 -1.10936 -1.25936 -2.86544 
10003 1 3.37558 0.469727 10.7679 -7.28131 0.728723 -0.172339 0.0912378 
9203 1 3.19334 3.42983 8.11589 -8.28494 0.962188 -1.05929 -0.444239 
4242 1 4.17212 4.10717 4.74229 -6.92296 1.19991 -1.71136 2.02473 
4204 1 4.51063 2.89046 11.2679 -6.96275 -2.45626 0.286735 1.51275 
7043 1 1.51561 3.37511 10.788 -7.4409 -0.286712 -0.630206 -4.66601 
10562 1 3.55717 0.609835 7.97895 -8.89993 -0.379975 -1.5365 -1.69412 
9204 1 5.82504 4.18731 9.72032 -6.19843 1.7339 1.132 -1.1881 
1003 2 -0.455515 2.26955 9.91978 -24.5832 -1.70877 1.98604 -0.0745178 
10362 1 0.450357 0.452515 10.2349 -7.09104 3.70217 -1.76997 -0.815706 
43 2 -0.555133 4.96418 6.5246 -25.0306 -1.10636 -0.453805 1.52566 
5963 1 0.831477 4.11286 12.9994 -6.87504 0.863519 0.255041 3.54349 
11243 1 6.25426 5.98539 14.0386 -8.69471 -1.66567 1.47383 -1.71259 
4243 1 4.30879 0.947447 5.21483 -7.64198 -0.0759663 -0.832449 0.64149 
7202 1 3.41589 6.09738 7.82562 -7.0318 1.91665 -0.147919 -1.74358 
7203 1 5.8471 2.46605 7.30387 -8.15061 0.792778 0.0678392 -0.976095 
11005 1 1.23646 1.02172 13.1658 -7.13036 -1.88615 -3.70457 -1.1699 
8844 1 6.49533 0.421583 13.3423 -6.20826 0.295127 1.8379 0.145837 
9163 1 0.573609 0.938891 5.68379 -7.33737 3.03003 4.64625 0.321524 
5802 1 -0.215604 3.59835 8.10726 -6.86771 1.20666 -1.76235 1.9802 
4 2 -0.474586 -0.404133 11.9929 -24.6523 -0.402487 -0.896268 1.01138 
10002 1 6.37107 6.46499 7.71598 -7.69933 -0.0322716 2.39293 2.9198 
6003 1 3.3578 6.48251 4.77539 -6.13281 -0.837311 1.55146 -0.221302 
4043 1 0.973982 6.03931 10.849 -6.34841 -0.462563 1.30005 -1.01566 
4803 1 0.608811 6.39315 8.14534 -6.11288 -0.444292 0.729325 0.405196 
8043 1 4.2097 3.456 13.925 -7.31204 -1.75705 0.861034 -0.216569 
5362 1 7.11816 0.230469 5.0106 -6.8508 0.862893 3.61594 2.0169 
6002 1 6.80719 3.25761 4.70056 -8.07283 0.216988 -0.959352 -0.66336 
9562 1 10.5953 0.347833 4.74431 -7.56115 -1.08481 0.623543 0.770572 
4403 1 11.3156 -0.416217 8.69974 -7.78609 -0.41179 -3.29047 1.13891 
8443 1 12.6004 6.36048 13.1522 -6.7903 0.625403 -0.0737905 2.53922 
10004 1 6.71052 3.264 13.3922 -8.663 0.873312 -1.2079 -0.125085 
11804 1 6.62766 1.62106 10.1385 -6.83065 1.00669 -2.65374 -0.499776 
6563 1 13.3554 0.780255 4.70026 -7.44822 -0.217659 2.29566 -0.894872 
7243 1 7.84164 4.85018 6.67804 -7.22208 0.166896 -0.933217 0.334362 
10402 1 12.2414 4.0415 4.83589 -6.93464 2.01959 -2.10306 0.790527 
6363 1 12.0808 1.00986 10.9102 -6.88497 0.769159 0.553061 -2.33915 
10202 1 9.39304 0.752491 10.6625 -5.23851 -0.162006 -1.16313 -0.114908 
443 2 10.8995 4.85294 6.42182 -25.7523 1.53376 1.7412 -1.96034 
444 2 11.0513 4.69006 12.0069 -24.5612 0.505971 1.06992 0.704418 
1403 2 11.196 1.64987 8.8078 -24.5879 -3.80671 4.81311 2.44443 
2243 2 8.57349 5.17576 8.77001 -22.764 -1.51983 -1.27179 0.585175 
3203 2 8.20396 2.17316 6.26695 -24.0875 -1.83083 1.21704 0.160931 
3204 2 7.81789 2.68766 11.4686 -24.5561 3.7446 -1.42959 0.669117 
6203 1 12.311 3.22577 7.53597 -7.47371 0.755137 0.9819 0.826292 
4404 1 12.9185 0.752352 7.37487 -8.41476 -2.61354 0.530008 -1.65351 
11203 1 9.05382 0.89986 7.77113 -7.76781 0.0681607 -3.39865 -0.830733 
8242 1 9.7222 3.37118 7.57897 -7.03938 0.0463077 1.43443 1.04397 
7483 1 12.7176 3.63857 10.5988 -7.24632 -1.23187 0.689565 -1.00602 
8042 1 9.63267 3.24006 4.99791 -7.6648 -0.334795 -2.21095 -2.08602 
11483 1 11.7272 6.47509 10.8608 -6.76859 -1.53476 -0.583922 -3.08875 
4445 1 9.68417 3.11333 13.0644 -8.04377 -0.870277 -0.0881324 0.30928 
7442 1 12.7061 3.43835 13.2877 -7.78208 -1.05874 -0.441223 -2.89568 
9403 1 9.93464 -0.143088 13.622 -6.15737 -2.74087 0.130802 0.785902 
8403 1 12.26 0.392306 13.3938 -6.1869 2.68233 0.835333 0.83529 
9244 1 9.41596 3.34999 10.1257 -6.84885 0.809507 3.28351 -0.410827 
4443 1 12.4374 6.35823 7.82015 -6.72498 0.798077 -2.15312 2.83999 
5202 1 9.88797 5.72626 4.62795 -6.54436 -1.95683 2.33463 -1.16603 
9404 1 8.33246 4.92274 11.9833 -7.03005 -1.19234 0.465108 0.426564 
8562 1 15.3873 3.19504 5.24232 -6.96228 3.37375 -1.09638 -3.81522 
9604 1 18.1198 3.69922 13.3219 -8.20609 1.96259 -0.170006 1.90662 
8204 1 14.9395 0.282845 13.0639 -7.28629 0.539622 -0.266005 1.48566 
8564 1 18.0232 0.805138 13.1397 -8.16302 -0.661039 -0.000413424 0.195848 
7604 1 18.3092 5.56556 10.3174 -6.66069 -2.08312 3.21727 2.5223 
11404 1 15.2931 3.06733 13.0193 -6.53101 2.11446 -0.63083 1.5382 
10803 1 19.5722 6.16433 13.3417 -6.80958 4.04854 -1.43416 -0.9638 
10203 1 15.4004 3.42509 10.4906 -6.34228 -0.760321 -0.804438 -1.48783 
9643 1 18.4214 0.352257 7.76235 -7.7182 -1.04844 -0.813955 -0.231211 
3404 2 13.8639 1.83323 11.8323 -25.5127 0.228401 1.70863 0.81051 
2443 2 14.0138 4.97581 9.30379 -24.8789 0.909078 -0.065808 -0.12174 
11443 1 18.5061 0.570179 4.55809 -7.10304 -1.38807 -0.748484 2.49381 
8243 1 15.4846 0.625897 7.64244 -8.92739 -0.719318 -2.34088 -3.84652 
3403 2 13.976 2.30257 6.27282 -23.691 -3.38189 -0.245167 2.08628 
5763 1 17.5922 -0.0168158 10.4672 -7.72067 2.83714 1.7541 -2.75642 
643 2 16.7336 4.80674 6.4174 -26.2551 1.14842 -1.0867 0.953474 
644 2 16.8698 4.87059 11.9736 -26.3371 -2.24222 0.884577 -0.83744 
1603 2 16.5119 1.70518 8.99449 -23.9603 3.61804 3.95032 4.36211 
2643 2 19.2596 4.29201 9.03215 -25.1201 2.40149 -1.13991 -0.297476 
3603 2 19.5474 1.8967 6.45586 -24.3285 -0.758184 -0.0461966 -1.1561 
3604 2 19.533 1.66106 11.6063 -24.1946 -1.72226 6.1515 0.261662 
6403 1 17.8448 3.02008 7.65752 -8.14603 1.48823 0.406844 -0.179441 
7603 1 17.9358 2.9576 10.5161 -7.02253 0.99873 -1.73122 -0.360848 
11403 1 15.2493 5.72769 5.24733 -6.54114 -1.67595 2.62764 -2.70188 
6443 1 15.2211 3.72406 7.81947 -6.99654 -1.34576 -2.88047 0.528068 
7842 1 15.0782 6.24935 11.0306 -7.29 -0.364129 -0.526112 -1.98647 
5764 1 20.452 2.05226 9.37134 -7.8592 -1.14432 -2.04189 -1.06351 
8482 1 18.0465 3.38924 4.83621 -7.30206 -1.1273 -2.24481 -0.193079 
10763 1 20.1665 -0.23257 11.6097 -7.64434 2.36634 -2.49617 -1.16907 
11603 1 20.7199 3.6509 11.239 -6.46354 -0.184446 1.66395 2.28977 
6604 1 20.7413 1.56716 13.7304 -7.75954 -3.5351 -0.0117877 -1.13241 
5641 1 18.3808 5.84668 5.05421 -6.96429 -1.58708 2.61608 -0.739379 
4643 1 18.4656 5.92971 7.65053 -6.82507 -1.06987 0.241736 -0.0228086 
7643 1 15.477 6.1998 7.78514 -6.83295 0.0322388 2.86841 2.3859 
5403 1 15.0089 0.227315 10.4045 -7.96711 -0.321378 4.38203 -0.0534116 
2403 2 13.8556 -0.417544 8.74412 -23.0999 -0.210577 -7.69337 4.10829 
6405 1 15.4416 5.76321 13.8331 -6.5446 0.489798 1.21483 1.44004 
6762 1 26.7316 3.46938 4.98003 -7.72555 1.11715 1.02376 -0.193604 
8842 1 22.2444 4.31724 13.99 -7.39954 -3.38226 -0.570264 -0.649601 
5804 1 26.4045 0.448024 13.5202 -7.31141 0.254761 -3.37499 0.742266 
8603 1 26.3551 0.400233 10.4434 -7.89316 -2.60378 1.29487 2.20399 
4604 1 23.5288 0.539725 13.6691 -7.27807 0.176205 -2.95096 -0.817714 
7962 1 26.3722 0.332995 4.99216 -6.24771 1.02993 1.40789 -1.13408 
10923 1 27.453 2.10549 12.1752 -5.95731 0.714651 -0.14567 -0.627406 
44 2 27.7076 5.17426 11.8625 -25.1481 3.27959 3.35971 3.96548 
6602 1 24.0625 3.72725 5.14557 -7.78262 -2.64218 1.2576 0.081613 
10963 1 21.0712 0.363761 7.20202 -7.9976 1.52139 0.134576 0.48121 
4202 1 25.6348 4.1443 7.46375 -6.44498 1.61501 0.608397 0.146743 
5602 1 24.0609 2.63408 8.77094 -7.57556 -1.5505 -1.00887 -0.779308 
843 2 22.3338 5.10619 6.16113 -24.65 2.34694 3.28173 -2.217 
844 2 21.7679 5.59444 12.165 -24.1181 -0.532224 -2.53821 -3.52399 
1803 2 22.3791 1.1513 9.07995 -22.1002 0.805076 1.17991 -1.77241 
2843 2 24.6178 4.97275 9.36217 -25.1234 2.43043 0.385201 -0.683264 
3803 2 24.787 2.29511 6.67311 -24.3799 1.47671 -1.89842 -2.14365 
3804 2 25.0056 1.81891 11.944 -25.3096 1.86771 2.59024 2.58355 
5803 1 26.5879 3.94935 10.8229 -6.93356 -2.72381 -3.07068 -5.43065 
6803 1 23.133 1.0587 11.1188 -8.39198 -0.761045 -2.59695 -1.18571 
7803 1 23.9725 4.01193 11.0583 -5.97628 -1.91451 -0.927281 2.564 
9803 1 27.0821 0.369847 7.93802 -6.69336 -0.416659 0.0695607 -0.850169 
8843 1 23.925 0.241506 7.44468 -7.6244 -0.0167198 2.77296 3.02281 
7042 1 20.9521 3.87963 7.01686 -7.8647 -2.20801 -3.16161 2.02041 
11963 1 23.4412 0.998467 4.93629 -6.6036 -1.73066 0.415345 0.0518866 
6004 1 26.1401 5.94182 13.3973 -7.32673 0.667264 -0.147556 1.89812 
5001 1 26.1787 6.49955 4.95968 -8.56805 2.63011 0.366979 1.49681 
6684 1 21.0181 6.31217 9.83233 -6.57954 -1.59099 -6.08129 1.97391 
4644 1 23.7309 5.96358 7.62425 -7.04849 -1.58743 0.595227 1.79299 
9004 1 24.7858 2.80215 13.9865 -5.48881 0.32329 1.15198 -1.37459 
10043 1 1.03393 12.4746 13.5977 -6.29436 -0.975425 0.543437 -1.52913 
10444 1 3.45119 11.873 13.2627 -7.86058 2.18311 -0.0655102 0.0822743 
6882 1 0.785744 12.5361 5.51164 -6.94212 0.369069 0.68057 1.0387 
9044 1 1.06185 9.65507 13.6877 -6.98787 -0.783309 -0.566598 -0.445553 
4003 1 1.32334 9.41324 5.23068 -6.80341 0.340993 -0.161759 -0.678766 
11043 1 3.74756 9.71792 10.808 -7.8203 -1.27879 -2.40223 -2.33634 
9003 1 0.471544 9.72351 7.82124 -6.94111 -1.12436 -0.0908078 2.10924 
6044 1 6.25216 6.60265 11.1509 -6.70628 -0.37821 0.842616 0.758535 
4883 1 1.10685 12.4009 8.57556 -6.32672 -1.18789 -1.35277 0.909014 
4084 1 -0.309516 12.396 10.9233 -7.96113 2.52703 0.439845 0.336547 
283 2 5.4607 10.9983 6.44778 -24.0751 -3.60981 1.59948 2.8536 
284 2 4.91654 11.0666 11.8364 -23.8772 1.32509 -0.262385 1.36106 
1243 2 5.0089 8.07621 9.22342 -24.7251 -0.0915693 -0.71426 0.0712524 
2083 2 2.29259 10.7119 9.26828 -24.7262 -0.175995 0.473991 -1.26517 
3043 2 2.50938 7.65113 6.48623 -26.1073 -0.861084 0.140331 -1.12658 
3044 2 2.26062 7.91163 12.0523 -25.7128 0.31217 -1.891 -0.145689 
4083 1 1.03045 9.35241 11.044 -8.34363 -1.79863 1.42009 -3.17877 
5042 1 4.73527 8.59082 6.16686 -6.39623 0.00510105 0.832057 -1.623 
5043 1 3.42995 12.3627 10.3095 -6.87318 -1.51065 -0.168916 5.77557 
6043 1 2.98789 9.0393 8.09147 -7.23114 1.98707 -0.311681 1.73607 
4123 1 3.41278 11.9427 5.31505 -7.17351 1.70537 -1.23085 1.09494 
9804 1 3.45598 6.6975 10.3336 -7.16284 1.71567 1.64562 1.84302 
84 2 -0.511191 10.5951 12.1225 -23.82 0.782498 -1.35721 2.18649 
9283 1 6.21626 12.2453 10.598 -8.14316 2.58563 -0.908619 -0.889979 
9482 1 3.91751 12.1819 8.16608 -6.73651 0.86211 -1.39763 -4.7261 
11285 1 6.51857 9.27198 10.8618 -7.66535 0.0323185 1.68976 -1.3986 
10082 1 6.32867 9.76177 8.02433 -7.40445 -0.641482 -2.14809 1.64357 
9243 1 6.51881 10.1335 4.88984 -9.06199 2.17284 -0.091586 -3.06725 
4284 1 6.31724 12.3034 13.1895 -8.70338 -0.488177 0.433449 2.82256 
1283 2 5.32078 13.6472 9.1557 -25.3859 -0.472057 0.166724 0.0600391 
9444 1 3.78352 8.7366 13.3867 -7.48147 0.94511 3.33744 0.366847 
10281 1 5.13416 13.496 6.10805 -7.37856 1.71738 0.18079 -1.2652 
6843 1 0.67392 6.90829 13.241 -6.98673 -1.97084 -0.590376 1.5232 
3084 2 1.96453 13.3167 11.7398 -24.4723 0.987974 1.34659 1.35457 
6083 1 9.28566 12.222 11.1166 -7.53309 -2.08508 1.41 1.01866 
6402 1 12.2503 7.01869 5.39958 -5.42471 -0.267913 -2.17889 -1.41224 
10244 1 7.01573 9.65863 13.5911 -7.51928 -2.49556 -3.98552 -0.922524 
3283 2 8.10263 13.5651 6.17256 -24.3618 -0.542335 1.77816 3.20317 
6204 1 8.86089 7.15138 9.9762 -8.25504 -1.63025 -2.69233 -0.16882 
11284 1 11.8338 12.4446 12.9113 -7.24346 -0.303251 2.46925 2.32224 
3483 2 13.4486 13.51 6.20764 -25.1873 0.726518 0.203858 2.57014 
9442 1 12.4542 11.9237 7.53833 -6.99309 1.06625 -1.34132 -2.20222 
4323 1 9.59708 12.0258 5.70396 -7.81403 -0.0037378 0.062039 -2.66758 
5242 1 9.54348 8.77657 5.54805 -7.23802 0.60348 1.94191 -1.31039 
10603 1 11.9102 9.49773 13.637 -6.42178 3.13882 -1.417 0.162323 
5243 1 9.68013 6.87826 7.32169 -8.00863 -0.237768 -2.89777 3.57898 
7723 1 11.9357 11.8016 10.4506 -7.19919 2.09196 2.57443 -2.6272 
10242 1 6.75283 12.2742 7.83471 -7.64466 1.81786 0.329796 -0.265813 
5203 1 9.61226 9.58094 10.912 -7.60373 -2.78215 -3.29413 -1.38582 
11283 1 9.94242 12.1833 8.32562 -5.55975 -1.60581 -0.186519 0.807762 
10523 1 12.6164 9.17322 10.7074 -6.23176 -2.37589 0.151745 0.0114976 
9443 1 11.9713 9.13305 7.85861 -8.0523 2.65212 -1.12195 1.53756 
483 2 10.7349 10.3689 6.8612 -24.5297 -3.12351 4.72431 -2.13323 
484 2 10.9766 10.6977 11.9081 -25.4956 0.95469 -0.67645 4.7146 
1443 2 10.6044 7.94631 9.22069 -24.1489 4.08068 1.84098 -0.224173 
2283 2 7.7877 10.9038 9.41563 -24.8032 0.242465 1.10802 1.13875 
3243 2 7.85183 7.47563 6.33856 -23.7936 0.034663 0.151571 -0.877664 
3244 2 8.05726 8.0516 11.9008 -24.6394 -0.987753 -0.023781 -0.390474 
6243 1 9.0917 9.81951 8.2126 -7.01358 1.06121 -4.02289 -0.867867 
8282 1 12.39 12.3434 4.69025 -7.94256 -1.72648 -0.130787 -1.20506 
2483 2 13.5001 10.8307 9.03066 -25.6317 2.14717 -1.95468 2.12752 
11244 1 9.37033 7.3795 13.455 -6.98653 -0.224012 -0.639883 -0.162681 
3284 2 7.7466 13.6019 12.3278 -23.2845 1.96556 1.96195 -2.08667 