ITEM: TIMESTEP
0
ITEM: NUMBER OF ATOMS
12000
ITEM: BOX BOUNDS pp pp pp
2.2103259210799919e-02 2.7318896740788993e+01
1.3208743042898874e-02 2.7327791256957312e+01
2.0189863045256118e-01 2.1852610136954547e+02
ITEM: ATOMS id type x y z c_peratom fx fy fz 
242 2 5.51655 5.39336 5.63564 -24.6376 -5.99668 -2.34659 -0.694396 
1201 3 5.813 2.60189 3.08661 -28.8258 -0.628426 -0.639349 -0.0961651 
1202 3 5.7591 2.70824 8.36737 -27.3848 1.4158 0.999388 1.70985 
2041 2 2.65874 5.35083 3.0153 -25.248 1.93376 -0.428822 1.92159 
2042 2 2.90801 5.29935 8.36195 -24.2429 -1.01211 0.146474 0.61334 
3002 3 3.04765 2.70107 6.05384 -28.3722 -1.82716 0.243927 -1.24519 
7041 1 1.3049 3.84936 4.35728 -5.75619 0.642505 -1.12915 0.304427 
8001 1 4.48535 1.64496 4.92079 -7.98213 1.77178 0.541275 0.95228 
7040 1 1.49559 1.12244 1.7208 -7.55637 -1.66675 0.0648868 0.788293 
7042 1 3.87307 1.67147 7.92228 -8.68469 0.713955 -0.791222 0.0813566 
6161 1 4.12364 1.36347 1.94531 -7.61518 0.458549 -0.501859 -0.285075 
10161 1 4.6018 4.01903 7.29594 -8.3887 -0.88108 0.168839 0.478141 
9042 1 1.2383 4.11085 7.03919 -7.92633 2.32812 -0.147378 2.54407 
10361 1 6.52207 2.06183 1.35111 -7.0235 1.63849 -1.44404 -1.7119 
6841 1 1.69432 3.87498 1.87016 -7.91298 -1.21131 -0.568405 -3.54006 
9041 1 3.65196 4.34251 4.93743 -6.84515 1.09227 -0.418685 -0.307406 
8280 1 4.79689 4.30358 2.27822 -7.54317 -0.438204 0.15655 0.915315 
11801 1 1.3893 1.54551 7.03578 -7.71805 -0.694104 -1.18477 -0.462457 
8082 1 3.90983 6.62764 6.84467 -7.73905 -0.906387 -0.257177 0.036969 
6362 1 6.62267 1.31971 7.11524 -8.58989 -3.53826 -2.11123 -1.78824 
11041 1 6.59069 3.73764 4.71895 -8.57456 -1.18886 0.054348 -0.262953 
6042 1 6.57022 6.42538 7.00969 -7.60329 3.9485 0.478597 3.72701 
4041 1 1.45065 6.67443 1.08006 -8.84901 -1.60234 1.65223 3.94587 
10401 1 4.06991 6.81978 1.39414 -7.89605 0.82946 0.78765 0.333077 
10082 1 1.3016 6.582 4.47024 -8.40488 3.00446 1.78652 -1.44021 
42 2 0.162302 5.42345 5.78021 -24.9819 -4.09003 -2.8401 -2.55746 
8801 1 2.16872 0.670696 4.69438 -7.71381 0.549907 1.45722 -0.831178 
7120 1 6.75103 6.49497 4.41824 -7.54737 1.565 3.11448 0.103693 
8882 1 1.09376 6.7383 7.45008 -8.68578 0.659416 -0.776261 -2.01724 
9842 1 4.05435 6.7864 4.08436 -7.15275 -0.368948 1.30768 -0.311141 
241 3 5.33409 5.27165 0.538312 -29.0298 0.170745 -0.970475 -0.75878 
2 2 0.316866 0.219232 5.43561 -24.1354 -4.01012 -2.99942 3.95168 
201 2 5.40704 0.162113 0.379949 -24.8388 2.53831 -0.677298 0.729774 
10362 1 7.36572 3.69033 7.27997 -6.93739 -2.01624 0.429393 -1.11515 
10001 1 6.99531 0.919528 4.10324 -7.83177 -1.08801 -0.0399297 2.34455 
10080 1 7.0551 6.22461 2.05007 -6.3084 -2.54708 1.43711 -0.886744 
5161 1 12.8823 0.885741 4.67593 -7.35639 0.509305 0.0786802 -0.220243 
7242 1 9.18183 4.31713 5.62828 -7.94346 1.4972 1.09812 0.356311 
6162 1 12.5241 3.77184 3.79064 -8.33059 -1.10027 -1.14082 0.82445 
442 2 10.8243 6.17264 5.82502 -22.2773 2.97069 -3.16867 -1.24991 
1401 2 10.73 2.90489 2.8985 -24.7928 -2.01553 -3.16095 -1.29954 
1402 3 11.2327 2.05509 8.98374 -27.872 -1.81425 2.61338 -2.07578 
2241 3 8.17234 5.17776 3.71006 -28.8285 -1.75444 -2.73368 -3.34245 
2242 2 8.70411 5.24116 7.92881 -23.4727 -2.22674 -1.97314 1.05215 
3202 3 7.91215 2.37095 5.74339 -28.3868 1.82504 0.660908 -0.715259 
8201 1 9.01241 1.50816 7.3978 -6.73252 0.780671 -2.40865 -1.56032 
5400 1 9.70214 1.17599 4.33922 -8.19264 -0.381375 0.501864 0.613474 
8441 1 12.1417 4.42417 6.49512 -7.44603 1.24843 -1.39929 -0.440029 
6441 1 9.5595 4.59716 2.27545 -6.34899 3.32534 2.96453 -0.666814 
6401 1 11.7308 0.950833 2.33725 -6.74415 0.096679 -0.460779 -0.900712 
4442 1 11.4904 1.45801 6.97688 -7.29876 1.76846 -0.129879 -0.28826 
10201 1 9.17887 0.676491 1.24403 -7.26908 2.06846 1.75097 -1.25674 
10202 1 8.34249 2.90609 3.24085 -5.89051 -0.376981 -0.234007 0.511436 
4641 1 12.8989 5.48031 0.348958 -8.58865 2.7649 0.343465 2.52629 
3402 2 13.4645 2.58517 5.74342 -23.8808 -2.89467 1.73796 0.125379 
9441 1 12.3245 6.70391 3.84697 -8.57685 -3.54977 1.70771 -1.11382 
2441 2 13.5333 5.31016 2.78686 -22.8926 3.15071 0.939206 -1.43727 
402 3 10.6601 0.0722714 5.4557 -28.1595 4.48744 -1.66137 3.21895 
9442 1 9.41327 6.51038 4.26384 -8.73583 2.15781 3.51836 -0.0232236 
11281 1 11.2774 3.15585 0.734933 -7.21096 0.84827 1.12441 -1.16504 
7562 1 9.60388 3.54398 9.18555 -7.8141 3.79297 1.97891 -1.31711 
9402 1 12.0621 6.6046 7.63324 -8.14587 -0.828006 3.00179 -0.957561 
5440 1 14.3995 3.55708 1.56246 -8.66352 -0.239388 1.61572 -0.436955 
2442 2 13.6787 5.27326 8.20504 -24.606 -1.93623 0.101325 0.682768 
6402 1 15.3403 4.48644 7.21036 -8.31208 0.527254 -1.45953 -1.26412 
642 2 16.4206 5.02546 5.42551 -23.5838 0.340114 1.18971 0.653495 
1601 3 16.0979 2.78402 2.49002 -26.2498 2.74166 1.89191 2.22595 
1602 2 16.254 2.62824 8.19733 -24.5288 1.20069 -2.36441 1.71948 
2641 3 18.9471 5.73091 3.1224 -28.1729 1.67049 -1.16731 -0.966388 
2642 2 18.9723 4.98072 8.51629 -24.1504 0.102447 4.03414 -0.492912 
3602 2 19.2719 2.57506 5.49659 -24.608 -3.10636 -1.77596 -1.55969 
4602 1 17.9898 3.61165 7.27666 -8.37171 -1.20097 -0.660622 -2.87098 
5601 1 18.1063 4.17653 4.0897 -7.71742 -4.05564 -0.558105 0.682442 
4601 1 18.623 1.80702 2.61086 -7.84095 -0.408903 -0.170521 -2.47233 
11562 1 14.6082 1.47816 7.16269 -8.15162 -0.136468 -0.136277 0.133801 
6600 1 16.6354 2.65857 0.612652 -7.85412 -0.0697959 -2.48772 0.547755 
9601 1 15.2283 3.33841 4.74266 -8.49894 0.765512 0.217955 -2.32686 
8481 1 17.917 4.67742 1.36016 -6.9581 -0.292584 -0.467738 2.36823 
9761 1 17.5086 1.30543 4.87557 -6.79361 0.00850591 -0.0748039 -2.30482 
11602 1 17.1998 0.867564 7.18995 -6.93193 1.37311 0.362431 2.54918 
6561 1 15.6528 6.20131 1.70445 -7.58358 -3.55671 -0.129523 2.71151 
8602 1 15.2711 1.21528 2.68395 -8.05652 -0.596909 -2.89758 0.4504 
5401 1 20.4581 4.37998 1.37374 -7.71296 0.295546 -0.0598901 4.34774 
9802 1 20.4065 4.10678 4.59383 -7.18481 2.99349 0.583058 -3.05144 
7601 1 17.5159 6.70352 4.60556 -8.19427 -2.51587 -2.28647 -2.92874 
11843 1 20.2695 5.79774 6.71612 -6.95983 -1.63736 1.40691 4.12927 
4642 1 14.6186 6.34298 4.65587 -7.26602 1.44629 -2.52291 -1.33626 
8682 1 17.8491 6.68845 7.26303 -7.78304 -1.13786 0.171307 -0.219802 
3601 2 19.104 2.90273 0.494991 -24.8801 -1.45253 1.32 -1.37942 
2601 3 18.991 0.0499264 3.545 -27.9962 0.00801259 -1.45843 1.97177 
1001 3 27.1978 2.54866 2.84151 -28.4552 1.03007 1.64645 0.364563 
841 3 21.7977 5.52788 0.227862 -29.1666 0.731646 -1.10363 0.0214728 
9401 1 20.9695 1.61404 4.2502 -7.78056 -1.07876 -1.0451 -0.483623 
10800 1 20.9487 1.62782 1.2589 -8.42402 -2.20291 2.34536 1.3251 
9844 1 20.5604 6.74137 4.51849 -7.25438 -0.651099 2.10712 -3.18598 
11802 1 20.54 2.98867 7.0961 -7.61867 0.744793 -0.983826 1.47913 
1002 2 27.2355 2.55254 8.48128 -24.8905 -1.92842 1.0147 -1.89825 
4801 1 26.2052 3.75676 4.20549 -5.80453 -3.02362 0.12905 0.971982 
10801 1 23.4821 0.979244 4.49756 -7.63663 -1.10533 -3.0864 0.75736 
10641 1 23.1242 3.5984 6.8658 -6.65114 0.336003 -2.28979 -2.07097 
8601 1 23.221 4.0753 4.06295 -7.29241 -0.404268 0.0281845 0.355435 
842 3 21.7695 5.03899 5.79708 -28.9658 1.35952 -0.879916 -1.26654 
1801 3 21.6289 2.90501 2.68432 -28.2416 2.89954 1.46934 1.67704 
1802 3 21.8309 2.51812 8.62939 -29.1228 2.19633 -1.2896 -0.494861 
2841 3 24.7531 5.56359 2.6543 -28.563 -3.06611 -3.67902 3.36044 
2842 2 24.6524 5.04425 8.21101 -24.7547 -2.05411 0.0234491 -0.689431 
3802 2 24.5371 2.45766 5.4714 -25.5352 1.79704 2.94226 0.268105 
5801 1 23.0651 4.14817 1.21815 -6.22717 0.569693 -3.73523 3.99283 
6802 1 25.753 3.60467 6.92692 -7.55103 2.20072 0.17124 0.109706 
9961 1 25.8255 0.73916 1.19057 -7.48242 0.731102 -1.80487 -0.593431 
11882 1 22.7613 0.855977 7.50039 -7.50653 -1.01367 -0.0673437 -1.77486 
8840 1 25.5447 0.560841 6.68409 -6.82185 0.796348 1.57935 -1.04261 
8841 1 23.3613 6.40488 1.37393 -6.91808 -0.243271 5.04344 1.80343 
5840 1 25.9779 3.41161 1.57896 -7.50259 0.353518 1.42202 -0.993278 
7880 1 23.6635 1.67758 2.17884 -6.48083 -2.36969 -1.40026 -2.84258 
9002 1 25.1918 1.5842 9.05812 -6.01979 1.78455 -0.987644 0.540217 
3801 3 24.5517 2.96361 0.203118 -28.4912 -0.132882 -0.151062 1.4394 
5040 1 25.8041 6.19551 1.37083 -7.80218 3.99675 2.77019 -4.89162 
6842 1 25.472 6.41312 6.74154 -8.00296 1.40488 -0.207153 -1.19478 
6682 1 22.6987 5.76296 7.54527 -7.17881 -1.0802 3.70533 0.0135238 
6643 1 26.2683 6.25718 3.7372 -6.71313 -0.529409 1.75942 1.19195 
4962 1 26.1228 1.24291 4.10875 -8.15596 2.02776 -1.23404 -1.02664 
801 2 22.1313 0.1598 0.556836 -23.3382 1.99571 -1.80632 -1.82533 
4083 1 1.30281 12.4038 7.10817 -7.60667 -0.949829 -1.97829 -1.11788 
1282 2 5.45553 13.6169 8.11548 -25.0124 -0.131125 1.3304 2.59512 
3082 3 2.47133 13.504 5.92856 -28.7874 0.525693 1.61271 -0.816391 
9320 1 3.77546 12.4149 1.80752 -7.8538 -0.397219 -0.953054 0.400128 
4841 1 0.847072 12.3947 1.35215 -7.99677 1.89279 3.06568 0.529222 
282 2 5.35526 10.7203 5.69906 -24.1685 -1.445 3.44392 1.6752 
1241 2 5.52087 7.86766 2.58146 -24.6737 1.19692 -0.255384 1.10394 
1242 2 5.51532 7.99516 8.05553 -25.07 -3.01751 -0.88723 1.77508 
2081 2 2.38868 11.0271 3.00134 -24.6282 -2.81589 -0.801797 -4.59104 
2082 2 2.60584 10.6624 8.25807 -25.3499 0.786555 0.58757 0.834434 
3042 3 2.39682 7.95347 5.69098 -27.7692 1.35557 -0.277151 0.833191 
5041 1 5.6338 9.29013 4.21373 -7.95447 1.54057 -0.300019 -1.13907 
10041 1 0.498143 10.01 2.28768 -7.29609 -0.59308 -1.29942 -1.58109 
5082 1 1.85661 9.1773 4.15292 -7.71999 0.617411 -0.081096 1.17136 
8121 1 3.4709 11.4709 4.59588 -7.38817 3.62015 0.707754 4.14762 
10280 1 3.51448 9.59971 1.65813 -7.48236 0.405377 -0.472604 -1.55036 
11682 1 3.65858 9.18722 6.86475 -7.81609 0.41342 1.54306 -1.90832 
9883 1 0.958499 9.50247 7.02281 -8.39237 0.629688 0.802354 -0.701531 
11082 1 1.17662 12.634 4.26495 -8.10709 -1.56701 -1.88026 0.341631 
11120 1 6.57285 9.29459 1.00875 -7.84014 -2.57535 -0.914732 -0.731037 
5242 1 6.6327 9.13327 6.68852 -9.07053 3.02689 2.14028 -2.3755 
4281 1 6.69404 12.0153 1.98516 -8.28636 -1.02153 -0.13363 -2.93645 
9082 1 6.67662 12.0844 7.22825 -8.11705 0.379266 -1.72827 0.10346 
1041 3 0.146386 8.0654 2.97382 -27.2702 -1.33406 -0.0614098 1.75691 
1042 3 0.0290554 8.06885 8.39084 -28.6446 -0.826543 1.15508 1.70796 
6242 1 4.80026 9.71559 9.08286 -7.07013 -3.36342 1.34424 0.534815 
1281 2 5.38735 13.5684 3.04033 -25.4779 1.29892 -0.668206 -2.52523 
6083 1 3.94674 12.3092 7.11343 -7.90184 0.348213 -0.833711 -0.984257 
6082 1 6.37937 12.6713 4.73203 -6.82448 -2.6469 -1.14188 1.51064 
11242 1 9.43684 7.23154 0.699124 -6.33437 -0.284218 -0.386836 3.59428 
3281 3 7.7626 13.1076 0.311921 -27.1267 0.688517 1.4691 0.18602 
5320 1 8.5552 10.9119 5.05045 -6.73269 -2.81729 -3.58985 -0.468851 
7641 1 11.5288 8.10138 0.686559 -8.11932 2.99808 1.38659 1.15381 
8642 1 11.3139 8.44473 5.47643 -9.48922 0.763651 0.399683 0.0681199 
9203 1 9.24096 7.12215 6.9947 -9.22412 0.0628001 0.441112 -1.15324 
7241 1 8.98405 10.242 1.08099 -8.2922 2.98985 -2.13498 -4.61543 
11441 1 9.75977 12.7178 1.60937 -7.74085 -0.939689 -0.15701 -2.40147 
6202 1 8.46624 8.62071 3.15766 -8.52495 -0.772473 2.41268 1.50155 
482 3 11.5018 11.0113 5.72665 -27.1439 -1.49144 0.581807 -0.476883 
1441 2 10.4185 8.02663 2.67195 -22.1557 0.75705 -1.65505 -1.44004 
1442 3 11.0097 8.47652 7.73627 -27.2061 -0.442901 0.558723 4.18319 
2281 2 8.47765 11.159 2.76374 -24.4148 -0.301081 2.4463 7.19817 
2282 3 8.21035 10.6608 7.58934 -28.5188 0.591453 2.48326 1.77998 
3242 3 8.08539 8.49588 5.16535 -26.2452 -0.848414 -1.01583 0.810828 
8282 1 12.0163 12.9255 5.46081 -7.36537 -0.918073 -2.26025 -2.15276 
7482 1 9.72204 9.75438 6.8992 -7.5861 1.7954 -1.92223 -3.9125 
9243 1 9.4808 12.4564 6.87707 -7.55992 0.766577 -0.938887 -0.0532966 
10841 1 10.5446 11.1064 3.47093 -7.25322 3.27501 -2.47555 0.321597 
7481 1 12.6 10.906 1.05111 -8.1828 1.12504 -0.352058 3.07767 
3442 2 13.6336 8.23084 5.23776 -24.4222 1.23028 -0.443996 0.69499 
5480 1 13.3496 10.4204 4.64071 -7.74634 -4.13001 -0.540666 -0.750204 
7681 1 12.9814 13.206 2.78472 -7.29181 -0.884725 -1.139 1.77851 
4283 1 13.6335 9.77503 6.91004 -7.54533 -1.7568 -1.92425 1.71904 
4202 1 12.4039 11.9769 7.78256 -7.85288 -2.25585 -1.35418 -0.689623 
9481 1 8.55146 13.2911 3.86211 -6.8921 3.91679 3.04824 -1.57582 
481 3 10.9931 10.9875 0.304316 -27.0273 -4.45533 1.08092 -2.76215 
1482 2 11.0058 13.623 7.90221 -25.9091 -0.631561 0.423229 1.92889 
10282 1 7.27969 9.79313 9.21058 -6.86991 0.670768 -0.156764 0.738498 
6283 1 9.73113 10.2864 9.11401 -5.7138 0.73815 -0.542335 3.7298 
3441 3 13.5016 8.39164 0.234061 -27.978 2.66512 -0.61768 -0.872777 
8480 1 15.864 8.92019 0.266276 -6.61894 -0.881177 2.47303 1.82039 
4403 1 14.783 7.30417 7.12247 -7.46031 0.186652 0.634155 0.278988 
3682 3 19.0085 13.3792 5.16982 -27.4154 -0.349023 1.46606 2.115 
11241 1 13.9088 8.8624 2.13035 -8.13993 0.186903 -0.603959 1.57021 
2481 3 13.7471 10.9247 2.82339 -27.3446 -1.38724 -0.0972417 1.79235 
11681 1 20.3353 12.2802 1.68363 -8.16805 -1.95347 1.16513 1.81227 
10441 1 14.9577 12.1571 3.92845 -7.70782 3.39074 2.28359 4.41627 
11480 1 18.112 9.52345 4.51271 -8.43275 -0.164752 1.92796 -1.91601 
2482 3 13.766 11.0223 8.51487 -27.0739 1.55366 -0.00957694 0.322958 
9602 1 17.7426 12.3727 3.77511 -8.31176 -0.228688 -1.29283 0.284962 
4241 1 15.0312 11.5671 1.67565 -8.5533 2.44011 1.01462 -5.21716 
682 3 16.5261 10.9574 5.51724 -27.5461 0.566653 -2.0054 -2.91977 
1641 3 16.5129 8.61252 2.66583 -27.8673 -0.063541 -1.95321 -1.27315 
1642 3 16.2838 8.17082 8.07843 -27.0453 1.3657 -1.16377 1.37796 
2681 3 19.276 10.8414 3.06131 -28.2492 -1.73373 0.0944156 -1.06737 
2682 2 19.1694 10.9046 8.2013 -24.8538 0.0444354 -2.1532 0.996417 
3642 2 18.7419 7.85549 5.63914 -23.49 4.17472 1.25069 2.55319 
4681 1 17.3793 9.60098 7.1111 -8.20801 0.699381 -1.99639 0.496158 
9681 1 17.4678 10.3243 1.96097 -7.66832 -1.76677 -0.575856 1.27299 
4721 1 18.1436 11.9726 6.33857 -7.9665 1.39329 -0.216828 0.791003 
5402 1 15.5007 8.99936 4.43992 -8.07337 1.68126 1.64107 -0.660374 
9641 1 15.6524 11.5781 6.96664 -8.09026 -2.84847 1.69765 1.99932 
4881 1 18.1396 7.30733 2.22768 -7.69792 1.40548 2.37088 -0.546691 
11921 1 19.7556 9.75496 1.2138 -7.34039 0.102386 -0.406314 2.13595 
7081 1 20.3987 12.3396 4.29966 -8.99571 0.852631 -0.36948 -0.16822 
6679 1 17.3705 12.842 0.956355 -8.09322 -0.909624 -3.04862 -2.03973 
1682 3 16.1709 13.2052 8.16639 -28.3632 2.3097 2.11164 1.0571 
8560 1 20.3306 8.94713 6.50917 -8.14462 -0.24377 2.71957 0.0456921 
681 3 16.4816 11.0905 0.259786 -26.6193 0.877221 -2.87192 0.202352 
3641 2 19.3518 7.90044 0.205681 -24.5425 -3.46233 0.945277 1.65794 
3481 2 13.7349 13.1911 0.634216 -23.4549 -3.95712 -1.76334 -3.3444 
8641 1 20.9068 7.03778 1.56255 -8.46415 -1.24221 0.451014 0.055174 
1082 2 27.1 13.4346 8.57299 -24.2135 1.5447 0.134532 -1.51922 
4081 1 25.4273 11.4344 4.57352 -7.94782 0.843934 -0.191771 -0.747691 
82 2 27.1127 10.781 5.5854 -23.426 1.72308 -0.840772 1.19508 
881 2 21.3662 10.9244 0.458798 -24.9022 3.0603 -0.506515 -3.45175 
5681 1 20.8847 9.78671 3.58617 -8.14745 1.05308 0.247832 1.2162 
8920 1 23.152 12.1961 4.17965 -7.66788 -2.26358 -0.8047 1.78445 
8081 1 25.9872 12.0204 7.20538 -7.89119 2.18475 -0.860139 -0.407086 
11841 1 25.1066 8.819 2.46362 -7.89785 0.804216 -1.58912 0.122245 
6882 1 23.4615 6.94088 4.31933 -7.81697 -0.47434 -1.81997 -1.14525 
8721 1 23.6414 11.7088 7.21626 -8.19257 -4.14266 0.807602 -0.482544 
9720 1 22.8959 12.2482 1.76094 -7.47871 -1.31607 -0.334087 -1.23353 
8881 1 25.159 13.4525 2.35231 -6.90664 1.83759 0.446273 0.0203271 
7882 1 26.7224 8.5479 4.92494 -7.75634 -1.28678 1.81451 0.062546 
882 3 22.0767 11.0914 5.51412 -27.2775 0.184129 -1.25179 -0.144936 
1841 3 22.0608 8.20633 2.92795 -27.3838 -1.00516 -3.25583 3.49813 
1842 2 21.54 7.87851 7.87743 -24.3993 -0.0681 -2.37555 3.62658 
2881 3 24.1133 10.7586 2.71524 -28.6666 2.10806 2.11209 0.714954 
2882 3 24.6998 10.5676 8.26861 -26.9288 1.53071 -1.46446 0.0154621 
3842 3 24.6272 8.03249 5.43811 -28.6823 0.972782 0.322293 1.4346 
5680 1 23.0503 8.87627 6.87638 -7.32391 0.304932 1.01853 0.362205 
6801 1 23.4204 9.40817 4.50508 -7.77556 -0.668099 2.76634 -2.10066 
5841 1 22.7369 9.32303 1.59075 -9.14758 -0.126759 2.29341 -0.867531 
1882 2 21.8152 13.3398 8.42672 -23.7064 0.388265 2.61517 -1.67647 
3841 2 24.3433 8.38864 0.393732 -24.4199 0.321598 -0.511968 -1.4929 
10840 1 25.3314 10.9378 0.920271 -6.93349 -0.90576 -1.15124 -0.170649 
3882 3 24.5547 13.3549 5.5718 -28.612 -2.85755 -0.835273 0.389753 
1881 3 21.6404 13.5259 2.79436 -28.1904 1.92673 1.82067 1.7558 
4723 1 20.894 11.9887 7.01366 -8.69157 -1.15394 -1.88487 0.369295 
6843 1 25.5576 9.04347 7.33601 -7.57341 1.29771 1.29097 -0.357034 
11042 1 4.33172 4.10311 10.0317 -8.0174 1.70522 1.3795 -3.25421 
8283 1 1.36686 6.63888 10.2012 -7.30469 -2.10975 -2.83241 -1.37546 
11004 1 4.38994 1.41848 10.6441 -7.95323 1.58064 0.155317 -1.30344 
4002 1 3.90457 6.83142 9.58093 -8.01453 1.64635 -0.935077 1.31472 
10004 1 4.22944 4.07961 18.1861 -8.30883 1.64027 -5.87441 -1.46767 
6002 1 1.05353 3.85934 12.2664 -7.34583 2.93015 -1.96986 1.84829 
243 3 5.48104 5.53416 10.9633 -27.308 2.18488 -0.405961 1.25475 
244 2 5.6775 4.8839 16.6373 -24.6205 0.854817 0.0326446 -2.82068 
1203 3 5.68533 2.43262 13.916 -29.1002 1.08159 3.10754 -0.238557 
2043 3 3.03475 5.24355 13.3578 -28.8765 0.914788 -0.113854 3.93735 
3003 3 3.04163 2.53379 10.8262 -27.0959 -3.8318 3.01267 1.53603 
3004 3 3.34294 2.73176 16.2535 -27.9693 -1.66901 -0.786116 -0.312252 
7003 1 0.868383 1.10587 9.59131 -7.65122 3.00443 -2.05564 1.06799 
10204 1 5.38025 2.21929 16.2042 -6.76285 1.37416 -1.89972 4.84793 
9003 1 5.93875 5.6198 13.56 -5.77114 2.81299 -1.17546 -1.55224 
7002 1 4.02573 1.6963 14.391 -7.22077 -4.55314 -4.79102 -1.97213 
8842 1 1.76345 3.8383 9.78341 -8.13272 -1.15333 -0.0137437 -1.86263 
4042 1 3.87968 3.7111 12.3248 -7.37727 -0.600264 0.764989 1.6147 
1003 3 0.159171 2.83677 13.9304 -28.7583 -1.20769 0.589584 0.0320362 
7043 1 1.8262 3.93307 15.0579 -7.43129 -2.18051 1.21451 -0.407638 
8003 1 6.6308 2.78501 12.0998 -6.91916 -0.185716 -0.144266 -1.02006 
4203 1 4.2262 3.98765 15.0683 -6.65156 1.32331 4.72795 0.435107 
6163 1 6.32619 0.489654 13.6852 -7.20757 0.122084 0.742621 -1.02413 
6804 1 4.71237 6.34975 17.9006 -7.34337 0.991234 3.13632 -1.09049 
44 3 0.693687 5.23916 16.6177 -28.2572 -0.397081 0.28046 -0.993594 
8603 1 1.26414 1.06733 13.728 -7.75237 -1.68827 1.10016 -0.297509 
4044 1 1.36019 2.00999 16.6299 -7.66934 0.563091 -1.22014 2.27791 
10042 1 1.39161 6.42599 12.6573 -8.14516 0.729192 0.421681 -0.0386021 
5042 1 1.84596 6.69886 15.3378 -7.40676 -2.84185 0.144846 0.671872 
7804 1 1.82332 4.42358 18.3912 -7.99427 -3.58198 -3.59318 -1.36368 
203 2 5.83385 0.10065 11.3489 -24.0998 0.658275 -0.210082 0.98968 
7004 1 3.64267 0.844342 17.8948 -7.91806 -0.326447 0.912425 -3.36515 
7402 1 7.39129 1.10434 9.68302 -8.49347 -2.51401 0.575384 1.56678 
5202 1 7.35902 4.29471 9.65507 -7.00759 -2.85479 0.979555 1.65337 
11403 1 11.6425 0.280677 13.4084 -8.14229 1.17659 -2.53271 -0.280192 
5362 1 10.1203 0.77684 10.0252 -8.21938 -1.50362 -1.49437 -1.84329 
7563 1 12.6203 4.17769 18.2592 -6.76304 0.215968 -1.78122 1.18235 
11085 1 7.10017 3.51324 15.0681 -7.72702 2.78492 0.435808 0.178406 
11003 1 7.7161 6.2968 11.6983 -6.95697 1.31919 1.56725 1.95469 
7204 1 9.80165 1.34872 18.2035 -8.5491 -0.453715 -0.47791 -4.28291 
7203 1 9.8625 1.04504 15.2732 -7.56625 -1.25091 1.32535 1.60173 
4443 1 9.52161 4.43271 12.6253 -7.34271 1.03732 0.627514 -2.39089 
5403 1 12.5922 1.40727 15.81 -7.69009 0.385481 -1.95551 0.479824 
443 2 11.1481 5.09707 11.1684 -23.5921 0.244902 -2.5299 -0.113523 
444 3 11.7033 5.29536 16.5153 -28.4456 -3.1241 -2.09366 -1.12538 
1403 2 11.8358 2.31448 14.076 -24.2189 -5.79176 2.02585 -1.5386 
2243 2 8.33237 5.42525 14.063 -24.8687 -2.33575 -0.337758 1.10445 
3203 2 8.62222 2.67692 10.7601 -25.1317 -1.98624 -1.40269 4.75608 
3204 2 8.6068 2.48424 16.5975 -24.1935 0.00559507 1.29903 -1.17925 
9443 1 8.87997 1.33079 12.6735 -6.75818 -0.298293 -0.505271 -1.29249 
11043 1 10.1727 3.80572 15.2615 -6.45868 -1.61176 -0.0141742 0.411409 
6204 1 12.6362 3.93361 15.2793 -7.69431 1.79893 -0.00938834 -2.18249 
10402 1 12.0967 4.18198 9.44951 -7.51429 0.249262 -0.153963 -1.43741 
9642 1 13.2149 4.39268 11.766 -7.35226 -0.805696 0.457953 2.65862 
4284 1 12.6993 6.67314 14.5843 -7.33148 0.355769 -0.338179 -0.488106 
9762 1 11.0353 2.44497 11.641 -6.93081 1.82649 0.962941 -0.240233 
9204 1 10.081 6.81595 18.2905 -7.33644 1.06969 -0.39203 -1.42189 
6044 1 7.79017 5.70613 16.482 -7.91216 -0.403158 -0.605347 -1.42402 
11603 1 12.9162 1.45221 9.47097 -7.58142 1.74107 0.677896 0.431938 
11203 1 12.9233 6.26042 17.3881 -6.60905 0.603817 6.49094 1.05034 
6043 1 10.0471 6.81498 14.8718 -7.79882 -1.32857 -1.1701 0.166471 
10243 1 9.86833 3.97585 17.9377 -7.41613 -1.64102 -0.112141 -1.57648 
6365 1 7.18586 0.763691 17.7429 -7.63341 -0.387748 2.07804 0.664706 
5563 1 12.7767 1.74034 18.3925 -6.68532 0.768029 -1.0939 1.68695 
10403 1 15.0375 3.71152 9.62553 -7.92365 -1.3974 0.0878355 0.8229 
4404 1 19.2435 4.50006 17.6135 -6.80088 1.04378 0.511572 1.36184 
9404 1 18.2512 6.76167 18.1658 -7.9225 -2.99883 2.06155 -1.94113 
5201 1 13.7474 1.87633 13.0927 -8.64378 -0.0103877 0.104367 1.28043 
2443 3 14.3661 5.36336 14.1649 -28.0626 -0.454782 3.06384 -0.942495 
3403 3 14.2563 2.7594 11.3356 -27.846 -1.12592 -0.21726 -1.61138 
3404 2 14.1463 2.84447 16.8142 -24.8174 -4.23547 2.97381 4.96734 
6601 1 17.9743 1.16421 9.88381 -5.87339 -1.70095 3.15066 0.114674 
7842 1 17.142 6.67689 9.73761 -6.69974 1.81235 2.75464 -3.26638 
11243 1 14.6565 4.87799 16.0808 -6.96685 3.36862 -0.642496 -1.74831 
7642 1 17.6184 3.99454 10.0611 -8.0159 1.61523 0.342385 -0.326546 
7603 1 18.4401 3.53653 13.268 -6.99122 -1.04276 -0.128313 -0.883473 
9403 1 20.2119 1.62752 14.8027 -7.22621 1.58129 -0.147979 1.55662 
643 2 16.2017 5.46736 11.0547 -25.5799 -2.62629 -2.00292 1.57444 
644 3 16.8734 5.29727 17.06 -28.5678 1.038 0.807011 -1.64876 
1603 2 16.6029 2.40447 13.9141 -25.1326 2.50818 -1.56032 1.52117 
2643 2 19.3372 5.43501 13.9712 -25.5709 0.224456 0.927798 -0.483367 
3603 2 19.2107 2.92341 11.2297 -25.3746 -0.196871 -3.63039 1.40822 
3604 2 19.3656 2.60162 16.7136 -24.9794 -0.786227 -0.550811 -2.56263 
8403 1 17.549 3.48932 15.8348 -7.10278 -1.99752 0.507093 -0.607272 
6603 1 17.7912 6.30201 15.2702 -7.34637 1.40895 0.371288 0.0619491 
9603 1 15.6904 4.27325 12.9421 -7.47062 -1.50335 1.06428 3.18917 
7802 1 18.2648 0.729737 12.6922 -6.6823 0.81559 1.27549 -0.149452 
8402 1 17.8883 0.734278 15.614 -7.61599 -0.966492 -1.13775 0.965191 
8242 1 14.4427 6.55089 9.72976 -7.90841 -0.20813 2.2282 0.69759 
11483 1 15.0114 6.70534 12.3926 -6.17231 -3.23087 0.528976 1.23962 
4562 1 15.1775 1.59237 15.6894 -8.27552 3.20536 -3.00393 -5.21069 
7202 1 16.0848 2.31133 11.8557 -6.6446 0.767907 -3.66145 -2.95789 
11644 1 17.5033 6.61945 12.3424 -6.99958 4.397 0.788302 2.15737 
10962 1 20.2883 0.926788 9.55745 -7.18658 2.66249 0.180911 -2.35657 
4843 1 20.4761 3.90696 9.63753 -8.97097 1.07544 -0.188244 0.45668 
2403 3 13.9338 0.104879 14.4362 -28.1342 -0.257875 -1.78689 -0.100317 
4883 1 20.3783 6.61703 9.79354 -8.03535 -1.93238 -1.17014 -1.46407 
7444 1 15.3306 1.23018 18.2289 -8.65332 0.866884 -0.337702 3.40501 
10444 1 15.7742 3.94587 18.0638 -8.11739 -0.22108 -0.268629 3.19015 
6444 1 21.2102 6.45217 18.3325 -7.69863 1.29358 -0.836982 -1.1104 
8804 1 26.4361 1.47514 17.9102 -8.42731 -1.65945 0.261457 2.06908 
8802 1 22.8819 1.32269 10.1144 -6.48642 -0.575792 -0.309414 1.70815 
6604 1 23.0212 1.0398 15.1979 -7.40894 -2.16347 -0.606474 0.724688 
7803 1 23.9487 5.2081 17.2118 -8.09901 -0.520814 -0.514227 0.425493 
4603 1 23.1827 2.61544 17.8177 -7.47869 0.0876565 2.01804 -0.615301 
6644 1 20.642 4.25357 15.2006 -7.59719 1.80766 -2.23783 1.6604 
43 2 27.2863 5.17365 11.0227 -24.5283 -1.18099 0.293039 1.94422 
804 2 22.1738 0.121783 16.9275 -24.2356 0.475075 -1.17548 3.05172 
4803 1 20.9648 1.47671 12.0407 -7.08923 0.102714 1.82972 1.11868 
10762 1 24.0176 1.71288 12.8636 -6.2779 -1.4026 -4.11531 1.34087 
4003 1 26.4855 1.64956 11.6552 -6.78553 0.174711 -0.214389 1.05275 
6403 1 20.5439 4.54316 12.2958 -6.61391 0.337741 -1.42179 -1.58803 
4804 1 23.4131 3.78361 14.9249 -7.01317 0.975972 1.80829 3.07648 
5002 1 25.7978 6.26635 12.6852 -6.438 0.702745 5.46302 -4.00942 
10003 1 26.378 4.15012 15.4717 -7.61663 1.11365 0.356953 -1.13866 
9963 1 25.637 1.71832 15.24 -6.87704 2.84339 -3.24781 -2.45742 
5603 1 23.183 4.11383 12.3734 -6.44455 -0.572108 1.55385 -2.14315 
10802 1 25.9321 3.99694 9.63438 -8.55236 2.22113 2.23903 1.91487 
843 3 21.9499 5.63348 10.43 -27.3249 -0.465787 -2.48778 3.73281 
844 3 21.9224 5.29628 16.7126 -27.5381 -0.451309 0.594413 -2.00807 
1803 2 21.9605 2.70888 13.8114 -26.3453 -0.0440094 -0.222114 -1.96 
2843 3 24.759 5.2789 14.0169 -29.9765 -1.11117 -1.39756 -0.0800794 
3803 2 24.502 2.73741 11.1603 -26.5029 1.50228 0.136438 -2.4487 
3804 2 24.9773 2.98537 16.7143 -24.904 -0.766907 1.39443 -0.259918 
10803 1 23.4447 6.65609 14.8238 -7.21389 0.907793 0.256217 2.94958 
4844 1 25.8688 4.08814 12.6935 -6.12434 0.350097 -4.289 -0.327508 
5762 1 23.285 3.74348 9.50777 -7.76556 -1.20826 3.72652 1.65643 
6803 1 26.319 6.67568 15.0345 -7.55342 -2.21657 -0.996718 4.66626 
10804 1 20.8494 1.61527 18.04 -8.09672 0.28305 -1.74242 -0.661551 
9044 1 26.7643 6.83014 17.6866 -8.71467 -0.988848 0.462762 -0.541861 
5642 1 20.7472 6.70699 15.693 -6.91559 -0.527016 0.544823 -0.329628 
6844 1 26.4003 4.32562 18.0211 -8.19299 1.52258 -3.41133 0.715047 
1283 2 5.43302 13.5601 13.7392 -25.0201 4.02965 3.36297 -0.370646 
5842 1 1.40219 11.9569 9.64072 -7.59799 -1.62237 -0.403523 1.60337 
3084 3 3.05586 13.4044 16.4398 -28.4784 -0.115843 -0.768018 4.18033 
8883 1 2.11191 6.84574 18.0689 -8.20788 1.81688 0.717141 -2.92521 
5883 1 0.724172 12.3456 17.6448 -6.7885 0.0646741 2.03978 -0.0926 
11121 1 6.47484 7.4131 9.97838 -7.54954 -1.07904 -1.24889 -0.480491 
84 3 0.383041 10.7902 16.6626 -28.568 0.366377 -1.7875 0.128936 
11084 1 4.0783 6.90688 12.508 -8.18792 -0.593049 0.376929 -4.62229 
10163 1 4.28942 6.99904 15.0875 -4.92317 -0.451051 -0.62522 2.16069 
5241 1 4.08749 12.3941 9.76156 -7.12991 0.873106 0.349364 -0.308888 
10123 1 1.89821 8.87321 9.50773 -6.72066 1.52466 2.82984 -0.994376 
6241 1 6.7806 9.6187 12.0079 -8.21318 3.5653 -3.48945 1.40445 
8241 1 1.52567 9.43867 12.4136 -6.73632 -0.275221 -2.77474 -0.137528 
10083 1 1.05139 11.8655 12.6718 -7.82749 -0.00106363 3.01131 1.46338 
5083 1 4.26967 9.83086 12.2895 -7.52928 -0.584151 -0.873648 -0.668033 
4043 1 1.98733 12.7275 15.0264 -7.7885 -2.1212 -1.33117 -1.54411 
283 2 5.66121 10.7992 10.6875 -25.2194 -1.11957 2.02493 0.230475 
284 3 5.3987 10.7422 16.6315 -29.8152 0.272856 0.424306 0.0204067 
1243 3 5.804 8.21036 13.2672 -28.3669 -4.262 -1.16588 2.56332 
2083 2 3.15193 11.1332 13.7589 -25.4254 -1.65535 -2.54493 -0.461705 
3043 3 2.57182 7.86977 11.1359 -28.162 0.517297 1.89252 0.599848 
3044 3 3.01833 8.00548 16.441 -28.7573 2.3714 0.370267 -1.93014 
8243 1 4.01286 12.7511 12.4191 -7.31985 -1.86438 -3.30327 -0.908556 
4244 1 1.78725 9.79075 15.3508 -7.53918 0.725008 -0.090435 -0.399065 
6243 1 6.50194 11.5977 13.7565 -6.33448 1.87734 -0.173221 -1.55988 
10642 1 4.77155 9.48346 15.1584 -6.61072 -1.49781 2.14505 -0.207663 
9244 1 4.53986 12.272 15.0982 -7.77884 -2.21158 -0.512198 2.96329 
8083 1 3.42349 11.7697 17.4825 -7.13657 0.130803 -0.606678 0.125189 
1043 2 0.0560389 7.76152 13.7139 -24.3404 2.54045 2.97786 -1.33973 
8043 1 1.61616 9.68339 17.9885 -7.98518 0.371305 -2.24187 0.319685 
5243 1 4.30674 9.08887 17.9119 -8.06562 -1.5814 -0.109286 0.241201 
5323 1 9.92627 11.8538 17.9765 -7.83282 1.28712 3.22312 0.00479061 
8522 1 9.86634 9.52952 17.7205 -7.39046 -0.322866 -3.92059 -0.0544935 
6443 1 9.75218 9.35641 15.0697 -8.07384 -0.363962 2.2848 -0.560319 
9285 1 6.90564 9.271 17.4718 -7.44419 1.28484 0.424235 -0.13053 
3284 3 8.26734 13.3606 16.528 -28.3198 -0.713407 0.0165541 1.41859 
4484 1 9.55755 12.4218 15.1959 -8.38328 3.76149 -3.23596 -0.554591 
11443 1 11.6133 7.01675 11.7765 -7.97677 0.51951 2.00134 1.72078 
7682 1 7.01017 12.4665 10.878 -6.72805 -1.73601 -0.619526 -0.416244 
5044 1 6.99998 7.976 14.6569 -6.9483 4.22244 0.230913 0.0170253 
9444 1 11.8513 11.8738 13.3563 -9.04439 -0.328679 -0.30466 0.193763 
7282 1 12.5531 9.2799 15.2651 -8.92047 -1.29794 1.70834 0.461298 
6203 1 7.22198 11.7014 16.2362 -6.77652 1.15043 -1.34837 1.48166 
11202 1 10.2195 7.40162 9.44189 -7.20799 -3.13658 -1.11192 1.00284 
6483 1 12.7786 11.5461 16.9347 -8.31926 2.09158 -0.0313292 -1.587 
10242 1 10.4518 12.7222 9.89677 -6.77441 -0.0668048 -0.278139 1.34744 
8042 1 9.56832 9.33424 12.4382 -8.67004 0.932309 -0.546993 -1.54014 
483 2 11.1583 11.0082 11.0846 -24.1611 -1.53876 -1.12049 -0.955445 
484 2 10.9775 10.7324 16.3338 -22.8465 -2.34133 -0.788441 -0.900485 
1443 3 11.4034 8.17486 13.6196 -27.3853 -0.136146 -0.870797 1.33292 
2283 3 8.35017 10.6375 13.6975 -27.4418 -1.35628 1.16896 -0.121365 
3243 2 8.4015 8.23214 10.6378 -23.9688 0.526718 1.3704 -0.400803 
3244 2 8.63927 7.68161 16.7512 -25.077 -0.0748322 2.19459 -0.497824 
7881 1 12.7373 9.62239 12.4849 -8.37548 -1.39957 -1.88641 -0.183134 
2483 3 13.6652 10.9275 14.0692 -27.1117 2.22422 -0.193797 -1.69922 
5441 1 13.3003 11.4418 10.6367 -7.56451 -2.66723 -0.063095 -1.37129 
5602 1 12.2081 9.37945 9.33481 -8.30627 2.70337 -0.269804 0.443674 
5482 1 9.17888 12.0964 12.2782 -7.59491 2.35173 -0.978624 1.88992 
1483 3 10.7621 13.4139 13.8164 -27.0253 -1.80282 4.00064 0.125302 
3484 2 13.9834 13.6398 16.8275 -23.5581 1.9545 -0.724043 0.566728 
3683 3 19.2546 13.5321 10.9233 -28.0229 -2.82569 -2.88621 -0.236493 
6482 1 18.1449 9.56282 10.0871 -6.07074 -3.6421 0.175292 -0.220292 
1683 2 16.8759 13.1938 13.4313 -24.4725 -3.67855 0.138771 0.935218 
9645 1 18.8234 11.8022 17.8744 -7.39911 -1.68791 0.787113 -1.62029 
8683 1 15.4701 9.56826 17.6055 -8.92415 0.765533 1.71649 1.13101 