# LAMMPS data file written by OVITO Basic 3.8.4

4 atoms
2 atom types

0.0 3.504672 xlo xhi
0.0 3.504672 ylo yhi
0.0 3.504672 zlo zhi

Masses

1 58.6934  # Ni
2 28.0855  # Si

Atoms  # atomic

1 2 0.0 0.0 0.0
2 1 0.0 1.752336 1.752336
3 1 1.752336 1.752336 0.0
4 1 1.752336 0.0 1.752336
