LAMMPS (22 Dec 2022)
  using 1 OpenMP thread(s) per MPI task
Loaded 1 plugins from C:\Program Files\LAMMPS 64-bit 23Jun2022\plugins
Loaded 0 plugins from C:\Program Files\LAMMPS 64-bit 23Jun2022-MPI\plugins
Loaded 1 plugins from C:\Program Files\LAMMPS 64-bit 22Dec2022-MSMPI\plugins
Loaded 1 plugins from C:\Program Files\LAMMPS 64-bit 28Mar2023-MPI\plugins
#------------------------------------------------------------------------------------------
# LAMMPS 64-bit 22Dec2022-MSMPI
#------------------------------------------------------------------------------------------
clear
  using 1 OpenMP thread(s) per MPI task
Loaded 1 plugins from C:\Program Files\LAMMPS 64-bit 23Jun2022\plugins
Loaded 0 plugins from C:\Program Files\LAMMPS 64-bit 23Jun2022-MPI\plugins
Loaded 1 plugins from C:\Program Files\LAMMPS 64-bit 22Dec2022-MSMPI\plugins
Loaded 1 plugins from C:\Program Files\LAMMPS 64-bit 28Mar2023-MPI\plugins
#echo both
# ---------- Initializing Simulation ---------------------------------
units metal
dimension 3
boundary p p p
atom_style atomic
atom_modify map array

read_data ./../../NiRe.data
Reading data file ...
  orthogonal box = (0 0 0) to (2.95 2.95 2.95)
  2 by 2 by 2 MPI processor grid
  reading atoms ...
  2 atoms
  read_data CPU = 0.001 seconds
#read_data ./../../Ni3Re.data
#read_data ./../../NiRe3.data

replicate 1 1 1
Replication is creating a 1x1x1 = 1 times larger system...
  orthogonal box = (0 0 0) to (2.95 2.95 2.95)
  2 by 2 by 2 MPI processor grid
  2 atoms
  replicate CPU = 0.000 seconds

# ---------- Defining the Interatomic Potential ---------------------
pair_style meam
pair_coeff * * ./../../library.meam Ni Re ./../../NiRe.meam Ni Re

# ---------- Running Minimization -------------------------------------
fix 1 all box/relax iso 0.0 vmax 0.001

thermo 10
thermo_style custom step pe etotal lx ly lz vol press pxx pyy pzz

min_style cg
minimize 1e-25 1e-25 5000 10000
Neighbor list info ...
  update: every = 1 steps, delay = 0 steps, check = yes
  max neighbors/atom: 2000, page size: 100000
  master list distance cutoff = 7.5
  ghost atom cutoff = 7.5
  binsize = 3.75, bins = 1 1 1
  2 neighbor lists, perpetual/occasional/extra = 2 0 0
  (1) pair meam, perpetual
      attributes: full, newton on
      pair build: full/bin/atomonly
      stencil: full/bin/3d
      bin: standard
  (2) pair meam, perpetual, half/full from (1)
      attributes: half, newton on
      pair build: halffull/newton
      stencil: none
      bin: none
WARNING: Proc sub-domain size < neighbor skin, could lead to lost atoms (src/domain.cpp:966)
Per MPI rank memory allocation (min/avg/max) = 9.712 | 9.712 | 9.712 Mbytes
   Step         PotEng         TotEng           Lx             Ly             Lz           Volume         Press           Pxx            Pyy            Pzz      
         0  -12.323202     -12.323202      2.95           2.95           2.95           25.672375     -398.4799      -398.4799      -398.4799      -398.4799     
         4  -12.323203     -12.323203      2.9498659      2.9498659      2.9498659      25.668874      4.9662773e-11  4.504298e-11   2.0789068e-11  8.3156271e-11
Loop time of 0.003077 on 8 procs for 4 steps with 2 atoms

0.0% CPU use with 8 MPI tasks x 1 OpenMP threads

Minimization stats:
  Stopping criterion = quadratic factors are zero
  Energy initial, next-to-last, final = 
     -12.3232022519079   -12.323202687274   -12.323202687274
  Force two-norm initial, final = 0.019155053 2.7854519e-15
  Force max component initial, final = 0.019155053 2.387088e-15
  Final line search alpha, max atom move = 1 2.387088e-15
  Iterations, force evaluations = 4 8

MPI task timing breakdown:
Section |  min time  |  avg time  |  max time  |%varavg| %total
---------------------------------------------------------------
Pair    | 0.001798   | 0.0020171  | 0.002269   |   0.4 | 65.55
Neigh   | 0          | 0          | 0          |   0.0 |  0.00
Comm    | 0.000246   | 0.00042538 | 0.000778   |   0.0 | 13.82
Output  | 0          | 0          | 0          |   0.0 |  0.00
Modify  | 0          | 0          | 0          |   0.0 |  0.00
Other   |            | 0.0006345  |            |       | 20.62

Nlocal:           0.25 ave           1 max           0 min
Histogram: 6 0 0 0 0 0 0 0 0 2
Nghost:         431.75 ave         432 max         431 min
Histogram: 2 0 0 0 0 0 0 0 0 6
Neighs:             17 ave          68 max           0 min
Histogram: 6 0 0 0 0 0 0 0 0 2
FullNghs:           34 ave         136 max           0 min
Histogram: 6 0 0 0 0 0 0 0 0 2

Total # of neighbors = 272
Ave neighs/atom = 136
Neighbor list builds = 0
Dangerous builds = 0

variable  natoms equal "count(all)"
variable      x0 equal "lx"
variable      y0 equal "ly"
variable      z0 equal "lz"
variable      v0 equal "vol"
variable   etot0 equal "etotal"
variable   ecoh0 equal "pe/v_natoms"

unfix 1
write_data ./../step2_elastic/data.in
System init for write_data ...
WARNING: Proc sub-domain size < neighbor skin, could lead to lost atoms (src/domain.cpp:966)

# ---------- For Equation of States -------------------------------------
change_box all x scale 0.94 y scale 0.94 z scale 0.94 remap
Changing box ...
  orthogonal box = (0.088563021 6.7043218e-05 6.7043218e-05) to (2.861437 2.949933 2.949933)
  orthogonal box = (0.088563021 0.088563021 6.7043218e-05) to (2.861437 2.861437 2.949933)
  orthogonal box = (0.088563021 0.088563021 0.088563021) to (2.861437 2.861437 2.861437)
run 1
WARNING: No fixes with time integration, atoms won't move (src/verlet.cpp:60)
WARNING: Proc sub-domain size < neighbor skin, could lead to lost atoms (src/domain.cpp:966)
Per MPI rank memory allocation (min/avg/max) = 8.587 | 8.587 | 8.587 Mbytes
   Step         PotEng         TotEng           Lx             Ly             Lz           Volume         Press           Pxx            Pyy            Pzz      
         4  -11.361293     -11.361293      2.772874       2.772874       2.772874       21.320156      845826.09      845826.09      845826.09      845826.09    
         5  -11.361293     -11.361293      2.772874       2.772874       2.772874       21.320156      845826.09      845826.09      845826.09      845826.09    
Loop time of 0.00028325 on 8 procs for 1 steps with 2 atoms

Performance: 305.031 ns/day, 0.079 hours/ns, 3530.450 timesteps/s, 7.061 katom-step/s
0.0% CPU use with 8 MPI tasks x 1 OpenMP threads

MPI task timing breakdown:
Section |  min time  |  avg time  |  max time  |%varavg| %total
---------------------------------------------------------------
Pair    | 0.000178   | 0.00019125 | 0.000225   |   0.0 | 67.52
Neigh   | 0          | 0          | 0          |   0.0 |  0.00
Comm    | 2.8e-05    | 5.3875e-05 | 7.8e-05    |   0.0 | 19.02
Output  | 1.6e-05    | 2.9875e-05 | 6.7e-05    |   0.0 | 10.55
Modify  | 0          | 2.5e-07    | 1e-06      |   0.0 |  0.09
Other   |            | 8e-06      |            |       |  2.82

Nlocal:           0.25 ave           1 max           0 min
Histogram: 6 0 0 0 0 0 0 0 0 2
Nghost:         431.75 ave         432 max         431 min
Histogram: 2 0 0 0 0 0 0 0 0 6
Neighs:             21 ave          84 max           0 min
Histogram: 6 0 0 0 0 0 0 0 0 2
FullNghs:           42 ave         168 max           0 min
Histogram: 6 0 0 0 0 0 0 0 0 2

Total # of neighbors = 336
Ave neighs/atom = 168
Neighbor list builds = 0
Dangerous builds = 0
print "# Lattice constant (Angstroms), Volume (Angstrom), Total energy (eV), Cohesive energy (eV/atom)" file lattice_cohesive_energy.txt screen no


# Loop over lattice constants
variable i loop 49 # Number of steps
label loop

change_box all x scale 1.0025 y scale 1.0025 z scale 1.0025 remap
Changing box ...
  orthogonal box = (0.085096928 0.088563021 0.088563021) to (2.8649031 2.861437 2.861437)
  orthogonal box = (0.085096928 0.085096928 0.088563021) to (2.8649031 2.8649031 2.861437)
  orthogonal box = (0.085096928 0.085096928 0.085096928) to (2.8649031 2.8649031 2.8649031)

run 1
WARNING: No fixes with time integration, atoms won't move (src/verlet.cpp:60)
WARNING: Proc sub-domain size < neighbor skin, could lead to lost atoms (src/domain.cpp:966)
Per MPI rank memory allocation (min/avg/max) = 8.587 | 8.587 | 8.587 Mbytes
   Step         PotEng         TotEng           Lx             Ly             Lz           Volume         Press           Pxx            Pyy            Pzz      
         5  -11.443493     -11.443493      2.7798061      2.7798061      2.7798061      21.480458      797610.65      797610.65      797610.65      797610.65    
         6  -11.443493     -11.443493      2.7798061      2.7798061      2.7798061      21.480458      797610.65      797610.65      797610.65      797610.65    
Loop time of 0.000286 on 8 procs for 1 steps with 2 atoms

Performance: 302.098 ns/day, 0.079 hours/ns, 3496.503 timesteps/s, 6.993 katom-step/s
0.0% CPU use with 8 MPI tasks x 1 OpenMP threads

MPI task timing breakdown:
Section |  min time  |  avg time  |  max time  |%varavg| %total
---------------------------------------------------------------
Pair    | 0.000179   | 0.000204   | 0.000231   |   0.0 | 71.33
Neigh   | 0          | 0          | 0          |   0.0 |  0.00
Comm    | 3.1e-05    | 5.6125e-05 | 8.2e-05    |   0.0 | 19.62
Output  | 1.5e-05    | 1.775e-05  | 2e-05      |   0.0 |  6.21
Modify  | 0          | 2.5e-07    | 1e-06      |   0.0 |  0.09
Other   |            | 7.875e-06  |            |       |  2.75

Nlocal:           0.25 ave           1 max           0 min
Histogram: 6 0 0 0 0 0 0 0 0 2
Nghost:         431.75 ave         432 max         431 min
Histogram: 2 0 0 0 0 0 0 0 0 6
Neighs:             21 ave          84 max           0 min
Histogram: 6 0 0 0 0 0 0 0 0 2
FullNghs:           42 ave         168 max           0 min
Histogram: 6 0 0 0 0 0 0 0 0 2

Total # of neighbors = 336
Ave neighs/atom = 168
Neighbor list builds = 0
Dangerous builds = 0
variable  natoms equal "count(all)"
variable xlength equal "lx"
variable  volume equal "vol"
variable  etotal equal "etotal"
variable    ecoh equal "pe/v_natoms"
print "${xlength}, ${volume}, ${etotal}, ${ecoh}" append lattice_cohesive_energy.txt screen no

next i
jump SELF loop

change_box all x scale 1.0025 y scale 1.0025 z scale 1.0025 remap
Changing box ...
  orthogonal box = (0.08162217 0.085096928 0.085096928) to (2.8683778 2.8649031 2.8649031)
  orthogonal box = (0.08162217 0.08162217 0.085096928) to (2.8683778 2.8683778 2.8649031)
  orthogonal box = (0.08162217 0.08162217 0.08162217) to (2.8683778 2.8683778 2.8683778)

run 1
WARNING: No fixes with time integration, atoms won't move (src/verlet.cpp:60)
WARNING: Proc sub-domain size < neighbor skin, could lead to lost atoms (src/domain.cpp:966)
Per MPI rank memory allocation (min/avg/max) = 8.587 | 8.587 | 8.587 Mbytes
   Step         PotEng         TotEng           Lx             Ly             Lz           Volume         Press           Pxx            Pyy            Pzz      
         6  -11.521521     -11.521521      2.7867557      2.7867557      2.7867557      21.641964      750788.32      750788.32      750788.32      750788.32    
         7  -11.521521     -11.521521      2.7867557      2.7867557      2.7867557      21.641964      750788.32      750788.32      750788.32      750788.32    
Loop time of 0.000286375 on 8 procs for 1 steps with 2 atoms

Performance: 301.702 ns/day, 0.080 hours/ns, 3491.925 timesteps/s, 6.984 katom-step/s
0.0% CPU use with 8 MPI tasks x 1 OpenMP threads

MPI task timing breakdown:
Section |  min time  |  avg time  |  max time  |%varavg| %total
---------------------------------------------------------------
Pair    | 0.000177   | 0.00020187 | 0.000229   |   0.0 | 70.49
Neigh   | 0          | 0          | 0          |   0.0 |  0.00
Comm    | 3.2e-05    | 5.6875e-05 | 8.1e-05    |   0.0 | 19.86
Output  | 1.5e-05    | 1.975e-05  | 2.5e-05    |   0.0 |  6.90
Modify  | 0          | 2.5e-07    | 1e-06      |   0.0 |  0.09
Other   |            | 7.625e-06  |            |       |  2.66

Nlocal:           0.25 ave           1 max           0 min
Histogram: 6 0 0 0 0 0 0 0 0 2
Nghost:         431.75 ave         432 max         431 min
Histogram: 2 0 0 0 0 0 0 0 0 6
Neighs:             21 ave          84 max           0 min
Histogram: 6 0 0 0 0 0 0 0 0 2
FullNghs:           42 ave         168 max           0 min
Histogram: 6 0 0 0 0 0 0 0 0 2

Total # of neighbors = 336
Ave neighs/atom = 168
Neighbor list builds = 0
Dangerous builds = 0
variable  natoms equal "count(all)"
variable xlength equal "lx"
variable  volume equal "vol"
variable  etotal equal "etotal"
variable    ecoh equal "pe/v_natoms"
print "${xlength}, ${volume}, ${etotal}, ${ecoh}" append lattice_cohesive_energy.txt screen no

next i
jump SELF loop

change_box all x scale 1.0025 y scale 1.0025 z scale 1.0025 remap
Changing box ...
  orthogonal box = (0.078138726 0.08162217 0.08162217) to (2.8718613 2.8683778 2.8683778)
  orthogonal box = (0.078138726 0.078138726 0.08162217) to (2.8718613 2.8718613 2.8683778)
  orthogonal box = (0.078138726 0.078138726 0.078138726) to (2.8718613 2.8718613 2.8718613)

run 1
WARNING: No fixes with time integration, atoms won't move (src/verlet.cpp:60)
WARNING: Proc sub-domain size < neighbor skin, could lead to lost atoms (src/domain.cpp:966)
Per MPI rank memory allocation (min/avg/max) = 8.587 | 8.587 | 8.587 Mbytes
   Step         PotEng         TotEng           Lx             Ly             Lz           Volume         Press           Pxx            Pyy            Pzz      
         7  -11.59545      -11.59545       2.7937225      2.7937225      2.7937225      21.804685      705328.95      705328.95      705328.95      705328.95    
         8  -11.59545      -11.59545       2.7937225      2.7937225      2.7937225      21.804685      705328.95      705328.95      705328.95      705328.95    
Loop time of 0.00028275 on 8 procs for 1 steps with 2 atoms

Performance: 305.570 ns/day, 0.079 hours/ns, 3536.693 timesteps/s, 7.073 katom-step/s
0.0% CPU use with 8 MPI tasks x 1 OpenMP threads

MPI task timing breakdown:
Section |  min time  |  avg time  |  max time  |%varavg| %total
---------------------------------------------------------------
Pair    | 0.000177   | 0.00020275 | 0.000228   |   0.0 | 71.71
Neigh   | 0          | 0          | 0          |   0.0 |  0.00
Comm    | 3e-05      | 5.475e-05  | 8.3e-05    |   0.0 | 19.36
Output  | 1.4e-05    | 1.75e-05   | 2.1e-05    |   0.0 |  6.19
Modify  | 0          | 1.25e-07   | 1e-06      |   0.0 |  0.04
Other   |            | 7.625e-06  |            |       |  2.70

Nlocal:           0.25 ave           1 max           0 min
Histogram: 6 0 0 0 0 0 0 0 0 2
Nghost:         431.75 ave         432 max         431 min
Histogram: 2 0 0 0 0 0 0 0 0 6
Neighs:             21 ave          84 max           0 min
Histogram: 6 0 0 0 0 0 0 0 0 2
FullNghs:           42 ave         168 max           0 min
Histogram: 6 0 0 0 0 0 0 0 0 2

Total # of neighbors = 336
Ave neighs/atom = 168
Neighbor list builds = 0
Dangerous builds = 0
variable  natoms equal "count(all)"
variable xlength equal "lx"
variable  volume equal "vol"
variable  etotal equal "etotal"
variable    ecoh equal "pe/v_natoms"
print "${xlength}, ${volume}, ${etotal}, ${ecoh}" append lattice_cohesive_energy.txt screen no

next i
jump SELF loop

change_box all x scale 1.0025 y scale 1.0025 z scale 1.0025 remap
Changing box ...
  orthogonal box = (0.074646573 0.078138726 0.078138726) to (2.8753534 2.8718613 2.8718613)
  orthogonal box = (0.074646573 0.074646573 0.078138726) to (2.8753534 2.8753534 2.8718613)
  orthogonal box = (0.074646573 0.074646573 0.074646573) to (2.8753534 2.8753534 2.8753534)

run 1
WARNING: No fixes with time integration, atoms won't move (src/verlet.cpp:60)
WARNING: Proc sub-domain size < neighbor skin, could lead to lost atoms (src/domain.cpp:966)
Per MPI rank memory allocation (min/avg/max) = 8.587 | 8.587 | 8.587 Mbytes
   Step         PotEng         TotEng           Lx             Ly             Lz           Volume         Press           Pxx            Pyy            Pzz      
         8  -11.665352     -11.665352      2.8007069      2.8007069      2.8007069      21.968629      661202.89      661202.89      661202.89      661202.89    
         9  -11.665352     -11.665352      2.8007069      2.8007069      2.8007069      21.968629      661202.89      661202.89      661202.89      661202.89    
Loop time of 0.000301125 on 8 procs for 1 steps with 2 atoms

Performance: 286.924 ns/day, 0.084 hours/ns, 3320.880 timesteps/s, 6.642 katom-step/s
0.0% CPU use with 8 MPI tasks x 1 OpenMP threads

MPI task timing breakdown:
Section |  min time  |  avg time  |  max time  |%varavg| %total
---------------------------------------------------------------
Pair    | 0.000192   | 0.00021613 | 0.000243   |   0.0 | 71.77
Neigh   | 0          | 0          | 0          |   0.0 |  0.00
Comm    | 3.1e-05    | 5.725e-05  | 8.3e-05    |   0.0 | 19.01
Output  | 1.5e-05    | 2e-05      | 2.5e-05    |   0.0 |  6.64
Modify  | 0          | 3.75e-07   | 1e-06      |   0.0 |  0.12
Other   |            | 7.375e-06  |            |       |  2.45

Nlocal:           0.25 ave           1 max           0 min
Histogram: 6 0 0 0 0 0 0 0 0 2
Nghost:         431.75 ave         432 max         431 min
Histogram: 2 0 0 0 0 0 0 0 0 6
Neighs:             21 ave          84 max           0 min
Histogram: 6 0 0 0 0 0 0 0 0 2
FullNghs:           42 ave         168 max           0 min
Histogram: 6 0 0 0 0 0 0 0 0 2

Total # of neighbors = 336
Ave neighs/atom = 168
Neighbor list builds = 0
Dangerous builds = 0
variable  natoms equal "count(all)"
variable xlength equal "lx"
variable  volume equal "vol"
variable  etotal equal "etotal"
variable    ecoh equal "pe/v_natoms"
print "${xlength}, ${volume}, ${etotal}, ${ecoh}" append lattice_cohesive_energy.txt screen no

next i
jump SELF loop

change_box all x scale 1.0025 y scale 1.0025 z scale 1.0025 remap
Changing box ...
  orthogonal box = (0.071145689 0.074646573 0.074646573) to (2.8788543 2.8753534 2.8753534)
  orthogonal box = (0.071145689 0.071145689 0.074646573) to (2.8788543 2.8788543 2.8753534)
  orthogonal box = (0.071145689 0.071145689 0.071145689) to (2.8788543 2.8788543 2.8788543)

run 1
WARNING: No fixes with time integration, atoms won't move (src/verlet.cpp:60)
WARNING: Proc sub-domain size < neighbor skin, could lead to lost atoms (src/domain.cpp:966)
Per MPI rank memory allocation (min/avg/max) = 8.587 | 8.587 | 8.587 Mbytes
   Step         PotEng         TotEng           Lx             Ly             Lz           Volume         Press           Pxx            Pyy            Pzz      
         9  -11.731298     -11.731298      2.8077086      2.8077086      2.8077086      22.133806      618381.04      618381.04      618381.04      618381.04    
        10  -11.731298     -11.731298      2.8077086      2.8077086      2.8077086      22.133806      618381.04      618381.04      618381.04      618381.04    
Loop time of 0.000283 on 8 procs for 1 steps with 2 atoms

Performance: 305.300 ns/day, 0.079 hours/ns, 3533.569 timesteps/s, 7.067 katom-step/s
0.0% CPU use with 8 MPI tasks x 1 OpenMP threads

MPI task timing breakdown:
Section |  min time  |  avg time  |  max time  |%varavg| %total
---------------------------------------------------------------
Pair    | 0.000176   | 0.00020075 | 0.000227   |   0.0 | 70.94
Neigh   | 0          | 0          | 0          |   0.0 |  0.00
Comm    | 3.2e-05    | 5.65e-05   | 8.3e-05    |   0.0 | 19.96
Output  | 1.5e-05    | 1.8125e-05 | 2.2e-05    |   0.0 |  6.40
Modify  | 0          | 1.25e-07   | 1e-06      |   0.0 |  0.04
Other   |            | 7.5e-06    |            |       |  2.65

Nlocal:           0.25 ave           1 max           0 min
Histogram: 6 0 0 0 0 0 0 0 0 2
Nghost:         431.75 ave         432 max         431 min
Histogram: 2 0 0 0 0 0 0 0 0 6
Neighs:             21 ave          84 max           0 min
Histogram: 6 0 0 0 0 0 0 0 0 2
FullNghs:           42 ave         168 max           0 min
Histogram: 6 0 0 0 0 0 0 0 0 2

Total # of neighbors = 336
Ave neighs/atom = 168
Neighbor list builds = 0
Dangerous builds = 0
variable  natoms equal "count(all)"
variable xlength equal "lx"
variable  volume equal "vol"
variable  etotal equal "etotal"
variable    ecoh equal "pe/v_natoms"
print "${xlength}, ${volume}, ${etotal}, ${ecoh}" append lattice_cohesive_energy.txt screen no

next i
jump SELF loop

change_box all x scale 1.0025 y scale 1.0025 z scale 1.0025 remap
Changing box ...
  orthogonal box = (0.067636053 0.071145689 0.071145689) to (2.8823639 2.8788543 2.8788543)
  orthogonal box = (0.067636053 0.067636053 0.071145689) to (2.8823639 2.8823639 2.8788543)
  orthogonal box = (0.067636053 0.067636053 0.067636053) to (2.8823639 2.8823639 2.8823639)

run 1
WARNING: No fixes with time integration, atoms won't move (src/verlet.cpp:60)
WARNING: Proc sub-domain size < neighbor skin, could lead to lost atoms (src/domain.cpp:966)
Per MPI rank memory allocation (min/avg/max) = 8.587 | 8.587 | 8.587 Mbytes
   Step         PotEng         TotEng           Lx             Ly             Lz           Volume         Press           Pxx            Pyy            Pzz      
        10  -11.793358     -11.793358      2.8147279      2.8147279      2.8147279      22.300225      576834.74      576834.74      576834.74      576834.74    
        11  -11.793358     -11.793358      2.8147279      2.8147279      2.8147279      22.300225      576834.74      576834.74      576834.74      576834.74    
Loop time of 0.000285 on 8 procs for 1 steps with 2 atoms

Performance: 303.158 ns/day, 0.079 hours/ns, 3508.772 timesteps/s, 7.018 katom-step/s
0.0% CPU use with 8 MPI tasks x 1 OpenMP threads

MPI task timing breakdown:
Section |  min time  |  avg time  |  max time  |%varavg| %total
---------------------------------------------------------------
Pair    | 0.000178   | 0.000204   | 0.000231   |   0.0 | 71.58
Neigh   | 0          | 0          | 0          |   0.0 |  0.00
Comm    | 3.1e-05    | 5.575e-05  | 8.2e-05    |   0.0 | 19.56
Output  | 1.5e-05    | 1.7875e-05 | 2.2e-05    |   0.0 |  6.27
Modify  | 0          | 0          | 0          |   0.0 |  0.00
Other   |            | 7.375e-06  |            |       |  2.59

Nlocal:           0.25 ave           1 max           0 min
Histogram: 6 0 0 0 0 0 0 0 0 2
Nghost:         431.75 ave         432 max         431 min
Histogram: 2 0 0 0 0 0 0 0 0 6
Neighs:             21 ave          84 max           0 min
Histogram: 6 0 0 0 0 0 0 0 0 2
FullNghs:           42 ave         168 max           0 min
Histogram: 6 0 0 0 0 0 0 0 0 2

Total # of neighbors = 336
Ave neighs/atom = 168
Neighbor list builds = 0
Dangerous builds = 0
variable  natoms equal "count(all)"
variable xlength equal "lx"
variable  volume equal "vol"
variable  etotal equal "etotal"
variable    ecoh equal "pe/v_natoms"
print "${xlength}, ${volume}, ${etotal}, ${ecoh}" append lattice_cohesive_energy.txt screen no

next i
jump SELF loop

change_box all x scale 1.0025 y scale 1.0025 z scale 1.0025 remap
Changing box ...
  orthogonal box = (0.064117644 0.067636053 0.067636053) to (2.8858824 2.8823639 2.8823639)
  orthogonal box = (0.064117644 0.064117644 0.067636053) to (2.8858824 2.8858824 2.8823639)
  orthogonal box = (0.064117644 0.064117644 0.064117644) to (2.8858824 2.8858824 2.8858824)

run 1
WARNING: No fixes with time integration, atoms won't move (src/verlet.cpp:60)
WARNING: Proc sub-domain size < neighbor skin, could lead to lost atoms (src/domain.cpp:966)
Per MPI rank memory allocation (min/avg/max) = 8.587 | 8.587 | 8.587 Mbytes
   Step         PotEng         TotEng           Lx             Ly             Lz           Volume         Press           Pxx            Pyy            Pzz      
        11  -11.851602     -11.851602      2.8217647      2.8217647      2.8217647      22.467895      536535.9       536535.9       536535.9       536535.9     
        12  -11.851602     -11.851602      2.8217647      2.8217647      2.8217647      22.467895      536535.9       536535.9       536535.9       536535.9     
Loop time of 0.0003005 on 8 procs for 1 steps with 2 atoms

Performance: 287.521 ns/day, 0.083 hours/ns, 3327.787 timesteps/s, 6.656 katom-step/s
0.0% CPU use with 8 MPI tasks x 1 OpenMP threads

MPI task timing breakdown:
Section |  min time  |  avg time  |  max time  |%varavg| %total
---------------------------------------------------------------
Pair    | 0.000191   | 0.000215   | 0.000243   |   0.0 | 71.55
Neigh   | 0          | 0          | 0          |   0.0 |  0.00
Comm    | 3.3e-05    | 5.8375e-05 | 8.5e-05    |   0.0 | 19.43
Output  | 1.5e-05    | 1.875e-05  | 2.4e-05    |   0.0 |  6.24
Modify  | 0          | 2.5e-07    | 2e-06      |   0.0 |  0.08
Other   |            | 8.125e-06  |            |       |  2.70

Nlocal:           0.25 ave           1 max           0 min
Histogram: 6 0 0 0 0 0 0 0 0 2
Nghost:         431.75 ave         432 max         431 min
Histogram: 2 0 0 0 0 0 0 0 0 6
Neighs:             21 ave          84 max           0 min
Histogram: 6 0 0 0 0 0 0 0 0 2
FullNghs:           42 ave         168 max           0 min
Histogram: 6 0 0 0 0 0 0 0 0 2

Total # of neighbors = 336
Ave neighs/atom = 168
Neighbor list builds = 0
Dangerous builds = 0
variable  natoms equal "count(all)"
variable xlength equal "lx"
variable  volume equal "vol"
variable  etotal equal "etotal"
variable    ecoh equal "pe/v_natoms"
print "${xlength}, ${volume}, ${etotal}, ${ecoh}" append lattice_cohesive_energy.txt screen no

next i
jump SELF loop

change_box all x scale 1.0025 y scale 1.0025 z scale 1.0025 remap
Changing box ...
  orthogonal box = (0.060590438 0.064117644 0.064117644) to (2.8894096 2.8858824 2.8858824)
  orthogonal box = (0.060590438 0.060590438 0.064117644) to (2.8894096 2.8894096 2.8858824)
  orthogonal box = (0.060590438 0.060590438 0.060590438) to (2.8894096 2.8894096 2.8894096)

run 1
WARNING: No fixes with time integration, atoms won't move (src/verlet.cpp:60)
WARNING: Proc sub-domain size < neighbor skin, could lead to lost atoms (src/domain.cpp:966)
Per MPI rank memory allocation (min/avg/max) = 8.587 | 8.587 | 8.587 Mbytes
   Step         PotEng         TotEng           Lx             Ly             Lz           Volume         Press           Pxx            Pyy            Pzz      
        12  -11.906101     -11.906101      2.8288191      2.8288191      2.8288191      22.636826      497456.87      497456.87      497456.87      497456.87    
        13  -11.906101     -11.906101      2.8288191      2.8288191      2.8288191      22.636826      497456.87      497456.87      497456.87      497456.87    
Loop time of 0.000283 on 8 procs for 1 steps with 2 atoms

Performance: 305.300 ns/day, 0.079 hours/ns, 3533.569 timesteps/s, 7.067 katom-step/s
0.0% CPU use with 8 MPI tasks x 1 OpenMP threads

MPI task timing breakdown:
Section |  min time  |  avg time  |  max time  |%varavg| %total
---------------------------------------------------------------
Pair    | 0.000176   | 0.00020162 | 0.000229   |   0.0 | 71.25
Neigh   | 0          | 0          | 0          |   0.0 |  0.00
Comm    | 3.2e-05    | 5.65e-05   | 8.2e-05    |   0.0 | 19.96
Output  | 1.4e-05    | 1.75e-05   | 2e-05      |   0.0 |  6.18
Modify  | 0          | 1.25e-07   | 1e-06      |   0.0 |  0.04
Other   |            | 7.25e-06   |            |       |  2.56

Nlocal:           0.25 ave           1 max           0 min
Histogram: 6 0 0 0 0 0 0 0 0 2
Nghost:         431.75 ave         432 max         431 min
Histogram: 2 0 0 0 0 0 0 0 0 6
Neighs:             21 ave          84 max           0 min
Histogram: 6 0 0 0 0 0 0 0 0 2
FullNghs:           42 ave         168 max           0 min
Histogram: 6 0 0 0 0 0 0 0 0 2

Total # of neighbors = 336
Ave neighs/atom = 168
Neighbor list builds = 0
Dangerous builds = 0
variable  natoms equal "count(all)"
variable xlength equal "lx"
variable  volume equal "vol"
variable  etotal equal "etotal"
variable    ecoh equal "pe/v_natoms"
print "${xlength}, ${volume}, ${etotal}, ${ecoh}" append lattice_cohesive_energy.txt screen no

next i
jump SELF loop

change_box all x scale 1.0025 y scale 1.0025 z scale 1.0025 remap
Changing box ...
  orthogonal box = (0.057054414 0.060590438 0.060590438) to (2.8929456 2.8894096 2.8894096)
  orthogonal box = (0.057054414 0.057054414 0.060590438) to (2.8929456 2.8929456 2.8894096)
  orthogonal box = (0.057054414 0.057054414 0.057054414) to (2.8929456 2.8929456 2.8929456)

run 1
WARNING: No fixes with time integration, atoms won't move (src/verlet.cpp:60)
WARNING: Proc sub-domain size < neighbor skin, could lead to lost atoms (src/domain.cpp:966)
Per MPI rank memory allocation (min/avg/max) = 8.587 | 8.587 | 8.587 Mbytes
   Step         PotEng         TotEng           Lx             Ly             Lz           Volume         Press           Pxx            Pyy            Pzz      
        13  -11.956921     -11.956921      2.8358912      2.8358912      2.8358912      22.807027      459570.53      459570.53      459570.53      459570.53    
        14  -11.956921     -11.956921      2.8358912      2.8358912      2.8358912      22.807027      459570.53      459570.53      459570.53      459570.53    
Loop time of 0.000283375 on 8 procs for 1 steps with 2 atoms

Performance: 304.896 ns/day, 0.079 hours/ns, 3528.893 timesteps/s, 7.058 katom-step/s
0.0% CPU use with 8 MPI tasks x 1 OpenMP threads

MPI task timing breakdown:
Section |  min time  |  avg time  |  max time  |%varavg| %total
---------------------------------------------------------------
Pair    | 0.000179   | 0.0001935  | 0.000231   |   0.0 | 68.28
Neigh   | 0          | 0          | 0          |   0.0 |  0.00
Comm    | 2.3e-05    | 5.2875e-05 | 8.2e-05    |   0.0 | 18.66
Output  | 1.4e-05    | 2.9e-05    | 7e-05      |   0.0 | 10.23
Modify  | 0          | 2.5e-07    | 1e-06      |   0.0 |  0.09
Other   |            | 7.75e-06   |            |       |  2.73

Nlocal:           0.25 ave           1 max           0 min
Histogram: 6 0 0 0 0 0 0 0 0 2
Nghost:         431.75 ave         432 max         431 min
Histogram: 2 0 0 0 0 0 0 0 0 6
Neighs:             21 ave          84 max           0 min
Histogram: 6 0 0 0 0 0 0 0 0 2
FullNghs:           42 ave         168 max           0 min
Histogram: 6 0 0 0 0 0 0 0 0 2

Total # of neighbors = 336
Ave neighs/atom = 168
Neighbor list builds = 0
Dangerous builds = 0
variable  natoms equal "count(all)"
variable xlength equal "lx"
variable  volume equal "vol"
variable  etotal equal "etotal"
variable    ecoh equal "pe/v_natoms"
print "${xlength}, ${volume}, ${etotal}, ${ecoh}" append lattice_cohesive_energy.txt screen no

next i
jump SELF loop

change_box all x scale 1.0025 y scale 1.0025 z scale 1.0025 remap
Changing box ...
  orthogonal box = (0.05350955 0.057054414 0.057054414) to (2.8964905 2.8929456 2.8929456)
  orthogonal box = (0.05350955 0.05350955 0.057054414) to (2.8964905 2.8964905 2.8929456)
  orthogonal box = (0.05350955 0.05350955 0.05350955) to (2.8964905 2.8964905 2.8964905)

run 1
WARNING: No fixes with time integration, atoms won't move (src/verlet.cpp:60)
WARNING: Proc sub-domain size < neighbor skin, could lead to lost atoms (src/domain.cpp:966)
Per MPI rank memory allocation (min/avg/max) = 8.587 | 8.587 | 8.587 Mbytes
   Step         PotEng         TotEng           Lx             Ly             Lz           Volume         Press           Pxx            Pyy            Pzz      
        14  -12.004131     -12.004131      2.8429809      2.8429809      2.8429809      22.978508      422850.21      422850.21      422850.21      422850.21    
        15  -12.004131     -12.004131      2.8429809      2.8429809      2.8429809      22.978508      422850.21      422850.21      422850.21      422850.21    
Loop time of 0.00037625 on 8 procs for 1 steps with 2 atoms

Performance: 229.635 ns/day, 0.105 hours/ns, 2657.807 timesteps/s, 5.316 katom-step/s
0.0% CPU use with 8 MPI tasks x 1 OpenMP threads

MPI task timing breakdown:
Section |  min time  |  avg time  |  max time  |%varavg| %total
---------------------------------------------------------------
Pair    | 0.00027    | 0.00028325 | 0.000318   |   0.0 | 75.28
Neigh   | 0          | 0          | 0          |   0.0 |  0.00
Comm    | 2.2e-05    | 5.1875e-05 | 7.8e-05    |   0.0 | 13.79
Output  | 1.6e-05    | 3.15e-05   | 7.3e-05    |   0.0 |  8.37
Modify  | 0          | 2.5e-07    | 1e-06      |   0.0 |  0.07
Other   |            | 9.375e-06  |            |       |  2.49

Nlocal:           0.25 ave           1 max           0 min
Histogram: 6 0 0 0 0 0 0 0 0 2
Nghost:         431.75 ave         432 max         431 min
Histogram: 2 0 0 0 0 0 0 0 0 6
Neighs:             21 ave          84 max           0 min
Histogram: 6 0 0 0 0 0 0 0 0 2
FullNghs:           42 ave         168 max           0 min
Histogram: 6 0 0 0 0 0 0 0 0 2

Total # of neighbors = 336
Ave neighs/atom = 168
Neighbor list builds = 0
Dangerous builds = 0
variable  natoms equal "count(all)"
variable xlength equal "lx"
variable  volume equal "vol"
variable  etotal equal "etotal"
variable    ecoh equal "pe/v_natoms"
print "${xlength}, ${volume}, ${etotal}, ${ecoh}" append lattice_cohesive_energy.txt screen no

next i
jump SELF loop

change_box all x scale 1.0025 y scale 1.0025 z scale 1.0025 remap
Changing box ...
  orthogonal box = (0.049955824 0.05350955 0.05350955) to (2.9000442 2.8964905 2.8964905)
  orthogonal box = (0.049955824 0.049955824 0.05350955) to (2.9000442 2.9000442 2.8964905)
  orthogonal box = (0.049955824 0.049955824 0.049955824) to (2.9000442 2.9000442 2.9000442)

run 1
WARNING: No fixes with time integration, atoms won't move (src/verlet.cpp:60)
WARNING: Proc sub-domain size < neighbor skin, could lead to lost atoms (src/domain.cpp:966)
Per MPI rank memory allocation (min/avg/max) = 8.587 | 8.587 | 8.587 Mbytes
   Step         PotEng         TotEng           Lx             Ly             Lz           Volume         Press           Pxx            Pyy            Pzz      
        15  -12.047798     -12.047798      2.8500884      2.8500884      2.8500884      23.151278      387269.74      387269.74      387269.74      387269.74    
        16  -12.047798     -12.047798      2.8500884      2.8500884      2.8500884      23.151278      387269.74      387269.74      387269.74      387269.74    
Loop time of 0.000284125 on 8 procs for 1 steps with 2 atoms

Performance: 304.092 ns/day, 0.079 hours/ns, 3519.578 timesteps/s, 7.039 katom-step/s
0.0% CPU use with 8 MPI tasks x 1 OpenMP threads

MPI task timing breakdown:
Section |  min time  |  avg time  |  max time  |%varavg| %total
---------------------------------------------------------------
Pair    | 0.000178   | 0.00019287 | 0.000229   |   0.0 | 67.88
Neigh   | 0          | 0          | 0          |   0.0 |  0.00
Comm    | 2.4e-05    | 5.3125e-05 | 8.2e-05    |   0.0 | 18.70
Output  | 1.4e-05    | 2.9375e-05 | 6.9e-05    |   0.0 | 10.34
Modify  | 0          | 1.25e-07   | 1e-06      |   0.0 |  0.04
Other   |            | 8.625e-06  |            |       |  3.04

Nlocal:           0.25 ave           1 max           0 min
Histogram: 6 0 0 0 0 0 0 0 0 2
Nghost:         431.75 ave         432 max         431 min
Histogram: 2 0 0 0 0 0 0 0 0 6
Neighs:             21 ave          84 max           0 min
Histogram: 6 0 0 0 0 0 0 0 0 2
FullNghs:           42 ave         168 max           0 min
Histogram: 6 0 0 0 0 0 0 0 0 2

Total # of neighbors = 336
Ave neighs/atom = 168
Neighbor list builds = 0
Dangerous builds = 0
variable  natoms equal "count(all)"
variable xlength equal "lx"
variable  volume equal "vol"
variable  etotal equal "etotal"
variable    ecoh equal "pe/v_natoms"
print "${xlength}, ${volume}, ${etotal}, ${ecoh}" append lattice_cohesive_energy.txt screen no

next i
jump SELF loop

change_box all x scale 1.0025 y scale 1.0025 z scale 1.0025 remap
Changing box ...
  orthogonal box = (0.046393213 0.049955824 0.049955824) to (2.9036068 2.9000442 2.9000442)
  orthogonal box = (0.046393213 0.046393213 0.049955824) to (2.9036068 2.9036068 2.9000442)
  orthogonal box = (0.046393213 0.046393213 0.046393213) to (2.9036068 2.9036068 2.9036068)

run 1
WARNING: No fixes with time integration, atoms won't move (src/verlet.cpp:60)
WARNING: Proc sub-domain size < neighbor skin, could lead to lost atoms (src/domain.cpp:966)
Per MPI rank memory allocation (min/avg/max) = 8.618 | 8.619 | 8.621 Mbytes
   Step         PotEng         TotEng           Lx             Ly             Lz           Volume         Press           Pxx            Pyy            Pzz      
        16  -12.087988     -12.087988      2.8572136      2.8572136      2.8572136      23.325347      352803.35      352803.35      352803.35      352803.35    
        17  -12.087988     -12.087988      2.8572136      2.8572136      2.8572136      23.325347      352803.35      352803.35      352803.35      352803.35    
Loop time of 0.000304625 on 8 procs for 1 steps with 2 atoms

Performance: 283.627 ns/day, 0.085 hours/ns, 3282.725 timesteps/s, 6.565 katom-step/s
0.0% CPU use with 8 MPI tasks x 1 OpenMP threads

MPI task timing breakdown:
Section |  min time  |  avg time  |  max time  |%varavg| %total
---------------------------------------------------------------
Pair    | 0.000209   | 0.000218   | 0.000247   |   0.0 | 71.56
Neigh   | 0          | 0          | 0          |   0.0 |  0.00
Comm    | 1.7e-05    | 3.325e-05  | 6.8e-05    |   0.0 | 10.92
Output  | 1.4e-05    | 4.05e-05   | 6.3e-05    |   0.0 | 13.30
Modify  | 0          | 1.25e-07   | 1e-06      |   0.0 |  0.04
Other   |            | 1.275e-05  |            |       |  4.19

Nlocal:           0.25 ave           2 max           0 min
Histogram: 7 0 0 0 0 0 0 0 0 1
Nghost:         431.75 ave         432 max         430 min
Histogram: 1 0 0 0 0 0 0 0 0 7
Neighs:             21 ave         168 max           0 min
Histogram: 7 0 0 0 0 0 0 0 0 1
FullNghs:           42 ave         336 max           0 min
Histogram: 7 0 0 0 0 0 0 0 0 1

Total # of neighbors = 336
Ave neighs/atom = 168
Neighbor list builds = 0
Dangerous builds = 0
variable  natoms equal "count(all)"
variable xlength equal "lx"
variable  volume equal "vol"
variable  etotal equal "etotal"
variable    ecoh equal "pe/v_natoms"
print "${xlength}, ${volume}, ${etotal}, ${ecoh}" append lattice_cohesive_energy.txt screen no

next i
jump SELF loop

change_box all x scale 1.0025 y scale 1.0025 z scale 1.0025 remap
Changing box ...
  orthogonal box = (0.042821696 0.046393213 0.046393213) to (2.9071783 2.9036068 2.9036068)
  orthogonal box = (0.042821696 0.042821696 0.046393213) to (2.9071783 2.9071783 2.9036068)
  orthogonal box = (0.042821696 0.042821696 0.042821696) to (2.9071783 2.9071783 2.9071783)

run 1
WARNING: No fixes with time integration, atoms won't move (src/verlet.cpp:60)
WARNING: Proc sub-domain size < neighbor skin, could lead to lost atoms (src/domain.cpp:966)
Per MPI rank memory allocation (min/avg/max) = 8.618 | 8.619 | 8.621 Mbytes
   Step         PotEng         TotEng           Lx             Ly             Lz           Volume         Press           Pxx            Pyy            Pzz      
        17  -12.124768     -12.124768      2.8643566      2.8643566      2.8643566      23.500725      319425.8       319425.8       319425.8       319425.8     
        18  -12.124768     -12.124768      2.8643566      2.8643566      2.8643566      23.500725      319425.8       319425.8       319425.8       319425.8     
Loop time of 0.00028625 on 8 procs for 1 steps with 2 atoms

Performance: 301.834 ns/day, 0.080 hours/ns, 3493.450 timesteps/s, 6.987 katom-step/s
682.3% CPU use with 8 MPI tasks x 1 OpenMP threads

MPI task timing breakdown:
Section |  min time  |  avg time  |  max time  |%varavg| %total
---------------------------------------------------------------
Pair    | 0.000197   | 0.000208   | 0.000235   |   0.0 | 72.66
Neigh   | 0          | 0          | 0          |   0.0 |  0.00
Comm    | 1.7e-05    | 3.1875e-05 | 6.5e-05    |   0.0 | 11.14
Output  | 1.4e-05    | 3.8e-05    | 6.3e-05    |   0.0 | 13.28
Modify  | 0          | 2.5e-07    | 1e-06      |   0.0 |  0.09
Other   |            | 8.125e-06  |            |       |  2.84

Nlocal:           0.25 ave           2 max           0 min
Histogram: 7 0 0 0 0 0 0 0 0 1
Nghost:         431.75 ave         432 max         430 min
Histogram: 1 0 0 0 0 0 0 0 0 7
Neighs:             21 ave         168 max           0 min
Histogram: 7 0 0 0 0 0 0 0 0 1
FullNghs:           42 ave         336 max           0 min
Histogram: 7 0 0 0 0 0 0 0 0 1

Total # of neighbors = 336
Ave neighs/atom = 168
Neighbor list builds = 0
Dangerous builds = 0
variable  natoms equal "count(all)"
variable xlength equal "lx"
variable  volume equal "vol"
variable  etotal equal "etotal"
variable    ecoh equal "pe/v_natoms"
print "${xlength}, ${volume}, ${etotal}, ${ecoh}" append lattice_cohesive_energy.txt screen no

next i
jump SELF loop

change_box all x scale 1.0025 y scale 1.0025 z scale 1.0025 remap
Changing box ...
  orthogonal box = (0.03924125 0.042821696 0.042821696) to (2.9107587 2.9071783 2.9071783)
  orthogonal box = (0.03924125 0.03924125 0.042821696) to (2.9107587 2.9107587 2.9071783)
  orthogonal box = (0.03924125 0.03924125 0.03924125) to (2.9107587 2.9107587 2.9107587)

run 1
WARNING: No fixes with time integration, atoms won't move (src/verlet.cpp:60)
WARNING: Proc sub-domain size < neighbor skin, could lead to lost atoms (src/domain.cpp:966)
Per MPI rank memory allocation (min/avg/max) = 8.618 | 8.619 | 8.621 Mbytes
   Step         PotEng         TotEng           Lx             Ly             Lz           Volume         Press           Pxx            Pyy            Pzz      
        18  -12.158202     -12.158202      2.8715175      2.8715175      2.8715175      23.677421      287112.27      287112.27      287112.27      287112.27    
        19  -12.158202     -12.158202      2.8715175      2.8715175      2.8715175      23.677421      287112.27      287112.27      287112.27      287112.27    
Loop time of 0.000283375 on 8 procs for 1 steps with 2 atoms

Performance: 304.896 ns/day, 0.079 hours/ns, 3528.893 timesteps/s, 7.058 katom-step/s
0.0% CPU use with 8 MPI tasks x 1 OpenMP threads

MPI task timing breakdown:
Section |  min time  |  avg time  |  max time  |%varavg| %total
---------------------------------------------------------------
Pair    | 0.000193   | 0.00020875 | 0.000233   |   0.0 | 73.67
Neigh   | 0          | 0          | 0          |   0.0 |  0.00
Comm    | 1.7e-05    | 3.2e-05    | 6e-05      |   0.0 | 11.29
Output  | 1.5e-05    | 3.4625e-05 | 6.4e-05    |   0.0 | 12.22
Modify  | 0          | 0          | 0          |   0.0 |  0.00
Other   |            | 8e-06      |            |       |  2.82

Nlocal:           0.25 ave           2 max           0 min
Histogram: 7 0 0 0 0 0 0 0 0 1
Nghost:         431.75 ave         432 max         430 min
Histogram: 1 0 0 0 0 0 0 0 0 7
Neighs:             21 ave         168 max           0 min
Histogram: 7 0 0 0 0 0 0 0 0 1
FullNghs:           42 ave         336 max           0 min
Histogram: 7 0 0 0 0 0 0 0 0 1

Total # of neighbors = 336
Ave neighs/atom = 168
Neighbor list builds = 0
Dangerous builds = 0
variable  natoms equal "count(all)"
variable xlength equal "lx"
variable  volume equal "vol"
variable  etotal equal "etotal"
variable    ecoh equal "pe/v_natoms"
print "${xlength}, ${volume}, ${etotal}, ${ecoh}" append lattice_cohesive_energy.txt screen no

next i
jump SELF loop

change_box all x scale 1.0025 y scale 1.0025 z scale 1.0025 remap
Changing box ...
  orthogonal box = (0.035651854 0.03924125 0.03924125) to (2.9143481 2.9107587 2.9107587)
  orthogonal box = (0.035651854 0.035651854 0.03924125) to (2.9143481 2.9143481 2.9107587)
  orthogonal box = (0.035651854 0.035651854 0.035651854) to (2.9143481 2.9143481 2.9143481)

run 1
WARNING: No fixes with time integration, atoms won't move (src/verlet.cpp:60)
WARNING: Proc sub-domain size < neighbor skin, could lead to lost atoms (src/domain.cpp:966)
Per MPI rank memory allocation (min/avg/max) = 8.618 | 8.619 | 8.621 Mbytes
   Step         PotEng         TotEng           Lx             Ly             Lz           Volume         Press           Pxx            Pyy            Pzz      
        19  -12.188355     -12.188355      2.8786963      2.8786963      2.8786963      23.855446      255838.39      255838.39      255838.39      255838.39    
        20  -12.188355     -12.188355      2.8786963      2.8786963      2.8786963      23.855446      255838.39      255838.39      255838.39      255838.39    
Loop time of 0.000262125 on 8 procs for 1 steps with 2 atoms

Performance: 329.614 ns/day, 0.073 hours/ns, 3814.974 timesteps/s, 7.630 katom-step/s
0.0% CPU use with 8 MPI tasks x 1 OpenMP threads

MPI task timing breakdown:
Section |  min time  |  avg time  |  max time  |%varavg| %total
---------------------------------------------------------------
Pair    | 0.000186   | 0.00019725 | 0.000219   |   0.0 | 75.25
Neigh   | 0          | 0          | 0          |   0.0 |  0.00
Comm    | 1.9e-05    | 2.9125e-05 | 5.6e-05    |   0.0 | 11.11
Output  | 1.3e-05    | 3.125e-05  | 5.3e-05    |   0.0 | 11.92
Modify  | 0          | 1.25e-07   | 1e-06      |   0.0 |  0.05
Other   |            | 4.375e-06  |            |       |  1.67

Nlocal:           0.25 ave           2 max           0 min
Histogram: 7 0 0 0 0 0 0 0 0 1
Nghost:         431.75 ave         432 max         430 min
Histogram: 1 0 0 0 0 0 0 0 0 7
Neighs:             21 ave         168 max           0 min
Histogram: 7 0 0 0 0 0 0 0 0 1
FullNghs:           42 ave         336 max           0 min
Histogram: 7 0 0 0 0 0 0 0 0 1

Total # of neighbors = 336
Ave neighs/atom = 168
Neighbor list builds = 0
Dangerous builds = 0
variable  natoms equal "count(all)"
variable xlength equal "lx"
variable  volume equal "vol"
variable  etotal equal "etotal"
variable    ecoh equal "pe/v_natoms"
print "${xlength}, ${volume}, ${etotal}, ${ecoh}" append lattice_cohesive_energy.txt screen no

next i
jump SELF loop

change_box all x scale 1.0025 y scale 1.0025 z scale 1.0025 remap
Changing box ...
  orthogonal box = (0.032053483 0.035651854 0.035651854) to (2.9179465 2.9143481 2.9143481)
  orthogonal box = (0.032053483 0.032053483 0.035651854) to (2.9179465 2.9179465 2.9143481)
  orthogonal box = (0.032053483 0.032053483 0.032053483) to (2.9179465 2.9179465 2.9179465)

run 1
WARNING: No fixes with time integration, atoms won't move (src/verlet.cpp:60)
WARNING: Proc sub-domain size < neighbor skin, could lead to lost atoms (src/domain.cpp:966)
Per MPI rank memory allocation (min/avg/max) = 8.618 | 8.619 | 8.621 Mbytes
   Step         PotEng         TotEng           Lx             Ly             Lz           Volume         Press           Pxx            Pyy            Pzz      
        20  -12.215291     -12.215291      2.885893       2.885893       2.885893       24.03481       225580.24      225580.24      225580.24      225580.24    
        21  -12.215291     -12.215291      2.885893       2.885893       2.885893       24.03481       225580.24      225580.24      225580.24      225580.24    
Loop time of 0.000276 on 8 procs for 1 steps with 2 atoms

Performance: 313.043 ns/day, 0.077 hours/ns, 3623.188 timesteps/s, 7.246 katom-step/s
0.0% CPU use with 8 MPI tasks x 1 OpenMP threads

MPI task timing breakdown:
Section |  min time  |  avg time  |  max time  |%varavg| %total
---------------------------------------------------------------
Pair    | 0.000173   | 0.00019238 | 0.000217   |   0.0 | 69.70
Neigh   | 0          | 0          | 0          |   0.0 |  0.00
Comm    | 2.1e-05    | 3.775e-05  | 6.7e-05    |   0.0 | 13.68
Output  | 1.6e-05    | 3.625e-05  | 5.9e-05    |   0.0 | 13.13
Modify  | 0          | 0          | 0          |   0.0 |  0.00
Other   |            | 9.625e-06  |            |       |  3.49

Nlocal:           0.25 ave           2 max           0 min
Histogram: 7 0 0 0 0 0 0 0 0 1
Nghost:         431.75 ave         432 max         430 min
Histogram: 1 0 0 0 0 0 0 0 0 7
Neighs:             21 ave         168 max           0 min
Histogram: 7 0 0 0 0 0 0 0 0 1
FullNghs:           42 ave         336 max           0 min
Histogram: 7 0 0 0 0 0 0 0 0 1

Total # of neighbors = 336
Ave neighs/atom = 168
Neighbor list builds = 0
Dangerous builds = 0
variable  natoms equal "count(all)"
variable xlength equal "lx"
variable  volume equal "vol"
variable  etotal equal "etotal"
variable    ecoh equal "pe/v_natoms"
print "${xlength}, ${volume}, ${etotal}, ${ecoh}" append lattice_cohesive_energy.txt screen no

next i
jump SELF loop

change_box all x scale 1.0025 y scale 1.0025 z scale 1.0025 remap
Changing box ...
  orthogonal box = (0.028446117 0.032053483 0.032053483) to (2.9215539 2.9179465 2.9179465)
  orthogonal box = (0.028446117 0.028446117 0.032053483) to (2.9215539 2.9215539 2.9179465)
  orthogonal box = (0.028446117 0.028446117 0.028446117) to (2.9215539 2.9215539 2.9215539)

run 1
WARNING: No fixes with time integration, atoms won't move (src/verlet.cpp:60)
WARNING: Proc sub-domain size < neighbor skin, could lead to lost atoms (src/domain.cpp:966)
Per MPI rank memory allocation (min/avg/max) = 8.618 | 8.619 | 8.621 Mbytes
   Step         PotEng         TotEng           Lx             Ly             Lz           Volume         Press           Pxx            Pyy            Pzz      
        21  -12.239073     -12.239073      2.8931078      2.8931078      2.8931078      24.215522      196314.31      196314.31      196314.31      196314.31    
        22  -12.239073     -12.239073      2.8931078      2.8931078      2.8931078      24.215522      196314.31      196314.31      196314.31      196314.31    
Loop time of 0.0002195 on 8 procs for 1 steps with 2 atoms

Performance: 393.622 ns/day, 0.061 hours/ns, 4555.809 timesteps/s, 9.112 katom-step/s
0.0% CPU use with 8 MPI tasks x 1 OpenMP threads

MPI task timing breakdown:
Section |  min time  |  avg time  |  max time  |%varavg| %total
---------------------------------------------------------------
Pair    | 0.000166   | 0.0001685  | 0.000177   |   0.0 | 76.77
Neigh   | 0          | 0          | 0          |   0.0 |  0.00
Comm    | 1.9e-05    | 2.5e-05    | 3.6e-05    |   0.0 | 11.39
Output  | 1.2e-05    | 2.125e-05  | 3e-05      |   0.0 |  9.68
Modify  | 0          | 1.25e-07   | 1e-06      |   0.0 |  0.06
Other   |            | 4.625e-06  |            |       |  2.11

Nlocal:           0.25 ave           2 max           0 min
Histogram: 7 0 0 0 0 0 0 0 0 1
Nghost:         431.75 ave         432 max         430 min
Histogram: 1 0 0 0 0 0 0 0 0 7
Neighs:             17 ave         136 max           0 min
Histogram: 7 0 0 0 0 0 0 0 0 1
FullNghs:           34 ave         272 max           0 min
Histogram: 7 0 0 0 0 0 0 0 0 1

Total # of neighbors = 272
Ave neighs/atom = 136
Neighbor list builds = 0
Dangerous builds = 0
variable  natoms equal "count(all)"
variable xlength equal "lx"
variable  volume equal "vol"
variable  etotal equal "etotal"
variable    ecoh equal "pe/v_natoms"
print "${xlength}, ${volume}, ${etotal}, ${ecoh}" append lattice_cohesive_energy.txt screen no

next i
jump SELF loop

change_box all x scale 1.0025 y scale 1.0025 z scale 1.0025 remap
Changing box ...
  orthogonal box = (0.024829732 0.028446117 0.028446117) to (2.9251703 2.9215539 2.9215539)
  orthogonal box = (0.024829732 0.024829732 0.028446117) to (2.9251703 2.9251703 2.9215539)
  orthogonal box = (0.024829732 0.024829732 0.024829732) to (2.9251703 2.9251703 2.9251703)

run 1
WARNING: No fixes with time integration, atoms won't move (src/verlet.cpp:60)
WARNING: Proc sub-domain size < neighbor skin, could lead to lost atoms (src/domain.cpp:966)
Per MPI rank memory allocation (min/avg/max) = 8.618 | 8.619 | 8.621 Mbytes
   Step         PotEng         TotEng           Lx             Ly             Lz           Volume         Press           Pxx            Pyy            Pzz      
        22  -12.259763     -12.259763      2.9003405      2.9003405      2.9003405      24.397593      168017.53      168017.53      168017.53      168017.53    
        23  -12.259763     -12.259763      2.9003405      2.9003405      2.9003405      24.397593      168017.53      168017.53      168017.53      168017.53    
Loop time of 0.000276125 on 8 procs for 1 steps with 2 atoms

Performance: 312.902 ns/day, 0.077 hours/ns, 3621.548 timesteps/s, 7.243 katom-step/s
0.0% CPU use with 8 MPI tasks x 1 OpenMP threads

MPI task timing breakdown:
Section |  min time  |  avg time  |  max time  |%varavg| %total
---------------------------------------------------------------
Pair    | 0.000184   | 0.00019463 | 0.000217   |   0.0 | 70.48
Neigh   | 0          | 0          | 0          |   0.0 |  0.00
Comm    | 2.2e-05    | 3.4875e-05 | 5.8e-05    |   0.0 | 12.63
Output  | 1.6e-05    | 3.75e-05   | 6.1e-05    |   0.0 | 13.58
Modify  | 0          | 1.25e-07   | 1e-06      |   0.0 |  0.05
Other   |            | 9e-06      |            |       |  3.26

Nlocal:           0.25 ave           2 max           0 min
Histogram: 7 0 0 0 0 0 0 0 0 1
Nghost:         431.75 ave         432 max         430 min
Histogram: 1 0 0 0 0 0 0 0 0 7
Neighs:             17 ave         136 max           0 min
Histogram: 7 0 0 0 0 0 0 0 0 1
FullNghs:           34 ave         272 max           0 min
Histogram: 7 0 0 0 0 0 0 0 0 1

Total # of neighbors = 272
Ave neighs/atom = 136
Neighbor list builds = 0
Dangerous builds = 0
variable  natoms equal "count(all)"
variable xlength equal "lx"
variable  volume equal "vol"
variable  etotal equal "etotal"
variable    ecoh equal "pe/v_natoms"
print "${xlength}, ${volume}, ${etotal}, ${ecoh}" append lattice_cohesive_energy.txt screen no

next i
jump SELF loop

change_box all x scale 1.0025 y scale 1.0025 z scale 1.0025 remap
Changing box ...
  orthogonal box = (0.021204307 0.024829732 0.024829732) to (2.9287957 2.9251703 2.9251703)
  orthogonal box = (0.021204307 0.021204307 0.024829732) to (2.9287957 2.9287957 2.9251703)
  orthogonal box = (0.021204307 0.021204307 0.021204307) to (2.9287957 2.9287957 2.9287957)

run 1
WARNING: No fixes with time integration, atoms won't move (src/verlet.cpp:60)
WARNING: Proc sub-domain size < neighbor skin, could lead to lost atoms (src/domain.cpp:966)
Per MPI rank memory allocation (min/avg/max) = 8.618 | 8.619 | 8.621 Mbytes
   Step         PotEng         TotEng           Lx             Ly             Lz           Volume         Press           Pxx            Pyy            Pzz      
        23  -12.277423     -12.277423      2.9075914      2.9075914      2.9075914      24.581033      140667.25      140667.25      140667.25      140667.25    
        24  -12.277423     -12.277423      2.9075914      2.9075914      2.9075914      24.581033      140667.25      140667.25      140667.25      140667.25    
Loop time of 0.00027075 on 8 procs for 1 steps with 2 atoms

Performance: 319.114 ns/day, 0.075 hours/ns, 3693.444 timesteps/s, 7.387 katom-step/s
0.0% CPU use with 8 MPI tasks x 1 OpenMP threads

MPI task timing breakdown:
Section |  min time  |  avg time  |  max time  |%varavg| %total
---------------------------------------------------------------
Pair    | 0.000183   | 0.0001925  | 0.000215   |   0.0 | 71.10
Neigh   | 0          | 0          | 0          |   0.0 |  0.00
Comm    | 2e-05      | 3.3875e-05 | 5.9e-05    |   0.0 | 12.51
Output  | 1.5e-05    | 3.5875e-05 | 5.9e-05    |   0.0 | 13.25
Modify  | 0          | 2.5e-07    | 1e-06      |   0.0 |  0.09
Other   |            | 8.25e-06   |            |       |  3.05

Nlocal:           0.25 ave           2 max           0 min
Histogram: 7 0 0 0 0 0 0 0 0 1
Nghost:         431.75 ave         432 max         430 min
Histogram: 1 0 0 0 0 0 0 0 0 7
Neighs:             17 ave         136 max           0 min
Histogram: 7 0 0 0 0 0 0 0 0 1
FullNghs:           34 ave         272 max           0 min
Histogram: 7 0 0 0 0 0 0 0 0 1

Total # of neighbors = 272
Ave neighs/atom = 136
Neighbor list builds = 0
Dangerous builds = 0
variable  natoms equal "count(all)"
variable xlength equal "lx"
variable  volume equal "vol"
variable  etotal equal "etotal"
variable    ecoh equal "pe/v_natoms"
print "${xlength}, ${volume}, ${etotal}, ${ecoh}" append lattice_cohesive_energy.txt screen no

next i
jump SELF loop

change_box all x scale 1.0025 y scale 1.0025 z scale 1.0025 remap
Changing box ...
  orthogonal box = (0.017569817 0.021204307 0.021204307) to (2.9324302 2.9287957 2.9287957)
  orthogonal box = (0.017569817 0.017569817 0.021204307) to (2.9324302 2.9324302 2.9287957)
  orthogonal box = (0.017569817 0.017569817 0.017569817) to (2.9324302 2.9324302 2.9324302)

run 1
WARNING: No fixes with time integration, atoms won't move (src/verlet.cpp:60)
WARNING: Proc sub-domain size < neighbor skin, could lead to lost atoms (src/domain.cpp:966)
Per MPI rank memory allocation (min/avg/max) = 8.618 | 8.619 | 8.621 Mbytes
   Step         PotEng         TotEng           Lx             Ly             Lz           Volume         Press           Pxx            Pyy            Pzz      
        24  -12.292115     -12.292115      2.9148604      2.9148604      2.9148604      24.765852      114241.26      114241.26      114241.26      114241.26    
        25  -12.292115     -12.292115      2.9148604      2.9148604      2.9148604      24.765852      114241.26      114241.26      114241.26      114241.26    
Loop time of 0.00026975 on 8 procs for 1 steps with 2 atoms

Performance: 320.297 ns/day, 0.075 hours/ns, 3707.136 timesteps/s, 7.414 katom-step/s
0.0% CPU use with 8 MPI tasks x 1 OpenMP threads

MPI task timing breakdown:
Section |  min time  |  avg time  |  max time  |%varavg| %total
---------------------------------------------------------------
Pair    | 0.000182   | 0.000191   | 0.000213   |   0.0 | 70.81
Neigh   | 0          | 0          | 0          |   0.0 |  0.00
Comm    | 2e-05      | 3.4125e-05 | 5.8e-05    |   0.0 | 12.65
Output  | 1.6e-05    | 3.6125e-05 | 5.8e-05    |   0.0 | 13.39
Modify  | 0          | 2.5e-07    | 1e-06      |   0.0 |  0.09
Other   |            | 8.25e-06   |            |       |  3.06

Nlocal:           0.25 ave           2 max           0 min
Histogram: 7 0 0 0 0 0 0 0 0 1
Nghost:         431.75 ave         432 max         430 min
Histogram: 1 0 0 0 0 0 0 0 0 7
Neighs:             17 ave         136 max           0 min
Histogram: 7 0 0 0 0 0 0 0 0 1
FullNghs:           34 ave         272 max           0 min
Histogram: 7 0 0 0 0 0 0 0 0 1

Total # of neighbors = 272
Ave neighs/atom = 136
Neighbor list builds = 0
Dangerous builds = 0
variable  natoms equal "count(all)"
variable xlength equal "lx"
variable  volume equal "vol"
variable  etotal equal "etotal"
variable    ecoh equal "pe/v_natoms"
print "${xlength}, ${volume}, ${etotal}, ${ecoh}" append lattice_cohesive_energy.txt screen no

next i
jump SELF loop

change_box all x scale 1.0025 y scale 1.0025 z scale 1.0025 remap
Changing box ...
  orthogonal box = (0.013926242 0.017569817 0.017569817) to (2.9360738 2.9324302 2.9324302)
  orthogonal box = (0.013926242 0.013926242 0.017569817) to (2.9360738 2.9360738 2.9324302)
  orthogonal box = (0.013926242 0.013926242 0.013926242) to (2.9360738 2.9360738 2.9360738)

run 1
WARNING: No fixes with time integration, atoms won't move (src/verlet.cpp:60)
WARNING: Proc sub-domain size < neighbor skin, could lead to lost atoms (src/domain.cpp:966)
Per MPI rank memory allocation (min/avg/max) = 8.618 | 8.619 | 8.621 Mbytes
   Step         PotEng         TotEng           Lx             Ly             Lz           Volume         Press           Pxx            Pyy            Pzz      
        25  -12.303899     -12.303899      2.9221475      2.9221475      2.9221475      24.95206       88717.727      88717.727      88717.727      88717.727    
        26  -12.303899     -12.303899      2.9221475      2.9221475      2.9221475      24.95206       88717.727      88717.727      88717.727      88717.727    
Loop time of 0.00032775 on 8 procs for 1 steps with 2 atoms

Performance: 263.616 ns/day, 0.091 hours/ns, 3051.106 timesteps/s, 6.102 katom-step/s
0.0% CPU use with 8 MPI tasks x 1 OpenMP threads

MPI task timing breakdown:
Section |  min time  |  avg time  |  max time  |%varavg| %total
---------------------------------------------------------------
Pair    | 0.000241   | 0.00025025 | 0.000271   |   0.0 | 76.35
Neigh   | 0          | 0          | 0          |   0.0 |  0.00
Comm    | 2e-05      | 3.3375e-05 | 5.7e-05    |   0.0 | 10.18
Output  | 1.6e-05    | 3.525e-05  | 5.8e-05    |   0.0 | 10.76
Modify  | 0          | 1.25e-07   | 1e-06      |   0.0 |  0.04
Other   |            | 8.75e-06   |            |       |  2.67

Nlocal:           0.25 ave           2 max           0 min
Histogram: 7 0 0 0 0 0 0 0 0 1
Nghost:         431.75 ave         432 max         430 min
Histogram: 1 0 0 0 0 0 0 0 0 7
Neighs:             17 ave         136 max           0 min
Histogram: 7 0 0 0 0 0 0 0 0 1
FullNghs:           34 ave         272 max           0 min
Histogram: 7 0 0 0 0 0 0 0 0 1

Total # of neighbors = 272
Ave neighs/atom = 136
Neighbor list builds = 0
Dangerous builds = 0
variable  natoms equal "count(all)"
variable xlength equal "lx"
variable  volume equal "vol"
variable  etotal equal "etotal"
variable    ecoh equal "pe/v_natoms"
print "${xlength}, ${volume}, ${etotal}, ${ecoh}" append lattice_cohesive_energy.txt screen no

next i
jump SELF loop

change_box all x scale 1.0025 y scale 1.0025 z scale 1.0025 remap
Changing box ...
  orthogonal box = (0.010273557 0.013926242 0.013926242) to (2.9397264 2.9360738 2.9360738)
  orthogonal box = (0.010273557 0.010273557 0.013926242) to (2.9397264 2.9397264 2.9360738)
  orthogonal box = (0.010273557 0.010273557 0.010273557) to (2.9397264 2.9397264 2.9397264)

run 1
WARNING: No fixes with time integration, atoms won't move (src/verlet.cpp:60)
WARNING: Proc sub-domain size < neighbor skin, could lead to lost atoms (src/domain.cpp:966)
Per MPI rank memory allocation (min/avg/max) = 8.618 | 8.619 | 8.621 Mbytes
   Step         PotEng         TotEng           Lx             Ly             Lz           Volume         Press           Pxx            Pyy            Pzz      
        26  -12.312834     -12.312834      2.9294529      2.9294529      2.9294529      25.139669      64075.238      64075.238      64075.238      64075.238    
        27  -12.312834     -12.312834      2.9294529      2.9294529      2.9294529      25.139669      64075.238      64075.238      64075.238      64075.238    
Loop time of 0.000261125 on 8 procs for 1 steps with 2 atoms

Performance: 330.876 ns/day, 0.073 hours/ns, 3829.584 timesteps/s, 7.659 katom-step/s
0.0% CPU use with 8 MPI tasks x 1 OpenMP threads

MPI task timing breakdown:
Section |  min time  |  avg time  |  max time  |%varavg| %total
---------------------------------------------------------------
Pair    | 0.000179   | 0.000188   | 0.000206   |   0.0 | 72.00
Neigh   | 0          | 0          | 0          |   0.0 |  0.00
Comm    | 2e-05      | 3.2375e-05 | 5.3e-05    |   0.0 | 12.40
Output  | 1.5e-05    | 3.2125e-05 | 5.3e-05    |   0.0 | 12.30
Modify  | 0          | 0          | 0          |   0.0 |  0.00
Other   |            | 8.625e-06  |            |       |  3.30

Nlocal:           0.25 ave           2 max           0 min
Histogram: 7 0 0 0 0 0 0 0 0 1
Nghost:         431.75 ave         432 max         430 min
Histogram: 1 0 0 0 0 0 0 0 0 7
Neighs:             17 ave         136 max           0 min
Histogram: 7 0 0 0 0 0 0 0 0 1
FullNghs:           34 ave         272 max           0 min
Histogram: 7 0 0 0 0 0 0 0 0 1

Total # of neighbors = 272
Ave neighs/atom = 136
Neighbor list builds = 0
Dangerous builds = 0
variable  natoms equal "count(all)"
variable xlength equal "lx"
variable  volume equal "vol"
variable  etotal equal "etotal"
variable    ecoh equal "pe/v_natoms"
print "${xlength}, ${volume}, ${etotal}, ${ecoh}" append lattice_cohesive_energy.txt screen no

next i
jump SELF loop

change_box all x scale 1.0025 y scale 1.0025 z scale 1.0025 remap
Changing box ...
  orthogonal box = (0.0066117414 0.010273557 0.010273557) to (2.9433883 2.9397264 2.9397264)
  orthogonal box = (0.0066117414 0.0066117414 0.010273557) to (2.9433883 2.9433883 2.9397264)
  orthogonal box = (0.0066117414 0.0066117414 0.0066117414) to (2.9433883 2.9433883 2.9433883)

run 1
WARNING: No fixes with time integration, atoms won't move (src/verlet.cpp:60)
WARNING: Proc sub-domain size < neighbor skin, could lead to lost atoms (src/domain.cpp:966)
Per MPI rank memory allocation (min/avg/max) = 8.618 | 8.619 | 8.621 Mbytes
   Step         PotEng         TotEng           Lx             Ly             Lz           Volume         Press           Pxx            Pyy            Pzz      
        27  -12.318981     -12.318981      2.9367765      2.9367765      2.9367765      25.328688      40292.758      40292.758      40292.758      40292.758    
        28  -12.318981     -12.318981      2.9367765      2.9367765      2.9367765      25.328688      40292.758      40292.758      40292.758      40292.758    
Loop time of 0.00025925 on 8 procs for 1 steps with 2 atoms

Performance: 333.269 ns/day, 0.072 hours/ns, 3857.281 timesteps/s, 7.715 katom-step/s
0.0% CPU use with 8 MPI tasks x 1 OpenMP threads

MPI task timing breakdown:
Section |  min time  |  avg time  |  max time  |%varavg| %total
---------------------------------------------------------------
Pair    | 0.000178   | 0.00018662 | 0.000206   |   0.0 | 71.99
Neigh   | 0          | 0          | 0          |   0.0 |  0.00
Comm    | 1.9e-05    | 3.1125e-05 | 5.6e-05    |   0.0 | 12.01
Output  | 1.4e-05    | 3.2625e-05 | 5.3e-05    |   0.0 | 12.58
Modify  | 0          | 3.75e-07   | 1e-06      |   0.0 |  0.14
Other   |            | 8.5e-06    |            |       |  3.28

Nlocal:           0.25 ave           2 max           0 min
Histogram: 7 0 0 0 0 0 0 0 0 1
Nghost:         431.75 ave         432 max         430 min
Histogram: 1 0 0 0 0 0 0 0 0 7
Neighs:             17 ave         136 max           0 min
Histogram: 7 0 0 0 0 0 0 0 0 1
FullNghs:           34 ave         272 max           0 min
Histogram: 7 0 0 0 0 0 0 0 0 1

Total # of neighbors = 272
Ave neighs/atom = 136
Neighbor list builds = 0
Dangerous builds = 0
variable  natoms equal "count(all)"
variable xlength equal "lx"
variable  volume equal "vol"
variable  etotal equal "etotal"
variable    ecoh equal "pe/v_natoms"
print "${xlength}, ${volume}, ${etotal}, ${ecoh}" append lattice_cohesive_energy.txt screen no

next i
jump SELF loop

change_box all x scale 1.0025 y scale 1.0025 z scale 1.0025 remap
Changing box ...
  orthogonal box = (0.0029407707 0.0066117414 0.0066117414) to (2.9470592 2.9433883 2.9433883)
  orthogonal box = (0.0029407707 0.0029407707 0.0066117414) to (2.9470592 2.9470592 2.9433883)
  orthogonal box = (0.0029407707 0.0029407707 0.0029407707) to (2.9470592 2.9470592 2.9470592)

run 1
WARNING: No fixes with time integration, atoms won't move (src/verlet.cpp:60)
WARNING: Proc sub-domain size < neighbor skin, could lead to lost atoms (src/domain.cpp:966)
Per MPI rank memory allocation (min/avg/max) = 8.618 | 8.619 | 8.621 Mbytes
   Step         PotEng         TotEng           Lx             Ly             Lz           Volume         Press           Pxx            Pyy            Pzz      
        28  -12.322397     -12.322397      2.9441185      2.9441185      2.9441185      25.519129      17349.665      17349.665      17349.665      17349.665    
        29  -12.322397     -12.322397      2.9441185      2.9441185      2.9441185      25.519129      17349.665      17349.665      17349.665      17349.665    
Loop time of 0.0002775 on 8 procs for 1 steps with 2 atoms

Performance: 311.351 ns/day, 0.077 hours/ns, 3603.604 timesteps/s, 7.207 katom-step/s
703.8% CPU use with 8 MPI tasks x 1 OpenMP threads

MPI task timing breakdown:
Section |  min time  |  avg time  |  max time  |%varavg| %total
---------------------------------------------------------------
Pair    | 0.00019    | 0.0002055  | 0.000219   |   0.0 | 74.05
Neigh   | 0          | 0          | 0          |   0.0 |  0.00
Comm    | 2e-05      | 3.1375e-05 | 5.4e-05    |   0.0 | 11.31
Output  | 1.5e-05    | 3.2375e-05 | 5.8e-05    |   0.0 | 11.67
Modify  | 0          | 0          | 0          |   0.0 |  0.00
Other   |            | 8.25e-06   |            |       |  2.97

Nlocal:           0.25 ave           2 max           0 min
Histogram: 7 0 0 0 0 0 0 0 0 1
Nghost:         431.75 ave         432 max         430 min
Histogram: 1 0 0 0 0 0 0 0 0 7
Neighs:             17 ave         136 max           0 min
Histogram: 7 0 0 0 0 0 0 0 0 1
FullNghs:           34 ave         272 max           0 min
Histogram: 7 0 0 0 0 0 0 0 0 1

Total # of neighbors = 272
Ave neighs/atom = 136
Neighbor list builds = 0
Dangerous builds = 0
variable  natoms equal "count(all)"
variable xlength equal "lx"
variable  volume equal "vol"
variable  etotal equal "etotal"
variable    ecoh equal "pe/v_natoms"
print "${xlength}, ${volume}, ${etotal}, ${ecoh}" append lattice_cohesive_energy.txt screen no

next i
jump SELF loop

change_box all x scale 1.0025 y scale 1.0025 z scale 1.0025 remap
Changing box ...
  orthogonal box = (-0.00073937735 0.0029407707 0.0029407707) to (2.9507394 2.9470592 2.9470592)
  orthogonal box = (-0.00073937735 -0.00073937735 0.0029407707) to (2.9507394 2.9507394 2.9470592)
  orthogonal box = (-0.00073937735 -0.00073937735 -0.00073937735) to (2.9507394 2.9507394 2.9507394)

run 1
WARNING: No fixes with time integration, atoms won't move (src/verlet.cpp:60)
WARNING: Proc sub-domain size < neighbor skin, could lead to lost atoms (src/domain.cpp:966)
Per MPI rank memory allocation (min/avg/max) = 8.618 | 8.619 | 8.621 Mbytes
   Step         PotEng         TotEng           Lx             Ly             Lz           Volume         Press           Pxx            Pyy            Pzz      
        29  -12.32314      -12.32314       2.9514788      2.9514788      2.9514788      25.711001     -4774.2772     -4774.2772     -4774.2772     -4774.2772    
        30  -12.32314      -12.32314       2.9514788      2.9514788      2.9514788      25.711001     -4774.2772     -4774.2772     -4774.2772     -4774.2772    
Loop time of 0.0003905 on 8 procs for 1 steps with 2 atoms

Performance: 221.255 ns/day, 0.108 hours/ns, 2560.819 timesteps/s, 5.122 katom-step/s
0.0% CPU use with 8 MPI tasks x 1 OpenMP threads

MPI task timing breakdown:
Section |  min time  |  avg time  |  max time  |%varavg| %total
---------------------------------------------------------------
Pair    | 0.000275   | 0.00030088 | 0.000328   |   0.0 | 77.05
Neigh   | 0          | 0          | 0          |   0.0 |  0.00
Comm    | 2e-05      | 3.4375e-05 | 7.6e-05    |   0.0 |  8.80
Output  | 1.7e-05    | 4.4e-05    | 8.3e-05    |   0.0 | 11.27
Modify  | 0          | 3.75e-07   | 1e-06      |   0.0 |  0.10
Other   |            | 1.087e-05  |            |       |  2.78

Nlocal:           0.25 ave           2 max           0 min
Histogram: 7 0 0 0 0 0 0 0 0 1
Nghost:         431.75 ave         432 max         430 min
Histogram: 1 0 0 0 0 0 0 0 0 7
Neighs:             17 ave         136 max           0 min
Histogram: 7 0 0 0 0 0 0 0 0 1
FullNghs:           34 ave         272 max           0 min
Histogram: 7 0 0 0 0 0 0 0 0 1

Total # of neighbors = 272
Ave neighs/atom = 136
Neighbor list builds = 0
Dangerous builds = 0
variable  natoms equal "count(all)"
variable xlength equal "lx"
variable  volume equal "vol"
variable  etotal equal "etotal"
variable    ecoh equal "pe/v_natoms"
print "${xlength}, ${volume}, ${etotal}, ${ecoh}" append lattice_cohesive_energy.txt screen no

next i
jump SELF loop

change_box all x scale 1.0025 y scale 1.0025 z scale 1.0025 remap
Changing box ...
  orthogonal box = (-0.0044287258 -0.00073937735 -0.00073937735) to (2.9544287 2.9507394 2.9507394)
  orthogonal box = (-0.0044287258 -0.0044287258 -0.00073937735) to (2.9544287 2.9544287 2.9507394)
  orthogonal box = (-0.0044287258 -0.0044287258 -0.0044287258) to (2.9544287 2.9544287 2.9544287)

run 1
WARNING: No fixes with time integration, atoms won't move (src/verlet.cpp:60)
WARNING: Proc sub-domain size < neighbor skin, could lead to lost atoms (src/domain.cpp:966)
Per MPI rank memory allocation (min/avg/max) = 8.618 | 8.619 | 8.621 Mbytes
   Step         PotEng         TotEng           Lx             Ly             Lz           Volume         Press           Pxx            Pyy            Pzz      
        30  -12.321268     -12.321268      2.9588575      2.9588575      2.9588575      25.904316     -26098.926     -26098.926     -26098.926     -26098.926    
        31  -12.321268     -12.321268      2.9588575      2.9588575      2.9588575      25.904316     -26098.926     -26098.926     -26098.926     -26098.926    
Loop time of 0.000404875 on 8 procs for 1 steps with 2 atoms

Performance: 213.399 ns/day, 0.112 hours/ns, 2469.898 timesteps/s, 4.940 katom-step/s
0.0% CPU use with 8 MPI tasks x 1 OpenMP threads

MPI task timing breakdown:
Section |  min time  |  avg time  |  max time  |%varavg| %total
---------------------------------------------------------------
Pair    | 0.000229   | 0.0002685  | 0.00034    |   0.0 | 66.32
Neigh   | 0          | 0          | 0          |   0.0 |  0.00
Comm    | 2.1e-05    | 5.1375e-05 | 0.000141   |   0.0 | 12.69
Output  | 1.6e-05    | 7.5125e-05 | 0.000143   |   0.0 | 18.56
Modify  | 0          | 1.25e-07   | 1e-06      |   0.0 |  0.03
Other   |            | 9.75e-06   |            |       |  2.41

Nlocal:           0.25 ave           2 max           0 min
Histogram: 7 0 0 0 0 0 0 0 0 1
Nghost:         431.75 ave         432 max         430 min
Histogram: 1 0 0 0 0 0 0 0 0 7
Neighs:             17 ave         136 max           0 min
Histogram: 7 0 0 0 0 0 0 0 0 1
FullNghs:           34 ave         272 max           0 min
Histogram: 7 0 0 0 0 0 0 0 0 1

Total # of neighbors = 272
Ave neighs/atom = 136
Neighbor list builds = 0
Dangerous builds = 0
variable  natoms equal "count(all)"
variable xlength equal "lx"
variable  volume equal "vol"
variable  etotal equal "etotal"
variable    ecoh equal "pe/v_natoms"
print "${xlength}, ${volume}, ${etotal}, ${ecoh}" append lattice_cohesive_energy.txt screen no

next i
jump SELF loop

change_box all x scale 1.0025 y scale 1.0025 z scale 1.0025 remap
Changing box ...
  orthogonal box = (-0.0081272976 -0.0044287258 -0.0044287258) to (2.9581273 2.9544287 2.9544287)
  orthogonal box = (-0.0081272976 -0.0081272976 -0.0044287258) to (2.9581273 2.9581273 2.9544287)
  orthogonal box = (-0.0081272976 -0.0081272976 -0.0081272976) to (2.9581273 2.9581273 2.9581273)

run 1
WARNING: No fixes with time integration, atoms won't move (src/verlet.cpp:60)
WARNING: Proc sub-domain size < neighbor skin, could lead to lost atoms (src/domain.cpp:966)
Per MPI rank memory allocation (min/avg/max) = 8.618 | 8.619 | 8.621 Mbytes
   Step         PotEng         TotEng           Lx             Ly             Lz           Volume         Press           Pxx            Pyy            Pzz      
        31  -12.316837     -12.316837      2.9662546      2.9662546      2.9662546      26.099084     -46643.782     -46643.782     -46643.782     -46643.782    
        32  -12.316837     -12.316837      2.9662546      2.9662546      2.9662546      26.099084     -46643.782     -46643.782     -46643.782     -46643.782    
Loop time of 0.000324 on 8 procs for 1 steps with 2 atoms

Performance: 266.667 ns/day, 0.090 hours/ns, 3086.420 timesteps/s, 6.173 katom-step/s
0.0% CPU use with 8 MPI tasks x 1 OpenMP threads

MPI task timing breakdown:
Section |  min time  |  avg time  |  max time  |%varavg| %total
---------------------------------------------------------------
Pair    | 0.000211   | 0.00023237 | 0.000263   |   0.0 | 71.72
Neigh   | 0          | 0          | 0          |   0.0 |  0.00
Comm    | 1.9e-05    | 3.725e-05  | 8e-05      |   0.0 | 11.50
Output  | 1.5e-05    | 4.5375e-05 | 8.3e-05    |   0.0 | 14.00
Modify  | 0          | 1.25e-07   | 1e-06      |   0.0 |  0.04
Other   |            | 8.875e-06  |            |       |  2.74

Nlocal:           0.25 ave           2 max           0 min
Histogram: 7 0 0 0 0 0 0 0 0 1
Nghost:         431.75 ave         432 max         430 min
Histogram: 1 0 0 0 0 0 0 0 0 7
Neighs:             17 ave         136 max           0 min
Histogram: 7 0 0 0 0 0 0 0 0 1
FullNghs:           34 ave         272 max           0 min
Histogram: 7 0 0 0 0 0 0 0 0 1

Total # of neighbors = 272
Ave neighs/atom = 136
Neighbor list builds = 0
Dangerous builds = 0
variable  natoms equal "count(all)"
variable xlength equal "lx"
variable  volume equal "vol"
variable  etotal equal "etotal"
variable    ecoh equal "pe/v_natoms"
print "${xlength}, ${volume}, ${etotal}, ${ecoh}" append lattice_cohesive_energy.txt screen no

next i
jump SELF loop

change_box all x scale 1.0025 y scale 1.0025 z scale 1.0025 remap
Changing box ...
  orthogonal box = (-0.011835116 -0.0081272976 -0.0081272976) to (2.9618351 2.9581273 2.9581273)
  orthogonal box = (-0.011835116 -0.011835116 -0.0081272976) to (2.9618351 2.9618351 2.9581273)
  orthogonal box = (-0.011835116 -0.011835116 -0.011835116) to (2.9618351 2.9618351 2.9618351)

run 1
WARNING: No fixes with time integration, atoms won't move (src/verlet.cpp:60)
WARNING: Proc sub-domain size < neighbor skin, could lead to lost atoms (src/domain.cpp:966)
Per MPI rank memory allocation (min/avg/max) = 8.618 | 8.619 | 8.621 Mbytes
   Step         PotEng         TotEng           Lx             Ly             Lz           Volume         Press           Pxx            Pyy            Pzz      
        32  -12.309903     -12.309903      2.9736702      2.9736702      2.9736702      26.295317     -66427.963     -66427.963     -66427.963     -66427.963    
        33  -12.309903     -12.309903      2.9736702      2.9736702      2.9736702      26.295317     -66427.963     -66427.963     -66427.963     -66427.963    
Loop time of 0.00032275 on 8 procs for 1 steps with 2 atoms

Performance: 267.699 ns/day, 0.090 hours/ns, 3098.373 timesteps/s, 6.197 katom-step/s
0.0% CPU use with 8 MPI tasks x 1 OpenMP threads

MPI task timing breakdown:
Section |  min time  |  avg time  |  max time  |%varavg| %total
---------------------------------------------------------------
[...]
Histogram: 7 0 0 0 0 0 0 0 0 1
FullNghs:           28 ave         224 max           0 min
Histogram: 7 0 0 0 0 0 0 0 0 1

Total # of neighbors = 224
Ave neighs/atom = 112
Neighbor list builds = 0
Dangerous builds = 0
variable  natoms equal "count(all)"
variable xlength equal "lx"
variable  volume equal "vol"
variable  etotal equal "etotal"
variable    ecoh equal "pe/v_natoms"
print "${xlength}, ${volume}, ${etotal}, ${ecoh}" append lattice_cohesive_energy.txt screen no

next i
jump SELF loop

change_box all x scale 1.0025 y scale 1.0025 z scale 1.0025 remap
Changing box ...
  orthogonal box = (-0.068577818 -0.064728497 -0.064728497) to (3.0185778 3.0147285 3.0147285)
  orthogonal box = (-0.068577818 -0.068577818 -0.064728497) to (3.0185778 3.0185778 3.0147285)
  orthogonal box = (-0.068577818 -0.068577818 -0.068577818) to (3.0185778 3.0185778 3.0185778)

run 1
WARNING: No fixes with time integration, atoms won't move (src/verlet.cpp:60)
WARNING: Proc sub-domain size < neighbor skin, could lead to lost atoms (src/domain.cpp:966)
Per MPI rank memory allocation (min/avg/max) = 8.595 | 8.595 | 8.597 Mbytes
   Step         PotEng         TotEng           Lx             Ly             Lz           Volume         Press           Pxx            Pyy            Pzz      
        47  -11.941675     -11.941675      3.0871556      3.0871556      3.0871556      29.422229     -283843.37     -283843.37     -283843.37     -283843.37    
        48  -11.941675     -11.941675      3.0871556      3.0871556      3.0871556      29.422229     -283843.37     -283843.37     -283843.37     -283843.37    
Loop time of 0.00019375 on 8 procs for 1 steps with 2 atoms

Performance: 445.935 ns/day, 0.054 hours/ns, 5161.290 timesteps/s, 10.323 katom-step/s
0.0% CPU use with 8 MPI tasks x 1 OpenMP threads

MPI task timing breakdown:
Section |  min time  |  avg time  |  max time  |%varavg| %total
---------------------------------------------------------------
Pair    | 0.000131   | 0.0001365  | 0.000148   |   0.0 | 70.45
Neigh   | 0          | 0          | 0          |   0.0 |  0.00
Comm    | 1.5e-05    | 2.2875e-05 | 4e-05      |   0.0 | 11.81
Output  | 1.4e-05    | 2.6125e-05 | 3.9e-05    |   0.0 | 13.48
Modify  | 0          | 1.25e-07   | 1e-06      |   0.0 |  0.06
Other   |            | 8.125e-06  |            |       |  4.19

Nlocal:           0.25 ave           2 max           0 min
Histogram: 7 0 0 0 0 0 0 0 0 1
Nghost:         249.75 ave         250 max         248 min
Histogram: 1 0 0 0 0 0 0 0 0 7
Neighs:             14 ave         112 max           0 min
Histogram: 7 0 0 0 0 0 0 0 0 1
FullNghs:           28 ave         224 max           0 min
Histogram: 7 0 0 0 0 0 0 0 0 1

Total # of neighbors = 224
Ave neighs/atom = 112
Neighbor list builds = 0
Dangerous builds = 0
variable  natoms equal "count(all)"
variable xlength equal "lx"
variable  volume equal "vol"
variable  etotal equal "etotal"
variable    ecoh equal "pe/v_natoms"
print "${xlength}, ${volume}, ${etotal}, ${ecoh}" append lattice_cohesive_energy.txt screen no

next i
jump SELF loop

change_box all x scale 1.0025 y scale 1.0025 z scale 1.0025 remap
Changing box ...
  orthogonal box = (-0.072436763 -0.068577818 -0.068577818) to (3.0224368 3.0185778 3.0185778)
  orthogonal box = (-0.072436763 -0.072436763 -0.068577818) to (3.0224368 3.0224368 3.0185778)
  orthogonal box = (-0.072436763 -0.072436763 -0.072436763) to (3.0224368 3.0224368 3.0224368)

run 1
WARNING: No fixes with time integration, atoms won't move (src/verlet.cpp:60)
WARNING: Proc sub-domain size < neighbor skin, could lead to lost atoms (src/domain.cpp:966)
Per MPI rank memory allocation (min/avg/max) = 8.595 | 8.595 | 8.597 Mbytes
   Step         PotEng         TotEng           Lx             Ly             Lz           Volume         Press           Pxx            Pyy            Pzz      
        48  -11.901791     -11.901791      3.0948735      3.0948735      3.0948735      29.643448     -293776.37     -293776.37     -293776.37     -293776.37    
        49  -11.901791     -11.901791      3.0948735      3.0948735      3.0948735      29.643448     -293776.37     -293776.37     -293776.37     -293776.37    
Loop time of 0.00019275 on 8 procs for 1 steps with 2 atoms

Performance: 448.249 ns/day, 0.054 hours/ns, 5188.067 timesteps/s, 10.376 katom-step/s
0.0% CPU use with 8 MPI tasks x 1 OpenMP threads

MPI task timing breakdown:
Section |  min time  |  avg time  |  max time  |%varavg| %total
---------------------------------------------------------------
Pair    | 0.00013    | 0.00013575 | 0.000148   |   0.0 | 70.43
Neigh   | 0          | 0          | 0          |   0.0 |  0.00
Comm    | 1.5e-05    | 2.3375e-05 | 4e-05      |   0.0 | 12.13
Output  | 1.4e-05    | 2.625e-05  | 3.9e-05    |   0.0 | 13.62
Modify  | 0          | 0          | 0          |   0.0 |  0.00
Other   |            | 7.375e-06  |            |       |  3.83

Nlocal:           0.25 ave           2 max           0 min
Histogram: 7 0 0 0 0 0 0 0 0 1
Nghost:         249.75 ave         250 max         248 min
Histogram: 1 0 0 0 0 0 0 0 0 7
Neighs:             14 ave         112 max           0 min
Histogram: 7 0 0 0 0 0 0 0 0 1
FullNghs:           28 ave         224 max           0 min
Histogram: 7 0 0 0 0 0 0 0 0 1

Total # of neighbors = 224
Ave neighs/atom = 112
Neighbor list builds = 0
Dangerous builds = 0
variable  natoms equal "count(all)"
variable xlength equal "lx"
variable  volume equal "vol"
variable  etotal equal "etotal"
variable    ecoh equal "pe/v_natoms"
print "${xlength}, ${volume}, ${etotal}, ${ecoh}" append lattice_cohesive_energy.txt screen no

next i
jump SELF loop

change_box all x scale 1.0025 y scale 1.0025 z scale 1.0025 remap
Changing box ...
  orthogonal box = (-0.076305355 -0.072436763 -0.072436763) to (3.0263054 3.0224368 3.0224368)
  orthogonal box = (-0.076305355 -0.076305355 -0.072436763) to (3.0263054 3.0263054 3.0224368)
  orthogonal box = (-0.076305355 -0.076305355 -0.076305355) to (3.0263054 3.0263054 3.0263054)

run 1
WARNING: No fixes with time integration, atoms won't move (src/verlet.cpp:60)
WARNING: Proc sub-domain size < neighbor skin, could lead to lost atoms (src/domain.cpp:966)
Per MPI rank memory allocation (min/avg/max) = 8.595 | 8.595 | 8.597 Mbytes
   Step         PotEng         TotEng           Lx             Ly             Lz           Volume         Press           Pxx            Pyy            Pzz      
        49  -11.86026      -11.86026       3.1026107      3.1026107      3.1026107      29.86633      -303222.35     -303222.35     -303222.35     -303222.35    
        50  -11.86026      -11.86026       3.1026107      3.1026107      3.1026107      29.86633      -303222.35     -303222.35     -303222.35     -303222.35    
Loop time of 0.000191875 on 8 procs for 1 steps with 2 atoms

Performance: 450.293 ns/day, 0.053 hours/ns, 5211.726 timesteps/s, 10.423 katom-step/s
0.0% CPU use with 8 MPI tasks x 1 OpenMP threads

MPI task timing breakdown:
Section |  min time  |  avg time  |  max time  |%varavg| %total
---------------------------------------------------------------
Pair    | 0.00013    | 0.00013562 | 0.000147   |   0.0 | 70.68
Neigh   | 0          | 0          | 0          |   0.0 |  0.00
Comm    | 1.4e-05    | 2.25e-05   | 3.8e-05    |   0.0 | 11.73
Output  | 1.4e-05    | 2.5875e-05 | 3.8e-05    |   0.0 | 13.49
Modify  | 0          | 2.5e-07    | 2e-06      |   0.0 |  0.13
Other   |            | 7.625e-06  |            |       |  3.97

Nlocal:           0.25 ave           2 max           0 min
Histogram: 7 0 0 0 0 0 0 0 0 1
Nghost:         249.75 ave         250 max         248 min
Histogram: 1 0 0 0 0 0 0 0 0 7
Neighs:             14 ave         112 max           0 min
Histogram: 7 0 0 0 0 0 0 0 0 1
FullNghs:           28 ave         224 max           0 min
Histogram: 7 0 0 0 0 0 0 0 0 1

Total # of neighbors = 224
Ave neighs/atom = 112
Neighbor list builds = 0
Dangerous builds = 0
variable  natoms equal "count(all)"
variable xlength equal "lx"
variable  volume equal "vol"
variable  etotal equal "etotal"
variable    ecoh equal "pe/v_natoms"
print "${xlength}, ${volume}, ${etotal}, ${ecoh}" append lattice_cohesive_energy.txt screen no

next i
jump SELF loop

change_box all x scale 1.0025 y scale 1.0025 z scale 1.0025 remap
Changing box ...
  orthogonal box = (-0.080183618 -0.076305355 -0.076305355) to (3.0301836 3.0263054 3.0263054)
  orthogonal box = (-0.080183618 -0.080183618 -0.076305355) to (3.0301836 3.0301836 3.0263054)
  orthogonal box = (-0.080183618 -0.080183618 -0.080183618) to (3.0301836 3.0301836 3.0301836)

run 1
WARNING: No fixes with time integration, atoms won't move (src/verlet.cpp:60)
WARNING: Proc sub-domain size < neighbor skin, could lead to lost atoms (src/domain.cpp:966)
Per MPI rank memory allocation (min/avg/max) = 8.595 | 8.595 | 8.597 Mbytes
   Step         PotEng         TotEng           Lx             Ly             Lz           Volume         Press           Pxx            Pyy            Pzz      
        50  -11.817126     -11.817126      3.1103672      3.1103672      3.1103672      30.090888     -312194.69     -312194.69     -312194.69     -312194.69    
        51  -11.817126     -11.817126      3.1103672      3.1103672      3.1103672      30.090888     -312194.69     -312194.69     -312194.69     -312194.69    
Loop time of 0.0002225 on 8 procs for 1 steps with 2 atoms

Performance: 388.315 ns/day, 0.062 hours/ns, 4494.382 timesteps/s, 8.989 katom-step/s
0.0% CPU use with 8 MPI tasks x 1 OpenMP threads

MPI task timing breakdown:
Section |  min time  |  avg time  |  max time  |%varavg| %total
---------------------------------------------------------------
Pair    | 0.000134   | 0.00013912 | 0.000151   |   0.0 | 62.53
Neigh   | 0          | 0          | 0          |   0.0 |  0.00
Comm    | 1.5e-05    | 2.3625e-05 | 4.2e-05    |   0.0 | 10.62
Output  | 3e-05      | 4.575e-05  | 5.9e-05    |   0.0 | 20.56
Modify  | 0          | 3.75e-07   | 2e-06      |   0.0 |  0.17
Other   |            | 1.363e-05  |            |       |  6.12

Nlocal:           0.25 ave           2 max           0 min
Histogram: 7 0 0 0 0 0 0 0 0 1
Nghost:         249.75 ave         250 max         248 min
Histogram: 1 0 0 0 0 0 0 0 0 7
Neighs:             14 ave         112 max           0 min
Histogram: 7 0 0 0 0 0 0 0 0 1
FullNghs:           28 ave         224 max           0 min
Histogram: 7 0 0 0 0 0 0 0 0 1

Total # of neighbors = 224
Ave neighs/atom = 112
Neighbor list builds = 0
Dangerous builds = 0
variable  natoms equal "count(all)"
variable xlength equal "lx"
variable  volume equal "vol"
variable  etotal equal "etotal"
variable    ecoh equal "pe/v_natoms"
print "${xlength}, ${volume}, ${etotal}, ${ecoh}" append lattice_cohesive_energy.txt screen no

next i
jump SELF loop

change_box all x scale 1.0025 y scale 1.0025 z scale 1.0025 remap
Changing box ...
  orthogonal box = (-0.084071577 -0.080183618 -0.080183618) to (3.0340716 3.0301836 3.0301836)
  orthogonal box = (-0.084071577 -0.084071577 -0.080183618) to (3.0340716 3.0340716 3.0301836)
  orthogonal box = (-0.084071577 -0.084071577 -0.084071577) to (3.0340716 3.0340716 3.0340716)

run 1
WARNING: No fixes with time integration, atoms won't move (src/verlet.cpp:60)
WARNING: Proc sub-domain size < neighbor skin, could lead to lost atoms (src/domain.cpp:966)
Per MPI rank memory allocation (min/avg/max) = 8.595 | 8.595 | 8.597 Mbytes
   Step         PotEng         TotEng           Lx             Ly             Lz           Volume         Press           Pxx            Pyy            Pzz      
        51  -11.772433     -11.772433      3.1181432      3.1181432      3.1181432      30.317134     -320706.47     -320706.47     -320706.47     -320706.47    
        52  -11.772433     -11.772433      3.1181432      3.1181432      3.1181432      30.317134     -320706.47     -320706.47     -320706.47     -320706.47    
Loop time of 0.000212375 on 8 procs for 1 steps with 2 atoms

Performance: 406.828 ns/day, 0.059 hours/ns, 4708.652 timesteps/s, 9.417 katom-step/s
0.0% CPU use with 8 MPI tasks x 1 OpenMP threads

MPI task timing breakdown:
Section |  min time  |  avg time  |  max time  |%varavg| %total
---------------------------------------------------------------
Pair    | 0.000144   | 0.00015313 | 0.000164   |   0.0 | 72.10
Neigh   | 0          | 0          | 0          |   0.0 |  0.00
Comm    | 1.6e-05    | 2.6125e-05 | 4.5e-05    |   0.0 | 12.30
Output  | 1.5e-05    | 2.6125e-05 | 4.4e-05    |   0.0 | 12.30
Modify  | 0          | 0          | 0          |   0.0 |  0.00
Other   |            | 7e-06      |            |       |  3.30

Nlocal:           0.25 ave           2 max           0 min
Histogram: 7 0 0 0 0 0 0 0 0 1
Nghost:         249.75 ave         250 max         248 min
Histogram: 1 0 0 0 0 0 0 0 0 7
Neighs:             14 ave         112 max           0 min
Histogram: 7 0 0 0 0 0 0 0 0 1
FullNghs:           28 ave         224 max           0 min
Histogram: 7 0 0 0 0 0 0 0 0 1

Total # of neighbors = 224
Ave neighs/atom = 112
Neighbor list builds = 0
Dangerous builds = 0
variable  natoms equal "count(all)"
variable xlength equal "lx"
variable  volume equal "vol"
variable  etotal equal "etotal"
variable    ecoh equal "pe/v_natoms"
print "${xlength}, ${volume}, ${etotal}, ${ecoh}" append lattice_cohesive_energy.txt screen no

next i
jump SELF loop

change_box all x scale 1.0025 y scale 1.0025 z scale 1.0025 remap
Changing box ...
  orthogonal box = (-0.087969256 -0.084071577 -0.084071577) to (3.0379693 3.0340716 3.0340716)
  orthogonal box = (-0.087969256 -0.087969256 -0.084071577) to (3.0379693 3.0379693 3.0340716)
  orthogonal box = (-0.087969256 -0.087969256 -0.087969256) to (3.0379693 3.0379693 3.0379693)

run 1
WARNING: No fixes with time integration, atoms won't move (src/verlet.cpp:60)
WARNING: Proc sub-domain size < neighbor skin, could lead to lost atoms (src/domain.cpp:966)
Per MPI rank memory allocation (min/avg/max) = 8.595 | 8.595 | 8.597 Mbytes
   Step         PotEng         TotEng           Lx             Ly             Lz           Volume         Press           Pxx            Pyy            Pzz      
        52  -11.726226     -11.726226      3.1259385      3.1259385      3.1259385      30.545082     -328770.5      -328770.5      -328770.5      -328770.5     
        53  -11.726226     -11.726226      3.1259385      3.1259385      3.1259385      30.545082     -328770.5      -328770.5      -328770.5      -328770.5     
Loop time of 0.000203 on 8 procs for 1 steps with 2 atoms

Performance: 425.616 ns/day, 0.056 hours/ns, 4926.108 timesteps/s, 9.852 katom-step/s
0.0% CPU use with 8 MPI tasks x 1 OpenMP threads

MPI task timing breakdown:
Section |  min time  |  avg time  |  max time  |%varavg| %total
---------------------------------------------------------------
Pair    | 0.000136   | 0.00014562 | 0.000156   |   0.0 | 71.74
Neigh   | 0          | 0          | 0          |   0.0 |  0.00
Comm    | 1.5e-05    | 2.4875e-05 | 4.4e-05    |   0.0 | 12.25
Output  | 1.5e-05    | 2.5625e-05 | 4.3e-05    |   0.0 | 12.62
Modify  | 0          | 0          | 0          |   0.0 |  0.00
Other   |            | 6.875e-06  |            |       |  3.39

Nlocal:           0.25 ave           2 max           0 min
Histogram: 7 0 0 0 0 0 0 0 0 1
Nghost:         249.75 ave         250 max         248 min
Histogram: 1 0 0 0 0 0 0 0 0 7
Neighs:             14 ave         112 max           0 min
Histogram: 7 0 0 0 0 0 0 0 0 1
FullNghs:           28 ave         224 max           0 min
Histogram: 7 0 0 0 0 0 0 0 0 1

Total # of neighbors = 224
Ave neighs/atom = 112
Neighbor list builds = 0
Dangerous builds = 0
variable  natoms equal "count(all)"
variable xlength equal "lx"
variable  volume equal "vol"
variable  etotal equal "etotal"
variable    ecoh equal "pe/v_natoms"
print "${xlength}, ${volume}, ${etotal}, ${ecoh}" append lattice_cohesive_energy.txt screen no

next i
jump SELF loop

change_box all x scale 1.0025 y scale 1.0025 z scale 1.0025 remap
Changing box ...
  orthogonal box = (-0.091876679 -0.087969256 -0.087969256) to (3.0418767 3.0379693 3.0379693)
  orthogonal box = (-0.091876679 -0.091876679 -0.087969256) to (3.0418767 3.0418767 3.0379693)
  orthogonal box = (-0.091876679 -0.091876679 -0.091876679) to (3.0418767 3.0418767 3.0418767)

run 1
Per MPI rank memory allocation (min/avg/max) = 8.595 | 8.595 | 8.597 Mbytes
   Step         PotEng         TotEng           Lx             Ly             Lz           Volume         Press           Pxx            Pyy            Pzz      
WARNING: Too many warnings: 102 vs 100. All future warnings will be suppressed (src/thermo.cpp:466)
        53  -11.678546     -11.678546      3.1337534      3.1337534      3.1337534      30.774743     -336399.31     -336399.31     -336399.31     -336399.31    
        54  -11.678546     -11.678546      3.1337534      3.1337534      3.1337534      30.774743     -336399.31     -336399.31     -336399.31     -336399.31    
Loop time of 0.000203 on 8 procs for 1 steps with 2 atoms

Performance: 425.616 ns/day, 0.056 hours/ns, 4926.108 timesteps/s, 9.852 katom-step/s
0.0% CPU use with 8 MPI tasks x 1 OpenMP threads

MPI task timing breakdown:
Section |  min time  |  avg time  |  max time  |%varavg| %total
---------------------------------------------------------------
Pair    | 0.000136   | 0.00014537 | 0.000156   |   0.0 | 71.61
Neigh   | 0          | 0          | 0          |   0.0 |  0.00
Comm    | 1.6e-05    | 2.5125e-05 | 4.4e-05    |   0.0 | 12.38
Output  | 1.5e-05    | 2.5625e-05 | 4.3e-05    |   0.0 | 12.62
Modify  | 0          | 1.25e-07   | 1e-06      |   0.0 |  0.06
Other   |            | 6.75e-06   |            |       |  3.33

Nlocal:           0.25 ave           2 max           0 min
Histogram: 7 0 0 0 0 0 0 0 0 1
Nghost:         249.75 ave         250 max         248 min
Histogram: 1 0 0 0 0 0 0 0 0 7
Neighs:             14 ave         112 max           0 min
Histogram: 7 0 0 0 0 0 0 0 0 1
FullNghs:           28 ave         224 max           0 min
Histogram: 7 0 0 0 0 0 0 0 0 1

Total # of neighbors = 224
Ave neighs/atom = 112
Neighbor list builds = 0
Dangerous builds = 0
variable  natoms equal "count(all)"
variable xlength equal "lx"
variable  volume equal "vol"
variable  etotal equal "etotal"
variable    ecoh equal "pe/v_natoms"
print "${xlength}, ${volume}, ${etotal}, ${ecoh}" append lattice_cohesive_energy.txt screen no

next i
jump SELF loop

print "-------------------------------------------------------------"
-------------------------------------------------------------
print "Show results of 1st step (Running Minimization)"
Show results of 1st step (Running Minimization)
print "The number of atoms = ${natoms};"
The number of atoms = 2;
print "The lattice constant, x (Angstoms) = ${x0};"
The lattice constant, x (Angstoms) = 3.13375335879285;
print "The lattice constant, y (Angstoms) = ${y0};"
The lattice constant, y (Angstoms) = 3.13375335879285;
print "The lattice constant, z (Angstoms) = ${z0};"
The lattice constant, z (Angstoms) = 3.13375335879285;
print "The volume (Angstoms^3) = ${v0};"
The volume (Angstoms^3) = 30.774743178673;
print "The total energy (eV) = ${etot0};"
The total energy (eV) = -11.6785460754518;
print "The cohesive energy (eV/atom) = ${ecoh0};"
The cohesive energy (eV/atom) = -5.83927303772591;
print "-------------------------------------------------------------"
-------------------------------------------------------------
print "Simulations completed !"
Simulations completed !
Total wall time: 0:00:00
