LAMMPS (22 Dec 2022)
  using 1 OpenMP thread(s) per MPI task
Loaded 1 plugins from C:\Program Files\LAMMPS 64-bit 23Jun2022\plugins
Loaded 0 plugins from C:\Program Files\LAMMPS 64-bit 23Jun2022-MPI\plugins
Loaded 1 plugins from C:\Program Files\LAMMPS 64-bit 22Dec2022-MSMPI\plugins
Loaded 1 plugins from C:\Program Files\LAMMPS 64-bit 28Mar2023-MPI\plugins
#------------------------------------------------------------------------------------------
# LAMMPS 64-bit 22Dec2022-MSMPI
#------------------------------------------------------------------------------------------
clear
  using 1 OpenMP thread(s) per MPI task
Loaded 1 plugins from C:\Program Files\LAMMPS 64-bit 23Jun2022\plugins
Loaded 0 plugins from C:\Program Files\LAMMPS 64-bit 23Jun2022-MPI\plugins
Loaded 1 plugins from C:\Program Files\LAMMPS 64-bit 22Dec2022-MSMPI\plugins
Loaded 1 plugins from C:\Program Files\LAMMPS 64-bit 28Mar2023-MPI\plugins
#echo both
# ---------- Initializing Simulation ---------------------------------
units metal
dimension 3
boundary p p p
atom_style atomic
atom_modify map array

#read_data ./../../NiRe.data
#read_data ./../../Ni3Re.data
read_data ./../../NiRe3.data
Reading data file ...
  triclinic box = (0 0 0) to (5.4273285 4.7002043 4.380445) with tilt (-2.7136642 0 0)
WARNING: Triclinic box skew is large. LAMMPS will run inefficiently. (src/domain.cpp:220)
  2 by 2 by 2 MPI processor grid
  reading atoms ...
  8 atoms
  read_data CPU = 0.001 seconds

replicate 1 1 1
Replication is creating a 1x1x1 = 1 times larger system...
  triclinic box = (0 0 0) to (5.4273285 4.7002043 4.380445) with tilt (-2.7136642 0 0)
WARNING: Triclinic box skew is large. LAMMPS will run inefficiently. (src/domain.cpp:220)
  2 by 2 by 2 MPI processor grid
  8 atoms
  replicate CPU = 0.000 seconds

# ---------- Defining the Interatomic Potential ---------------------
pair_style meam
pair_coeff * * ./../../library.meam Ni Re ./../../NiRe.meam Ni Re

# ---------- Running Minimization -------------------------------------
fix 1 all box/relax iso 0.0 vmax 0.001

thermo 10
thermo_style custom step pe etotal lx ly lz vol press pxx pyy pzz

min_style cg
minimize 1e-25 1e-25 5000 10000
Neighbor list info ...
  update: every = 1 steps, delay = 0 steps, check = yes
  max neighbors/atom: 2000, page size: 100000
  master list distance cutoff = 7.5
  ghost atom cutoff = 7.5
  binsize = 3.75, bins = 3 2 2
  2 neighbor lists, perpetual/occasional/extra = 2 0 0
  (1) pair meam, perpetual
      attributes: full, newton on
      pair build: full/bin/atomonly
      stencil: full/bin/3d
      bin: standard
  (2) pair meam, perpetual, half/full from (1)
      attributes: half, newton on
      pair build: halffull/newton
      stencil: none
      bin: none
Per MPI rank memory allocation (min/avg/max) = 9.67 | 9.67 | 9.67 Mbytes
   Step         PotEng         TotEng           Lx             Ly             Lz           Volume         Press           Pxx            Pyy            Pzz      
         0  -55.904478     -55.904478      5.4273285      4.7002043      4.380445       111.74319     -459293.98     -465130.21     -465130.21     -447621.5     
        10  -56.810821     -56.810821      5.3730552      4.6532023      4.3366405      108.42431     -413607.35     -420743.78     -420743.78     -399334.49    
        20  -57.594141     -57.594141      5.3187819      4.6062002      4.2928361      105.1718      -355547.25     -364071.01     -364071.01     -338499.73    
        30  -58.232338     -58.232338      5.2645086      4.5591982      4.2490316      101.985       -283108.62     -293091.95     -293091.95     -263141.98    
        40  -58.700735     -58.700735      5.2102353      4.5121962      4.2052272      98.863226     -194000.47     -205493.89     -205493.89     -171013.63    
        50  -58.971965     -58.971965      5.155962       4.4651941      4.1614227      95.80582      -85613.083     -98633.708     -98633.709     -59571.833    
        60  -59.064352     -59.064352      5.1233981      4.4369929      4.1351401      94.001993     -10322.421     -22625.316     -22625.319      14283.372    
        70  -59.066569     -59.066569      5.1194611      4.4335834      4.1319625      93.785458      0.00061019741 -11873.105     -11873.105      23746.212    
        73  -59.066569     -59.066569      5.1194611      4.4335834      4.1319625      93.785458     -6.2644654e-07 -11873.105     -11873.105      23746.211    
Loop time of 0.0130794 on 8 procs for 73 steps with 8 atoms

14.9% CPU use with 8 MPI tasks x 1 OpenMP threads

Minimization stats:
  Stopping criterion = energy tolerance
  Energy initial, next-to-last, final = 
     -55.9044778621294  -59.0665689036068  -59.0665689036068
  Force two-norm initial, final = 96.104354 1.3732559e-10
  Force max component initial, final = 96.099853 1.1662517e-10
  Final line search alpha, max atom move = 1 1.1662517e-10
  Iterations, force evaluations = 73 85

MPI task timing breakdown:
Section |  min time  |  avg time  |  max time  |%varavg| %total
---------------------------------------------------------------
Pair    | 0.007676   | 0.0077927  | 0.007976   |   0.1 | 59.58
Neigh   | 0          | 0          | 0          |   0.0 |  0.00
Comm    | 0.001567   | 0.0017493  | 0.001856   |   0.3 | 13.37
Output  | 7.8e-05    | 8.75e-05   | 0.000141   |   0.0 |  0.67
Modify  | 0          | 0          | 0          |   0.0 |  0.00
Other   |            | 0.00345    |            |       | 26.38

Nlocal:              1 ave           1 max           1 min
Histogram: 8 0 0 0 0 0 0 0 0 0
Nghost:            342 ave         342 max         342 min
Histogram: 8 0 0 0 0 0 0 0 0 0
Neighs:             67 ave          68 max          66 min
Histogram: 2 0 0 0 0 4 0 0 0 2
FullNghs:          134 ave         134 max         134 min
Histogram: 8 0 0 0 0 0 0 0 0 0

Total # of neighbors = 1072
Ave neighs/atom = 134
Neighbor list builds = 0
Dangerous builds = 0

variable  natoms equal "count(all)"
variable      x0 equal "lx"
variable      y0 equal "ly"
variable      z0 equal "lz"
variable      v0 equal "vol"
variable   etot0 equal "etotal"
variable   ecoh0 equal "pe/v_natoms"

unfix 1
write_data ./../step2_elastic/data.in
System init for write_data ...

# ---------- For Equation of States -------------------------------------
change_box all x scale 0.94 y scale 0.94 z scale 0.94 remap
Changing box ...
WARNING: Triclinic box skew is large. LAMMPS will run inefficiently. (src/domain.cpp:220)
  triclinic box = (0.30751751 0.13331048 0.12424124) to (5.119811 4.5668939 4.2562038) with tilt (-2.5597306 0 0)
WARNING: Triclinic box skew is large. LAMMPS will run inefficiently. (src/domain.cpp:220)
  triclinic box = (0.30751751 0.26631798 0.12424124) to (5.119811 4.4338864 4.2562038) with tilt (-2.5597306 0 0)
WARNING: Triclinic box skew is large. LAMMPS will run inefficiently. (src/domain.cpp:220)
  triclinic box = (0.30751751 0.26631798 0.24820011) to (5.119811 4.4338864 4.1322449) with tilt (-2.5597306 0 0)
run 1
WARNING: No fixes with time integration, atoms won't move (src/verlet.cpp:60)
WARNING: Proc sub-domain size < neighbor skin, could lead to lost atoms (src/domain.cpp:966)
Per MPI rank memory allocation (min/avg/max) = 8.547 | 8.547 | 8.548 Mbytes
   Step         PotEng         TotEng           Lx             Ly             Lz           Volume         Press           Pxx            Pyy            Pzz      
        73  -53.670535     -53.670535      4.8122934      4.1675684      3.8840448      77.896701      1292945        1263436.6      1296757.4      1318641.1    
        74  -53.670535     -53.670535      4.8122934      4.1675684      3.8840448      77.896701      1292945        1263436.6      1296757.4      1318641.1    
Loop time of 0.000189 on 8 procs for 1 steps with 8 atoms

Performance: 457.143 ns/day, 0.052 hours/ns, 5291.005 timesteps/s, 42.328 katom-step/s
0.0% CPU use with 8 MPI tasks x 1 OpenMP threads

MPI task timing breakdown:
Section |  min time  |  avg time  |  max time  |%varavg| %total
---------------------------------------------------------------
Pair    | 0.00014    | 0.00014213 | 0.000146   |   0.0 | 75.20
Neigh   | 0          | 0          | 0          |   0.0 |  0.00
Comm    | 2.5e-05    | 2.825e-05  | 3.1e-05    |   0.0 | 14.95
Output  | 1.2e-05    | 1.375e-05  | 1.5e-05    |   0.0 |  7.28
Modify  | 0          | 5e-07      | 2e-06      |   0.0 |  0.26
Other   |            | 4.375e-06  |            |       |  2.31

Nlocal:              1 ave           1 max           1 min
Histogram: 8 0 0 0 0 0 0 0 0 0
Nghost:            593 ave         595 max         591 min
Histogram: 4 0 0 0 0 0 0 0 0 4
Neighs:           87.5 ave         103 max          80 min
Histogram: 2 0 3 2 0 0 0 0 0 1
FullNghs:          175 ave         176 max         174 min
Histogram: 4 0 0 0 0 0 0 0 0 4

Total # of neighbors = 1400
Ave neighs/atom = 175
Neighbor list builds = 0
Dangerous builds = 0
print "# Lattice constant (Angstroms), Volume (Angstrom), Total energy (eV), Cohesive energy (eV/atom)" file lattice_cohesive_energy.txt screen no


# Loop over lattice constants
variable i loop 49 # Number of steps
label loop

change_box all x scale 1.0025 y scale 1.0025 z scale 1.0025 remap
Changing box ...
WARNING: Triclinic box skew is large. LAMMPS will run inefficiently. (src/domain.cpp:220)
  triclinic box = (0.30150215 0.26631798 0.24820011) to (5.1258263 4.4338864 4.1322449) with tilt (-2.5597306 0 0)
WARNING: Triclinic box skew is large. LAMMPS will run inefficiently. (src/domain.cpp:220)
  triclinic box = (0.30150215 0.26110852 0.24820011) to (5.1258263 4.4390958 4.1322449) with tilt (-2.5597306 0 0)
WARNING: Triclinic box skew is large. LAMMPS will run inefficiently. (src/domain.cpp:220)
  triclinic box = (0.30150215 0.26110852 0.24334506) to (5.1258263 4.4390958 4.1370999) with tilt (-2.5597306 0 0)

run 1
WARNING: No fixes with time integration, atoms won't move (src/verlet.cpp:60)
WARNING: Proc sub-domain size < neighbor skin, could lead to lost atoms (src/domain.cpp:966)
Per MPI rank memory allocation (min/avg/max) = 8.547 | 8.547 | 8.548 Mbytes
   Step         PotEng         TotEng           Lx             Ly             Lz           Volume         Press           Pxx            Pyy            Pzz      
        74  -54.139867     -54.139867      4.8243242      4.1779873      3.8937549      78.482388      1216658.8      1188550.6      1218186.7      1243239.2    
        75  -54.139867     -54.139867      4.8243242      4.1779873      3.8937549      78.482388      1216658.8      1188550.6      1218186.7      1243239.2    
Loop time of 0.00016475 on 8 procs for 1 steps with 8 atoms

Performance: 524.431 ns/day, 0.046 hours/ns, 6069.803 timesteps/s, 48.558 katom-step/s
0.0% CPU use with 8 MPI tasks x 1 OpenMP threads

MPI task timing breakdown:
Section |  min time  |  avg time  |  max time  |%varavg| %total
---------------------------------------------------------------
Pair    | 0.000124   | 0.00012637 | 0.000128   |   0.0 | 76.71
Neigh   | 0          | 0          | 0          |   0.0 |  0.00
Comm    | 2.1e-05    | 2.2625e-05 | 2.5e-05    |   0.0 | 13.73
Output  | 1.1e-05    | 1.1e-05    | 1.1e-05    |   0.0 |  6.68
Modify  | 0          | 1.25e-07   | 1e-06      |   0.0 |  0.08
Other   |            | 4.625e-06  |            |       |  2.81

Nlocal:              1 ave           1 max           1 min
Histogram: 8 0 0 0 0 0 0 0 0 0
Nghost:            575 ave         575 max         575 min
Histogram: 8 0 0 0 0 0 0 0 0 0
Neighs:             86 ave         100 max          79 min
Histogram: 1 3 1 0 2 0 0 0 0 1
FullNghs:          172 ave         174 max         170 min
Histogram: 2 0 0 0 0 4 0 0 0 2

Total # of neighbors = 1376
Ave neighs/atom = 172
Neighbor list builds = 0
Dangerous builds = 0
variable  natoms equal "count(all)"
variable xlength equal "lx"
variable  volume equal "vol"
variable  etotal equal "etotal"
variable    ecoh equal "pe/v_natoms"
print "${xlength}, ${volume}, ${etotal}, ${ecoh}" append lattice_cohesive_energy.txt screen no

next i
jump SELF loop

change_box all x scale 1.0025 y scale 1.0025 z scale 1.0025 remap
Changing box ...
WARNING: Triclinic box skew is large. LAMMPS will run inefficiently. (src/domain.cpp:220)
  triclinic box = (0.29547174 0.26110852 0.24334506) to (5.1318567 4.4390958 4.1370999) with tilt (-2.5597306 0 0)
WARNING: Triclinic box skew is large. LAMMPS will run inefficiently. (src/domain.cpp:220)
  triclinic box = (0.29547174 0.25588603 0.24334506) to (5.1318567 4.4443183 4.1370999) with tilt (-2.5597306 0 0)
WARNING: Triclinic box skew is large. LAMMPS will run inefficiently. (src/domain.cpp:220)
  triclinic box = (0.29547174 0.25588603 0.23847787) to (5.1318567 4.4443183 4.1419671) with tilt (-2.5597306 0 0)

run 1
WARNING: No fixes with time integration, atoms won't move (src/verlet.cpp:60)
WARNING: Proc sub-domain size < neighbor skin, could lead to lost atoms (src/domain.cpp:966)
Per MPI rank memory allocation (min/avg/max) = 8.547 | 8.547 | 8.548 Mbytes
   Step         PotEng         TotEng           Lx             Ly             Lz           Volume         Press           Pxx            Pyy            Pzz      
        75  -54.584311     -54.584311      4.836385       4.1884323      3.9034893      79.072478      1142812.3      1116001        1142281.6      1170154.2    
        76  -54.584311     -54.584311      4.836385       4.1884323      3.9034893      79.072478      1142812.3      1116001        1142281.6      1170154.2    
Loop time of 0.000178875 on 8 procs for 1 steps with 8 atoms

Performance: 483.019 ns/day, 0.050 hours/ns, 5590.496 timesteps/s, 44.724 katom-step/s
0.0% CPU use with 8 MPI tasks x 1 OpenMP threads

MPI task timing breakdown:
Section |  min time  |  avg time  |  max time  |%varavg| %total
---------------------------------------------------------------
Pair    | 0.000135   | 0.00013725 | 0.000142   |   0.0 | 76.73
Neigh   | 0          | 0          | 0          |   0.0 |  0.00
Comm    | 2.1e-05    | 2.575e-05  | 2.8e-05    |   0.0 | 14.40
Output  | 1e-05      | 1.0625e-05 | 1.1e-05    |   0.0 |  5.94
Modify  | 0          | 0          | 0          |   0.0 |  0.00
Other   |            | 5.25e-06   |            |       |  2.94

Nlocal:              1 ave           1 max           1 min
Histogram: 8 0 0 0 0 0 0 0 0 0
Nghost:            575 ave         575 max         575 min
Histogram: 8 0 0 0 0 0 0 0 0 0
Neighs:          85.25 ave          88 max          83 min
Histogram: 3 0 1 0 0 0 0 0 3 1
FullNghs:        170.5 ave         172 max         170 min
Histogram: 6 0 0 0 0 0 0 0 0 2

Total # of neighbors = 1364
Ave neighs/atom = 170.5
Neighbor list builds = 0
Dangerous builds = 0
variable  natoms equal "count(all)"
variable xlength equal "lx"
variable  volume equal "vol"
variable  etotal equal "etotal"
variable    ecoh equal "pe/v_natoms"
print "${xlength}, ${volume}, ${etotal}, ${ecoh}" append lattice_cohesive_energy.txt screen no

next i
jump SELF loop

change_box all x scale 1.0025 y scale 1.0025 z scale 1.0025 remap
Changing box ...
WARNING: Triclinic box skew is large. LAMMPS will run inefficiently. (src/domain.cpp:220)
  triclinic box = (0.28942626 0.25588603 0.23847787) to (5.1379022 4.4443183 4.1419671) with tilt (-2.5597306 0 0)
WARNING: Triclinic box skew is large. LAMMPS will run inefficiently. (src/domain.cpp:220)
  triclinic box = (0.28942626 0.25065049 0.23847787) to (5.1379022 4.4495538 4.1419671) with tilt (-2.5597306 0 0)
WARNING: Triclinic box skew is large. LAMMPS will run inefficiently. (src/domain.cpp:220)
  triclinic box = (0.28942626 0.25065049 0.2335985) to (5.1379022 4.4495538 4.1468465) with tilt (-2.5597306 0 0)

run 1
WARNING: No fixes with time integration, atoms won't move (src/verlet.cpp:60)
WARNING: Proc sub-domain size < neighbor skin, could lead to lost atoms (src/domain.cpp:966)
Per MPI rank memory allocation (min/avg/max) = 8.547 | 8.547 | 8.548 Mbytes
   Step         PotEng         TotEng           Lx             Ly             Lz           Volume         Press           Pxx            Pyy            Pzz      
        76  -55.004395     -55.004395      4.848476       4.1989033      3.913248       79.667006      1071345.1      1045737.5      1068964.7      1099333.1    
        77  -55.004395     -55.004395      4.848476       4.1989033      3.913248       79.667006      1071345.1      1045737.5      1068964.7      1099333.1    
Loop time of 0.00016225 on 8 procs for 1 steps with 8 atoms

Performance: 532.512 ns/day, 0.045 hours/ns, 6163.328 timesteps/s, 49.307 katom-step/s
0.0% CPU use with 8 MPI tasks x 1 OpenMP threads

MPI task timing breakdown:
Section |  min time  |  avg time  |  max time  |%varavg| %total
---------------------------------------------------------------
Pair    | 0.000123   | 0.00012562 | 0.000127   |   0.0 | 77.43
Neigh   | 0          | 0          | 0          |   0.0 |  0.00
Comm    | 2e-05      | 2.1625e-05 | 2.4e-05    |   0.0 | 13.33
Output  | 1e-05      | 1.0625e-05 | 1.1e-05    |   0.0 |  6.55
Modify  | 0          | 2.5e-07    | 1e-06      |   0.0 |  0.15
Other   |            | 4.125e-06  |            |       |  2.54

Nlocal:              1 ave           1 max           1 min
Histogram: 8 0 0 0 0 0 0 0 0 0
Nghost:            575 ave         575 max         575 min
Histogram: 8 0 0 0 0 0 0 0 0 0
Neighs:           84.5 ave          87 max          82 min
Histogram: 2 0 2 0 0 0 0 0 2 2
FullNghs:          169 ave         170 max         168 min
Histogram: 4 0 0 0 0 0 0 0 0 4

Total # of neighbors = 1352
Ave neighs/atom = 169
Neighbor list builds = 0
Dangerous builds = 0
variable  natoms equal "count(all)"
variable xlength equal "lx"
variable  volume equal "vol"
variable  etotal equal "etotal"
variable    ecoh equal "pe/v_natoms"
print "${xlength}, ${volume}, ${etotal}, ${ecoh}" append lattice_cohesive_energy.txt screen no

next i
jump SELF loop

change_box all x scale 1.0025 y scale 1.0025 z scale 1.0025 remap
Changing box ...
WARNING: Triclinic box skew is large. LAMMPS will run inefficiently. (src/domain.cpp:220)
  triclinic box = (0.28336566 0.25065049 0.2335985) to (5.1439628 4.4495538 4.1468465) with tilt (-2.5597306 0 0)
WARNING: Triclinic box skew is large. LAMMPS will run inefficiently. (src/domain.cpp:220)
  triclinic box = (0.28336566 0.24540186 0.2335985) to (5.1439628 4.4548025 4.1468465) with tilt (-2.5597306 0 0)
WARNING: Triclinic box skew is large. LAMMPS will run inefficiently. (src/domain.cpp:220)
  triclinic box = (0.28336566 0.24540186 0.22870694) to (5.1439628 4.4548025 4.1517381) with tilt (-2.5597306 0 0)

run 1
WARNING: No fixes with time integration, atoms won't move (src/verlet.cpp:60)
WARNING: Proc sub-domain size < neighbor skin, could lead to lost atoms (src/domain.cpp:966)
Per MPI rank memory allocation (min/avg/max) = 8.547 | 8.547 | 8.548 Mbytes
   Step         PotEng         TotEng           Lx             Ly             Lz           Volume         Press           Pxx            Pyy            Pzz      
        77  -55.400641     -55.400641      4.8605971      4.2094006      3.9230311      80.266003      1002198.2      977709.91      998161         1030723.7    
        78  -55.400641     -55.400641      4.8605971      4.2094006      3.9230311      80.266003      1002198.2      977709.91      998161         1030723.7    
Loop time of 0.000162 on 8 procs for 1 steps with 8 atoms

Performance: 533.333 ns/day, 0.045 hours/ns, 6172.840 timesteps/s, 49.383 katom-step/s
0.0% CPU use with 8 MPI tasks x 1 OpenMP threads

MPI task timing breakdown:
Section |  min time  |  avg time  |  max time  |%varavg| %total
---------------------------------------------------------------
Pair    | 0.000123   | 0.00012513 | 0.000126   |   0.0 | 77.24
Neigh   | 0          | 0          | 0          |   0.0 |  0.00
Comm    | 2e-05      | 2.1125e-05 | 2.2e-05    |   0.0 | 13.04
Output  | 1.1e-05    | 1.1375e-05 | 1.2e-05    |   0.0 |  7.02
Modify  | 0          | 0          | 0          |   0.0 |  0.00
Other   |            | 4.375e-06  |            |       |  2.70

Nlocal:              1 ave           1 max           1 min
Histogram: 8 0 0 0 0 0 0 0 0 0
Nghost:            575 ave         575 max         575 min
Histogram: 8 0 0 0 0 0 0 0 0 0
Neighs:           83.5 ave          86 max          81 min
Histogram: 2 0 2 0 0 0 0 0 2 2
FullNghs:          167 ave         168 max         166 min
Histogram: 4 0 0 0 0 0 0 0 0 4

Total # of neighbors = 1336
Ave neighs/atom = 167
Neighbor list builds = 0
Dangerous builds = 0
variable  natoms equal "count(all)"
variable xlength equal "lx"
variable  volume equal "vol"
variable  etotal equal "etotal"
variable    ecoh equal "pe/v_natoms"
print "${xlength}, ${volume}, ${etotal}, ${ecoh}" append lattice_cohesive_energy.txt screen no

next i
jump SELF loop

change_box all x scale 1.0025 y scale 1.0025 z scale 1.0025 remap
Changing box ...
WARNING: Triclinic box skew is large. LAMMPS will run inefficiently. (src/domain.cpp:220)
  triclinic box = (0.27728992 0.24540186 0.22870694) to (5.1500386 4.4548025 4.1517381) with tilt (-2.5597306 0 0)
WARNING: Triclinic box skew is large. LAMMPS will run inefficiently. (src/domain.cpp:220)
  triclinic box = (0.27728992 0.24014011 0.22870694) to (5.1500386 4.4600642 4.1517381) with tilt (-2.5597306 0 0)
WARNING: Triclinic box skew is large. LAMMPS will run inefficiently. (src/domain.cpp:220)
  triclinic box = (0.27728992 0.24014011 0.22380315) to (5.1500386 4.4600642 4.1566418) with tilt (-2.5597306 0 0)

run 1
WARNING: No fixes with time integration, atoms won't move (src/verlet.cpp:60)
WARNING: Proc sub-domain size < neighbor skin, could lead to lost atoms (src/domain.cpp:966)
Per MPI rank memory allocation (min/avg/max) = 8.547 | 8.547 | 8.548 Mbytes
   Step         PotEng         TotEng           Lx             Ly             Lz           Volume         Press           Pxx            Pyy            Pzz      
        78  -55.773564     -55.773564      4.8727486      4.2199241      3.9328387      80.869505      935313.72      911868.49      929798.39      964274.28    
        79  -55.773564     -55.773564      4.8727486      4.2199241      3.9328387      80.869505      935313.72      911868.49      929798.39      964274.28    
Loop time of 0.000195 on 8 procs for 1 steps with 8 atoms

Performance: 443.077 ns/day, 0.054 hours/ns, 5128.205 timesteps/s, 41.026 katom-step/s
0.0% CPU use with 8 MPI tasks x 1 OpenMP threads

MPI task timing breakdown:
Section |  min time  |  avg time  |  max time  |%varavg| %total
---------------------------------------------------------------
Pair    | 0.000136   | 0.00014625 | 0.000157   |   0.0 | 75.00
Neigh   | 0          | 0          | 0          |   0.0 |  0.00
Comm    | 2.2e-05    | 3.3125e-05 | 4.3e-05    |   0.0 | 16.99
Output  | 1.1e-05    | 1.125e-05  | 1.2e-05    |   0.0 |  5.77
Modify  | 0          | 3.75e-07   | 1e-06      |   0.0 |  0.19
Other   |            | 4e-06      |            |       |  2.05

Nlocal:              1 ave           1 max           1 min
Histogram: 8 0 0 0 0 0 0 0 0 0
Nghost:            575 ave         575 max         575 min
Histogram: 8 0 0 0 0 0 0 0 0 0
Neighs:           82.5 ave          85 max          80 min
Histogram: 2 0 2 0 0 0 0 0 2 2
FullNghs:          165 ave         166 max         164 min
Histogram: 4 0 0 0 0 0 0 0 0 4

Total # of neighbors = 1320
Ave neighs/atom = 165
Neighbor list builds = 0
Dangerous builds = 0
variable  natoms equal "count(all)"
variable xlength equal "lx"
variable  volume equal "vol"
variable  etotal equal "etotal"
variable    ecoh equal "pe/v_natoms"
print "${xlength}, ${volume}, ${etotal}, ${ecoh}" append lattice_cohesive_energy.txt screen no

next i
jump SELF loop

change_box all x scale 1.0025 y scale 1.0025 z scale 1.0025 remap
Changing box ...
WARNING: Triclinic box skew is large. LAMMPS will run inefficiently. (src/domain.cpp:220)
  triclinic box = (0.27119898 0.24014011 0.22380315) to (5.1561295 4.4600642 4.1566418) with tilt (-2.5597306 0 0)
WARNING: Triclinic box skew is large. LAMMPS will run inefficiently. (src/domain.cpp:220)
  triclinic box = (0.27119898 0.23486521 0.22380315) to (5.1561295 4.4653391 4.1566418) with tilt (-2.5597306 0 0)
WARNING: Triclinic box skew is large. LAMMPS will run inefficiently. (src/domain.cpp:220)
  triclinic box = (0.27119898 0.23486521 0.21888711) to (5.1561295 4.4653391 4.1615579) with tilt (-2.5597306 0 0)

run 1
WARNING: No fixes with time integration, atoms won't move (src/verlet.cpp:60)
WARNING: Proc sub-domain size < neighbor skin, could lead to lost atoms (src/domain.cpp:966)
Per MPI rank memory allocation (min/avg/max) = 8.547 | 8.547 | 8.548 Mbytes
   Step         PotEng         TotEng           Lx             Ly             Lz           Volume         Press           Pxx            Pyy            Pzz      
        79  -56.123672     -56.123672      4.8849305      4.2304739      3.9426708      81.477543      870635.05      848163.82      863807.45      899933.87    
        80  -56.123672     -56.123672      4.8849305      4.2304739      3.9426708      81.477543      870635.05      848163.82      863807.45      899933.87    
Loop time of 0.000165875 on 8 procs for 1 steps with 8 atoms

Performance: 520.874 ns/day, 0.046 hours/ns, 6028.636 timesteps/s, 48.229 katom-step/s
0.0% CPU use with 8 MPI tasks x 1 OpenMP threads

MPI task timing breakdown:
Section |  min time  |  avg time  |  max time  |%varavg| %total
---------------------------------------------------------------
Pair    | 0.000125   | 0.00012712 | 0.00013    |   0.0 | 76.64
Neigh   | 0          | 0          | 0          |   0.0 |  0.00
Comm    | 2.1e-05    | 2.325e-05  | 2.6e-05    |   0.0 | 14.02
Output  | 1.1e-05    | 1.1375e-05 | 1.2e-05    |   0.0 |  6.86
Modify  | 0          | 1.25e-07   | 1e-06      |   0.0 |  0.08
Other   |            | 4e-06      |            |       |  2.41

Nlocal:              1 ave           1 max           1 min
Histogram: 8 0 0 0 0 0 0 0 0 0
Nghost:            575 ave         575 max         575 min
Histogram: 8 0 0 0 0 0 0 0 0 0
Neighs:           80.5 ave          83 max          78 min
Histogram: 2 0 2 0 0 0 0 0 2 2
FullNghs:          161 ave         162 max         160 min
Histogram: 4 0 0 0 0 0 0 0 0 4

Total # of neighbors = 1288
Ave neighs/atom = 161
Neighbor list builds = 0
Dangerous builds = 0
variable  natoms equal "count(all)"
variable xlength equal "lx"
variable  volume equal "vol"
variable  etotal equal "etotal"
variable    ecoh equal "pe/v_natoms"
print "${xlength}, ${volume}, ${etotal}, ${ecoh}" append lattice_cohesive_energy.txt screen no

next i
jump SELF loop

change_box all x scale 1.0025 y scale 1.0025 z scale 1.0025 remap
Changing box ...
WARNING: Triclinic box skew is large. LAMMPS will run inefficiently. (src/domain.cpp:220)
  triclinic box = (0.26509282 0.23486521 0.21888711) to (5.1622357 4.4653391 4.1615579) with tilt (-2.5597306 0 0)
WARNING: Triclinic box skew is large. LAMMPS will run inefficiently. (src/domain.cpp:220)
  triclinic box = (0.26509282 0.22957712 0.21888711) to (5.1622357 4.4706272 4.1615579) with tilt (-2.5597306 0 0)
WARNING: Triclinic box skew is large. LAMMPS will run inefficiently. (src/domain.cpp:220)
  triclinic box = (0.26509282 0.22957712 0.21395877) to (5.1622357 4.4706272 4.1664862) with tilt (-2.5597306 0 0)

run 1
WARNING: No fixes with time integration, atoms won't move (src/verlet.cpp:60)
WARNING: Proc sub-domain size < neighbor skin, could lead to lost atoms (src/domain.cpp:966)
Per MPI rank memory allocation (min/avg/max) = 8.547 | 8.547 | 8.548 Mbytes
   Step         PotEng         TotEng           Lx             Ly             Lz           Volume         Press           Pxx            Pyy            Pzz      
        80  -56.451467     -56.451467      4.8971428      4.2410501      3.9525275      82.090154      808106.44      786546.61      800120.35      837652.36    
        81  -56.451467     -56.451467      4.8971428      4.2410501      3.9525275      82.090154      808106.44      786546.61      800120.35      837652.36    
Loop time of 0.0001615 on 8 procs for 1 steps with 8 atoms

Performance: 534.985 ns/day, 0.045 hours/ns, 6191.950 timesteps/s, 49.536 katom-step/s
0.0% CPU use with 8 MPI tasks x 1 OpenMP threads

MPI task timing breakdown:
Section |  min time  |  avg time  |  max time  |%varavg| %total
---------------------------------------------------------------
Pair    | 0.00012    | 0.00012312 | 0.000125   |   0.0 | 76.24
Neigh   | 0          | 0          | 0          |   0.0 |  0.00
Comm    | 2e-05      | 2.3e-05    | 2.6e-05    |   0.0 | 14.24
Output  | 1.1e-05    | 1.125e-05  | 1.2e-05    |   0.0 |  6.97
Modify  | 0          | 0          | 0          |   0.0 |  0.00
Other   |            | 4.125e-06  |            |       |  2.55

Nlocal:              1 ave           1 max           1 min
Histogram: 8 0 0 0 0 0 0 0 0 0
Nghost:            575 ave         575 max         575 min
Histogram: 8 0 0 0 0 0 0 0 0 0
Neighs:           79.5 ave          82 max          77 min
Histogram: 2 0 2 0 0 0 0 0 2 2
FullNghs:          159 ave         160 max         158 min
Histogram: 4 0 0 0 0 0 0 0 0 4

Total # of neighbors = 1272
Ave neighs/atom = 159
Neighbor list builds = 0
Dangerous builds = 0
variable  natoms equal "count(all)"
variable xlength equal "lx"
variable  volume equal "vol"
variable  etotal equal "etotal"
variable    ecoh equal "pe/v_natoms"
print "${xlength}, ${volume}, ${etotal}, ${ecoh}" append lattice_cohesive_energy.txt screen no

next i
jump SELF loop

change_box all x scale 1.0025 y scale 1.0025 z scale 1.0025 remap
Changing box ...
WARNING: Triclinic box skew is large. LAMMPS will run inefficiently. (src/domain.cpp:220)
  triclinic box = (0.25897139 0.22957712 0.21395877) to (5.1683571 4.4706272 4.1664862) with tilt (-2.5597306 0 0)
WARNING: Triclinic box skew is large. LAMMPS will run inefficiently. (src/domain.cpp:220)
  triclinic box = (0.25897139 0.2242758 0.21395877) to (5.1683571 4.4759285 4.1664862) with tilt (-2.5597306 0 0)
WARNING: Triclinic box skew is large. LAMMPS will run inefficiently. (src/domain.cpp:220)
  triclinic box = (0.25897139 0.2242758 0.20901811) to (5.1683571 4.4759285 4.1714269) with tilt (-2.5597306 0 0)

run 1
WARNING: No fixes with time integration, atoms won't move (src/verlet.cpp:60)
WARNING: Proc sub-domain size < neighbor skin, could lead to lost atoms (src/domain.cpp:966)
Per MPI rank memory allocation (min/avg/max) = 8.547 | 8.547 | 8.548 Mbytes
   Step         PotEng         TotEng           Lx             Ly             Lz           Volume         Press           Pxx            Pyy            Pzz      
        81  -56.757442     -56.757442      4.9093857      4.2516527      3.9624088      82.707371      747673.08      726967.73      738671.1       777380.42    
        82  -56.757442     -56.757442      4.9093857      4.2516527      3.9624088      82.707371      747673.08      726967.73      738671.1       777380.42    
Loop time of 0.00016175 on 8 procs for 1 steps with 8 atoms

Performance: 534.158 ns/day, 0.045 hours/ns, 6182.380 timesteps/s, 49.459 katom-step/s
0.0% CPU use with 8 MPI tasks x 1 OpenMP threads

MPI task timing breakdown:
Section |  min time  |  avg time  |  max time  |%varavg| %total
---------------------------------------------------------------
Pair    | 0.00012    | 0.0001235  | 0.000127   |   0.0 | 76.35
Neigh   | 0          | 0          | 0          |   0.0 |  0.00
Comm    | 2e-05      | 2.3125e-05 | 2.7e-05    |   0.0 | 14.30
Output  | 1e-05      | 1.075e-05  | 1.1e-05    |   0.0 |  6.65
Modify  | 0          | 2.5e-07    | 1e-06      |   0.0 |  0.15
Other   |            | 4.125e-06  |            |       |  2.55

Nlocal:              1 ave           1 max           1 min
Histogram: 8 0 0 0 0 0 0 0 0 0
Nghost:            575 ave         575 max         575 min
Histogram: 8 0 0 0 0 0 0 0 0 0
Neighs:             79 ave          81 max          77 min
Histogram: 4 0 0 0 0 0 0 0 0 4
FullNghs:          158 ave         158 max         158 min
Histogram: 8 0 0 0 0 0 0 0 0 0

Total # of neighbors = 1264
Ave neighs/atom = 158
Neighbor list builds = 0
Dangerous builds = 0
variable  natoms equal "count(all)"
variable xlength equal "lx"
variable  volume equal "vol"
variable  etotal equal "etotal"
variable    ecoh equal "pe/v_natoms"
print "${xlength}, ${volume}, ${etotal}, ${ecoh}" append lattice_cohesive_energy.txt screen no

next i
jump SELF loop

change_box all x scale 1.0025 y scale 1.0025 z scale 1.0025 remap
Changing box ...
WARNING: Triclinic box skew is large. LAMMPS will run inefficiently. (src/domain.cpp:220)
  triclinic box = (0.25283466 0.2242758 0.20901811) to (5.1744938 4.4759285 4.1714269) with tilt (-2.5597306 0 0)
WARNING: Triclinic box skew is large. LAMMPS will run inefficiently. (src/domain.cpp:220)
  triclinic box = (0.25283466 0.21896124 0.20901811) to (5.1744938 4.4812431 4.1714269) with tilt (-2.5597306 0 0)
WARNING: Triclinic box skew is large. LAMMPS will run inefficiently. (src/domain.cpp:220)
  triclinic box = (0.25283466 0.21896124 0.2040651) to (5.1744938 4.4812431 4.1763799) with tilt (-2.5597306 0 0)

run 1
WARNING: No fixes with time integration, atoms won't move (src/verlet.cpp:60)
WARNING: Proc sub-domain size < neighbor skin, could lead to lost atoms (src/domain.cpp:966)
Per MPI rank memory allocation (min/avg/max) = 8.547 | 8.547 | 8.548 Mbytes
   Step         PotEng         TotEng           Lx             Ly             Lz           Volume         Press           Pxx            Pyy            Pzz      
        82  -57.042086     -57.042086      4.9216592      4.2622819      3.9723148      83.329228      689281.53      669378.64      679396.4       719069.54    
        83  -57.042086     -57.042086      4.9216592      4.2622819      3.9723148      83.329228      689281.53      669378.64      679396.4       719069.54    
Loop time of 0.000158625 on 8 procs for 1 steps with 8 atoms

Performance: 544.681 ns/day, 0.044 hours/ns, 6304.177 timesteps/s, 50.433 katom-step/s
0.0% CPU use with 8 MPI tasks x 1 OpenMP threads

MPI task timing breakdown:
Section |  min time  |  avg time  |  max time  |%varavg| %total
---------------------------------------------------------------
Pair    | 0.00012    | 0.00012225 | 0.000124   |   0.0 | 77.07
Neigh   | 0          | 0          | 0          |   0.0 |  0.00
Comm    | 1.9e-05    | 2.0875e-05 | 2.2e-05    |   0.0 | 13.16
Output  | 1.1e-05    | 1.1e-05    | 1.1e-05    |   0.0 |  6.93
Modify  | 0          | 1.25e-07   | 1e-06      |   0.0 |  0.08
Other   |            | 4.375e-06  |            |       |  2.76

Nlocal:              1 ave           1 max           1 min
Histogram: 8 0 0 0 0 0 0 0 0 0
Nghost:            575 ave         575 max         575 min
Histogram: 8 0 0 0 0 0 0 0 0 0
Neighs:             79 ave          81 max          77 min
Histogram: 4 0 0 0 0 0 0 0 0 4
FullNghs:          158 ave         158 max         158 min
Histogram: 8 0 0 0 0 0 0 0 0 0

Total # of neighbors = 1264
Ave neighs/atom = 158
Neighbor list builds = 0
Dangerous builds = 0
variable  natoms equal "count(all)"
variable xlength equal "lx"
variable  volume equal "vol"
variable  etotal equal "etotal"
variable    ecoh equal "pe/v_natoms"
print "${xlength}, ${volume}, ${etotal}, ${ecoh}" append lattice_cohesive_energy.txt screen no

next i
jump SELF loop

change_box all x scale 1.0025 y scale 1.0025 z scale 1.0025 remap
Changing box ...
WARNING: Triclinic box skew is large. LAMMPS will run inefficiently. (src/domain.cpp:220)
  triclinic box = (0.24668258 0.21896124 0.2040651) to (5.1806459 4.4812431 4.1763799) with tilt (-2.5597306 0 0)
WARNING: Triclinic box skew is large. LAMMPS will run inefficiently. (src/domain.cpp:220)
  triclinic box = (0.24668258 0.21363338 0.2040651) to (5.1806459 4.4865709 4.1763799) with tilt (-2.5597306 0 0)
WARNING: Triclinic box skew is large. LAMMPS will run inefficiently. (src/domain.cpp:220)
  triclinic box = (0.24668258 0.21363338 0.1990997) to (5.1806459 4.4865709 4.1813453) with tilt (-2.5597306 0 0)

run 1
WARNING: No fixes with time integration, atoms won't move (src/verlet.cpp:60)
WARNING: Proc sub-domain size < neighbor skin, could lead to lost atoms (src/domain.cpp:966)
Per MPI rank memory allocation (min/avg/max) = 8.547 | 8.547 | 8.548 Mbytes
   Step         PotEng         TotEng           Lx             Ly             Lz           Volume         Press           Pxx            Pyy            Pzz      
        83  -57.305878     -57.305878      4.9339633      4.2729376      3.9822456      83.955761      632879.52      613731.25      622235.23      662672.07    
        84  -57.305878     -57.305878      4.9339633      4.2729376      3.9822456      83.955761      632879.52      613731.25      622235.23      662672.07    
Loop time of 0.000238 on 8 procs for 1 steps with 8 atoms

Performance: 363.025 ns/day, 0.066 hours/ns, 4201.681 timesteps/s, 33.613 katom-step/s
0.0% CPU use with 8 MPI tasks x 1 OpenMP threads

MPI task timing breakdown:
Section |  min time  |  avg time  |  max time  |%varavg| %total
---------------------------------------------------------------
Pair    | 0.000139   | 0.0001555  | 0.000197   |   0.0 | 65.34
Neigh   | 0          | 0          | 0          |   0.0 |  0.00
Comm    | 2.3e-05    | 6.425e-05  | 8.1e-05    |   0.0 | 27.00
Output  | 1.2e-05    | 1.3e-05    | 1.4e-05    |   0.0 |  5.46
Modify  | 0          | 0          | 0          |   0.0 |  0.00
Other   |            | 5.25e-06   |            |       |  2.21

Nlocal:              1 ave           1 max           1 min
Histogram: 8 0 0 0 0 0 0 0 0 0
Nghost:            575 ave         575 max         575 min
Histogram: 8 0 0 0 0 0 0 0 0 0
Neighs:          78.75 ave          81 max          76 min
Histogram: 1 0 3 0 0 0 0 0 1 3
FullNghs:        157.5 ave         158 max         157 min
Histogram: 4 0 0 0 0 0 0 0 0 4

Total # of neighbors = 1260
Ave neighs/atom = 157.5
Neighbor list builds = 0
Dangerous builds = 0
variable  natoms equal "count(all)"
variable xlength equal "lx"
variable  volume equal "vol"
variable  etotal equal "etotal"
variable    ecoh equal "pe/v_natoms"
print "${xlength}, ${volume}, ${etotal}, ${ecoh}" append lattice_cohesive_energy.txt screen no

next i
jump SELF loop

change_box all x scale 1.0025 y scale 1.0025 z scale 1.0025 remap
Changing box ...
WARNING: Triclinic box skew is large. LAMMPS will run inefficiently. (src/domain.cpp:220)
  triclinic box = (0.24051513 0.21363338 0.1990997) to (5.1868133 4.4865709 4.1813453) with tilt (-2.5597306 0 0)
WARNING: Triclinic box skew is large. LAMMPS will run inefficiently. (src/domain.cpp:220)
  triclinic box = (0.24051513 0.20829221 0.1990997) to (5.1868133 4.4919121 4.1813453) with tilt (-2.5597306 0 0)
WARNING: Triclinic box skew is large. LAMMPS will run inefficiently. (src/domain.cpp:220)
  triclinic box = (0.24051513 0.20829221 0.1941219) to (5.1868133 4.4919121 4.1863231) with tilt (-2.5597306 0 0)

run 1
WARNING: No fixes with time integration, atoms won't move (src/verlet.cpp:60)
WARNING: Proc sub-domain size < neighbor skin, could lead to lost atoms (src/domain.cpp:966)
Per MPI rank memory allocation (min/avg/max) = 8.547 | 8.547 | 8.548 Mbytes
   Step         PotEng         TotEng           Lx             Ly             Lz           Volume         Press           Pxx            Pyy            Pzz      
        84  -57.549293     -57.549293      4.9462982      4.2836199      3.9922012      84.587005      578415.58      559977.59      567127.81      608141.34    
        85  -57.549293     -57.549293      4.9462982      4.2836199      3.9922012      84.587005      578415.58      559977.59      567127.81      608141.34    
Loop time of 0.0001665 on 8 procs for 1 steps with 8 atoms

Performance: 518.919 ns/day, 0.046 hours/ns, 6006.006 timesteps/s, 48.048 katom-step/s
0.0% CPU use with 8 MPI tasks x 1 OpenMP threads

MPI task timing breakdown:
Section |  min time  |  avg time  |  max time  |%varavg| %total
---------------------------------------------------------------
Pair    | 0.000124   | 0.00012625 | 0.000128   |   0.0 | 75.83
Neigh   | 0          | 0          | 0          |   0.0 |  0.00
Comm    | 2e-05      | 2.2e-05    | 2.5e-05    |   0.0 | 13.21
Output  | 1e-05      | 1.0875e-05 | 1.2e-05    |   0.0 |  6.53
Modify  | 0          | 3.75e-07   | 1e-06      |   0.0 |  0.23
Other   |            | 7e-06      |            |       |  4.20

Nlocal:              1 ave           1 max           1 min
Histogram: 8 0 0 0 0 0 0 0 0 0
Nghost:            575 ave         575 max         575 min
Histogram: 8 0 0 0 0 0 0 0 0 0
Neighs:          78.75 ave          81 max          76 min
Histogram: 1 0 3 0 0 0 0 0 1 3
FullNghs:        157.5 ave         158 max         157 min
Histogram: 4 0 0 0 0 0 0 0 0 4

Total # of neighbors = 1260
Ave neighs/atom = 157.5
Neighbor list builds = 0
Dangerous builds = 0
variable  natoms equal "count(all)"
variable xlength equal "lx"
variable  volume equal "vol"
variable  etotal equal "etotal"
variable    ecoh equal "pe/v_natoms"
print "${xlength}, ${volume}, ${etotal}, ${ecoh}" append lattice_cohesive_energy.txt screen no

next i
jump SELF loop

change_box all x scale 1.0025 y scale 1.0025 z scale 1.0025 remap
Changing box ...
WARNING: Triclinic box skew is large. LAMMPS will run inefficiently. (src/domain.cpp:220)
  triclinic box = (0.23433226 0.20829221 0.1941219) to (5.1929962 4.4919121 4.1863231) with tilt (-2.5597306 0 0)
WARNING: Triclinic box skew is large. LAMMPS will run inefficiently. (src/domain.cpp:220)
  triclinic box = (0.23433226 0.20293769 0.1941219) to (5.1929962 4.4972666 4.1863231) with tilt (-2.5597306 0 0)
WARNING: Triclinic box skew is large. LAMMPS will run inefficiently. (src/domain.cpp:220)
  triclinic box = (0.23433226 0.20293769 0.18913165) to (5.1929962 4.4972666 4.1913134) with tilt (-2.5597306 0 0)

run 1
WARNING: No fixes with time integration, atoms won't move (src/verlet.cpp:60)
Per MPI rank memory allocation (min/avg/max) = 8.547 | 8.547 | 8.548 Mbytes
   Step         PotEng         TotEng           Lx             Ly             Lz           Volume         Press           Pxx            Pyy            Pzz      
        85  -57.772797     -57.772797      4.958664       4.294329       4.0021817      85.222994      525839.23      508070.08      514015.97      555431.65    
        86  -57.772797     -57.772797      4.958664       4.294329       4.0021817      85.222994      525839.23      508070.08      514015.97      555431.65    
Loop time of 0.000162125 on 8 procs for 1 steps with 8 atoms

Performance: 532.922 ns/day, 0.045 hours/ns, 6168.080 timesteps/s, 49.345 katom-step/s
0.0% CPU use with 8 MPI tasks x 1 OpenMP threads

MPI task timing breakdown:
Section |  min time  |  avg time  |  max time  |%varavg| %total
---------------------------------------------------------------
Pair    | 0.00012    | 0.00012188 | 0.000123   |   0.0 | 75.17
Neigh   | 0          | 0          | 0          |   0.0 |  0.00
Comm    | 2e-05      | 2.125e-05  | 2.3e-05    |   0.0 | 13.11
Output  | 1.3e-05    | 1.4e-05    | 1.5e-05    |   0.0 |  8.64
Modify  | 0          | 1.25e-07   | 1e-06      |   0.0 |  0.08
Other   |            | 4.875e-06  |            |       |  3.01

Nlocal:              1 ave           1 max           1 min
Histogram: 8 0 0 0 0 0 0 0 0 0
Nghost:            575 ave         575 max         575 min
Histogram: 8 0 0 0 0 0 0 0 0 0
Neighs:          78.25 ave          81 max          76 min
Histogram: 3 0 1 0 0 0 1 0 1 2
FullNghs:        156.5 ave         158 max         155 min
Histogram: 2 0 0 2 0 0 2 0 0 2

Total # of neighbors = 1252
Ave neighs/atom = 156.5
Neighbor list builds = 0
Dangerous builds = 0
variable  natoms equal "count(all)"
variable xlength equal "lx"
variable  volume equal "vol"
variable  etotal equal "etotal"
variable    ecoh equal "pe/v_natoms"
print "${xlength}, ${volume}, ${etotal}, ${ecoh}" append lattice_cohesive_energy.txt screen no

next i
jump SELF loop

change_box all x scale 1.0025 y scale 1.0025 z scale 1.0025 remap
Changing box ...
WARNING: Triclinic box skew is large. LAMMPS will run inefficiently. (src/domain.cpp:220)
  triclinic box = (0.22813393 0.20293769 0.18913165) to (5.1991945 4.4972666 4.1913134) with tilt (-2.5597306 0 0)
WARNING: Triclinic box skew is large. LAMMPS will run inefficiently. (src/domain.cpp:220)
  triclinic box = (0.22813393 0.19756978 0.18913165) to (5.1991945 4.5026346 4.1913134) with tilt (-2.5597306 0 0)
WARNING: Triclinic box skew is large. LAMMPS will run inefficiently. (src/domain.cpp:220)
  triclinic box = (0.22813393 0.19756978 0.18412892) to (5.1991945 4.5026346 4.1963161) with tilt (-2.5597306 0 0)

run 1
WARNING: No fixes with time integration, atoms won't move (src/verlet.cpp:60)
Per MPI rank memory allocation (min/avg/max) = 8.547 | 8.547 | 8.548 Mbytes
   Step         PotEng         TotEng           Lx             Ly             Lz           Volume         Press           Pxx            Pyy            Pzz      
        86  -57.97685      -57.97685       4.9710606      4.3050648      4.0121872      85.863766      475101.23      457961.75      462843.78      504498.18    
        87  -57.97685      -57.97685       4.9710606      4.3050648      4.0121872      85.863766      475101.23      457961.75      462843.78      504498.18    
Loop time of 0.000167375 on 8 procs for 1 steps with 8 atoms

Performance: 516.206 ns/day, 0.046 hours/ns, 5974.608 timesteps/s, 47.797 katom-step/s
0.0% CPU use with 8 MPI tasks x 1 OpenMP threads

MPI task timing breakdown:
Section |  min time  |  avg time  |  max time  |%varavg| %total
---------------------------------------------------------------
Pair    | 0.000123   | 0.00012725 | 0.000131   |   0.0 | 76.03
Neigh   | 0          | 0          | 0          |   0.0 |  0.00
Comm    | 2.1e-05    | 2.5e-05    | 3e-05      |   0.0 | 14.94
Output  | 1e-05      | 1.05e-05   | 1.1e-05    |   0.0 |  6.27
Modify  | 0          | 5e-07      | 2e-06      |   0.0 |  0.30
Other   |            | 4.125e-06  |            |       |  2.46

Nlocal:              1 ave           1 max           1 min
Histogram: 8 0 0 0 0 0 0 0 0 0
Nghost:            575 ave         575 max         575 min
Histogram: 8 0 0 0 0 0 0 0 0 0
Neighs:          77.75 ave          81 max          75 min
Histogram: 1 3 0 0 0 0 2 0 1 1
FullNghs:        155.5 ave         157 max         154 min
Histogram: 2 0 0 2 0 0 2 0 0 2

Total # of neighbors = 1244
Ave neighs/atom = 155.5
Neighbor list builds = 0
Dangerous builds = 0
variable  natoms equal "count(all)"
variable xlength equal "lx"
variable  volume equal "vol"
variable  etotal equal "etotal"
variable    ecoh equal "pe/v_natoms"
print "${xlength}, ${volume}, ${etotal}, ${ecoh}" append lattice_cohesive_energy.txt screen no

next i
jump SELF loop

change_box all x scale 1.0025 y scale 1.0025 z scale 1.0025 remap
Changing box ...
WARNING: Triclinic box skew is large. LAMMPS will run inefficiently. (src/domain.cpp:220)
  triclinic box = (0.2219201 0.19756978 0.18412892) to (5.2054084 4.5026346 4.1963161) with tilt (-2.5597306 0 0)
WARNING: Triclinic box skew is large. LAMMPS will run inefficiently. (src/domain.cpp:220)
  triclinic box = (0.2219201 0.19218845 0.18412892) to (5.2054084 4.5080159 4.1963161) with tilt (-2.5597306 0 0)
WARNING: Triclinic box skew is large. LAMMPS will run inefficiently. (src/domain.cpp:220)
  triclinic box = (0.2219201 0.19218845 0.17911368) to (5.2054084 4.5080159 4.2013313) with tilt (-2.5597306 0 0)

run 1
WARNING: No fixes with time integration, atoms won't move (src/verlet.cpp:60)
Per MPI rank memory allocation (min/avg/max) = 8.547 | 8.547 | 8.548 Mbytes
   Step         PotEng         TotEng           Lx             Ly             Lz           Volume         Press           Pxx            Pyy            Pzz      
        87  -58.161904     -58.161904      4.9834883      4.3158274      4.0222176      86.509356      426153.44      409606.66      413556.71      455296.95    
        88  -58.161904     -58.161904      4.9834883      4.3158274      4.0222176      86.509356      426153.44      409606.66      413556.71      455296.95    
Loop time of 0.00019925 on 8 procs for 1 steps with 8 atoms

Performance: 433.626 ns/day, 0.055 hours/ns, 5018.821 timesteps/s, 40.151 katom-step/s
0.0% CPU use with 8 MPI tasks x 1 OpenMP threads

MPI task timing breakdown:
Section |  min time  |  avg time  |  max time  |%varavg| %total
---------------------------------------------------------------
Pair    | 0.000134   | 0.00014413 | 0.000162   |   0.0 | 72.33
Neigh   | 0          | 0          | 0          |   0.0 |  0.00
Comm    | 2.1e-05    | 3.85e-05   | 4.9e-05    |   0.0 | 19.32
Output  | 1.1e-05    | 1.1125e-05 | 1.2e-05    |   0.0 |  5.58
Modify  | 0          | 0          | 0          |   0.0 |  0.00
Other   |            | 5.5e-06    |            |       |  2.76

Nlocal:              1 ave           1 max           1 min
Histogram: 8 0 0 0 0 0 0 0 0 0
Nghost:            575 ave         575 max         575 min
Histogram: 8 0 0 0 0 0 0 0 0 0
Neighs:           77.5 ave          80 max          75 min
Histogram: 1 0 3 0 0 0 1 0 1 2
FullNghs:          155 ave         156 max         153 min
Histogram: 2 0 0 0 0 0 2 0 0 4

Total # of neighbors = 1240
Ave neighs/atom = 155
Neighbor list builds = 0
Dangerous builds = 0
variable  natoms equal "count(all)"
variable xlength equal "lx"
variable  volume equal "vol"
variable  etotal equal "etotal"
variable    ecoh equal "pe/v_natoms"
print "${xlength}, ${volume}, ${etotal}, ${ecoh}" append lattice_cohesive_energy.txt screen no

next i
jump SELF loop

change_box all x scale 1.0025 y scale 1.0025 z scale 1.0025 remap
Changing box ...
WARNING: Triclinic box skew is large. LAMMPS will run inefficiently. (src/domain.cpp:220)
  triclinic box = (0.21569074 0.19218845 0.17911368) to (5.2116377 4.5080159 4.2013313) with tilt (-2.5597306 0 0)
WARNING: Triclinic box skew is large. LAMMPS will run inefficiently. (src/domain.cpp:220)
  triclinic box = (0.21569074 0.18679366 0.17911368) to (5.2116377 4.5134107 4.2013313) with tilt (-2.5597306 0 0)
WARNING: Triclinic box skew is large. LAMMPS will run inefficiently. (src/domain.cpp:220)
  triclinic box = (0.21569074 0.18679366 0.17408591) to (5.2116377 4.5134107 4.2063591) with tilt (-2.5597306 0 0)

run 1
WARNING: No fixes with time integration, atoms won't move (src/verlet.cpp:60)
Per MPI rank memory allocation (min/avg/max) = 8.547 | 8.547 | 8.548 Mbytes
   Step         PotEng         TotEng           Lx             Ly             Lz           Volume         Press           Pxx            Pyy            Pzz      
        88  -58.328404     -58.328404      4.995947       4.326617       4.0322732      87.159799      378948.49      362960.04      366100.58      407784.86    
        89  -58.328404     -58.328404      4.995947       4.326617       4.0322732      87.159799      378948.49      362960.04      366100.58      407784.86    
Loop time of 0.000199875 on 8 procs for 1 steps with 8 atoms

Performance: 432.270 ns/day, 0.056 hours/ns, 5003.127 timesteps/s, 40.025 katom-step/s
0.0% CPU use with 8 MPI tasks x 1 OpenMP threads

MPI task timing breakdown:
Section |  min time  |  avg time  |  max time  |%varavg| %total
---------------------------------------------------------------
Pair    | 0.000139   | 0.00014225 | 0.000149   |   0.0 | 71.17
Neigh   | 0          | 0          | 0          |   0.0 |  0.00
Comm    | 2.8e-05    | 3.325e-05  | 3.8e-05    |   0.0 | 16.64
Output  | 1.4e-05    | 1.5625e-05 | 1.7e-05    |   0.0 |  7.82
Modify  | 0          | 6.25e-07   | 1e-06      |   0.0 |  0.31
Other   |            | 8.125e-06  |            |       |  4.07

Nlocal:              1 ave           1 max           1 min
Histogram: 8 0 0 0 0 0 0 0 0 0
Nghost:            575 ave         575 max         575 min
Histogram: 8 0 0 0 0 0 0 0 0 0
Neighs:          76.25 ave          79 max          74 min
Histogram: 2 0 2 0 0 0 2 0 0 2
FullNghs:        152.5 ave         154 max         151 min
Histogram: 4 0 0 0 0 0 0 0 0 4

Total # of neighbors = 1220
Ave neighs/atom = 152.5
Neighbor list builds = 0
Dangerous builds = 0
variable  natoms equal "count(all)"
variable xlength equal "lx"
variable  volume equal "vol"
variable  etotal equal "etotal"
variable    ecoh equal "pe/v_natoms"
print "${xlength}, ${volume}, ${etotal}, ${ecoh}" append lattice_cohesive_energy.txt screen no

next i
jump SELF loop

change_box all x scale 1.0025 y scale 1.0025 z scale 1.0025 remap
Changing box ...
WARNING: Triclinic box skew is large. LAMMPS will run inefficiently. (src/domain.cpp:220)
  triclinic box = (0.20944581 0.18679366 0.17408591) to (5.2178827 4.5134107 4.2063591) with tilt (-2.5597306 0 0)
WARNING: Triclinic box skew is large. LAMMPS will run inefficiently. (src/domain.cpp:220)
  triclinic box = (0.20944581 0.18138539 0.17408591) to (5.2178827 4.5188189 4.2063591) with tilt (-2.5597306 0 0)
WARNING: Triclinic box skew is large. LAMMPS will run inefficiently. (src/domain.cpp:220)
  triclinic box = (0.20944581 0.18138539 0.16904557) to (5.2178827 4.5188189 4.2113994) with tilt (-2.5597306 0 0)

run 1
WARNING: No fixes with time integration, atoms won't move (src/verlet.cpp:60)
Per MPI rank memory allocation (min/avg/max) = 8.547 | 8.547 | 8.548 Mbytes
   Step         PotEng         TotEng           Lx             Ly             Lz           Volume         Press           Pxx            Pyy            Pzz      
        89  -58.476789     -58.476789      5.0084369      4.3374335      4.0423539      87.815133      333440.13      317978.16      320422.55      361919.66    
        90  -58.476789     -58.476789      5.0084369      4.3374335      4.0423539      87.815133      333440.13      317978.16      320422.55      361919.66    
Loop time of 0.000161625 on 8 procs for 1 steps with 8 atoms

Performance: 534.571 ns/day, 0.045 hours/ns, 6187.162 timesteps/s, 49.497 katom-step/s
0.0% CPU use with 8 MPI tasks x 1 OpenMP threads

MPI task timing breakdown:
Section |  min time  |  avg time  |  max time  |%varavg| %total
---------------------------------------------------------------
Pair    | 0.000122   | 0.0001245  | 0.000127   |   0.0 | 77.03
Neigh   | 0          | 0          | 0          |   0.0 |  0.00
Comm    | 2e-05      | 2.3e-05    | 2.5e-05    |   0.0 | 14.23
Output  | 1e-05      | 1.0875e-05 | 1.1e-05    |   0.0 |  6.73
Modify  | 0          | 2.5e-07    | 1e-06      |   0.0 |  0.15
Other   |            | 3e-06      |            |       |  1.86

Nlocal:              1 ave           1 max           1 min
Histogram: 8 0 0 0 0 0 0 0 0 0
Nghost:            575 ave         575 max         575 min
Histogram: 8 0 0 0 0 0 0 0 0 0
Neighs:           75.5 ave          77 max          74 min
Histogram: 2 0 0 2 0 0 2 0 0 2
FullNghs:          151 ave         152 max         150 min
Histogram: 2 0 0 0 0 4 0 0 0 2

Total # of neighbors = 1208
Ave neighs/atom = 151
Neighbor list builds = 0
Dangerous builds = 0
variable  natoms equal "count(all)"
variable xlength equal "lx"
variable  volume equal "vol"
variable  etotal equal "etotal"
variable    ecoh equal "pe/v_natoms"
print "${xlength}, ${volume}, ${etotal}, ${ecoh}" append lattice_cohesive_energy.txt screen no

next i
jump SELF loop

change_box all x scale 1.0025 y scale 1.0025 z scale 1.0025 remap
Changing box ...
WARNING: Triclinic box skew is large. LAMMPS will run inefficiently. (src/domain.cpp:220)
  triclinic box = (0.20318526 0.18138539 0.16904557) to (5.2241432 4.5188189 4.2113994) with tilt (-2.5597306 0 0)
WARNING: Triclinic box skew is large. LAMMPS will run inefficiently. (src/domain.cpp:220)
  triclinic box = (0.20318526 0.1759636 0.16904557) to (5.2241432 4.5242407 4.2113994) with tilt (-2.5597306 0 0)
WARNING: Triclinic box skew is large. LAMMPS will run inefficiently. (src/domain.cpp:220)
  triclinic box = (0.20318526 0.1759636 0.16399263) to (5.2241432 4.5242407 4.2164524) with tilt (-2.5597306 0 0)

run 1
WARNING: No fixes with time integration, atoms won't move (src/verlet.cpp:60)
Per MPI rank memory allocation (min/avg/max) = 8.547 | 8.547 | 8.548 Mbytes
   Step         PotEng         TotEng           Lx             Ly             Lz           Volume         Press           Pxx            Pyy            Pzz      
        90  -58.607493     -58.607493      5.0209579      4.3482771      4.0524597      88.475395      289583.18      274618.26      276471.37      317659.89    
        91  -58.607493     -58.607493      5.0209579      4.3482771      4.0524597      88.475395      289583.18      274618.26      276471.37      317659.89    
Loop time of 0.000170375 on 8 procs for 1 steps with 8 atoms

Performance: 507.117 ns/day, 0.047 hours/ns, 5869.406 timesteps/s, 46.955 katom-step/s
1146.4% CPU use with 8 MPI tasks x 1 OpenMP threads

MPI task timing breakdown:
Section |  min time  |  avg time  |  max time  |%varavg| %total
---------------------------------------------------------------
Pair    | 0.000121   | 0.00012212 | 0.000123   |   0.0 | 71.68
Neigh   | 0          | 0          | 0          |   0.0 |  0.00
Comm    | 2.1e-05    | 2.2e-05    | 2.3e-05    |   0.0 | 12.91
Output  | 1.1e-05    | 1.25e-05   | 2.1e-05    |   0.0 |  7.34
Modify  | 0          | 6.25e-07   | 1e-06      |   0.0 |  0.37
Other   |            | 1.313e-05  |            |       |  7.70

Nlocal:              1 ave           1 max           1 min
Histogram: 8 0 0 0 0 0 0 0 0 0
Nghost:            575 ave         575 max         575 min
Histogram: 8 0 0 0 0 0 0 0 0 0
Neighs:           74.5 ave          76 max          73 min
Histogram: 2 0 0 3 0 0 0 0 0 3
FullNghs:          149 ave         150 max         147 min
Histogram: 2 0 0 0 0 0 2 0 0 4

Total # of neighbors = 1192
Ave neighs/atom = 149
Neighbor list builds = 0
Dangerous builds = 0
variable  natoms equal "count(all)"
variable xlength equal "lx"
variable  volume equal "vol"
variable  etotal equal "etotal"
variable    ecoh equal "pe/v_natoms"
print "${xlength}, ${volume}, ${etotal}, ${ecoh}" append lattice_cohesive_energy.txt screen no

next i
jump SELF loop

change_box all x scale 1.0025 y scale 1.0025 z scale 1.0025 remap
Changing box ...
WARNING: Triclinic box skew is large. LAMMPS will run inefficiently. (src/domain.cpp:220)
  triclinic box = (0.19690906 0.1759636 0.16399263) to (5.2304194 4.5242407 4.2164524) with tilt (-2.5597306 0 0)
WARNING: Triclinic box skew is large. LAMMPS will run inefficiently. (src/domain.cpp:220)
  triclinic box = (0.19690906 0.17052825 0.16399263) to (5.2304194 4.5296761 4.2164524) with tilt (-2.5597306 0 0)
WARNING: Triclinic box skew is large. LAMMPS will run inefficiently. (src/domain.cpp:220)
  triclinic box = (0.19690906 0.17052825 0.15892705) to (5.2304194 4.5296761 4.2215179) with tilt (-2.5597306 0 0)

run 1
WARNING: No fixes with time integration, atoms won't move (src/verlet.cpp:60)
Per MPI rank memory allocation (min/avg/max) = 8.547 | 8.547 | 8.548 Mbytes
   Step         PotEng         TotEng           Lx             Ly             Lz           Volume         Press           Pxx            Pyy            Pzz      
        91  -58.720939     -58.720939      5.0335103      4.3591478      4.0625909      89.14062       247333.42      232838.4       234196.95      274964.92    
        92  -58.720939     -58.720939      5.0335103      4.3591478      4.0625909      89.14062       247333.42      232838.4       234196.95      274964.92    
Loop time of 0.000167375 on 8 procs for 1 steps with 8 atoms

Performance: 516.206 ns/day, 0.046 hours/ns, 5974.608 timesteps/s, 47.797 katom-step/s
0.0% CPU use with 8 MPI tasks x 1 OpenMP threads

MPI task timing breakdown:
Section |  min time  |  avg time  |  max time  |%varavg| %total
---------------------------------------------------------------
Pair    | 0.000124   | 0.00012788 | 0.000131   |   0.0 | 76.40
Neigh   | 0          | 0          | 0          |   0.0 |  0.00
Comm    | 2e-05      | 2.35e-05   | 2.8e-05    |   0.0 | 14.04
Output  | 1.1e-05    | 1.125e-05  | 1.2e-05    |   0.0 |  6.72
Modify  | 0          | 6.25e-07   | 2e-06      |   0.0 |  0.37
Other   |            | 4.125e-06  |            |       |  2.46

Nlocal:              1 ave           1 max           1 min
Histogram: 8 0 0 0 0 0 0 0 0 0
Nghost:            575 ave         575 max         575 min
Histogram: 8 0 0 0 0 0 0 0 0 0
Neighs:          73.75 ave          75 max          72 min
Histogram: 1 0 0 2 0 0 3 0 0 2
FullNghs:        147.5 ave         149 max         146 min
Histogram: 2 0 0 2 0 0 2 0 0 2

Total # of neighbors = 1180
Ave neighs/atom = 147.5
Neighbor list builds = 0
Dangerous builds = 0
variable  natoms equal "count(all)"
variable xlength equal "lx"
variable  volume equal "vol"
variable  etotal equal "etotal"
variable    ecoh equal "pe/v_natoms"
print "${xlength}, ${volume}, ${etotal}, ${ecoh}" append lattice_cohesive_energy.txt screen no

next i
jump SELF loop

change_box all x scale 1.0025 y scale 1.0025 z scale 1.0025 remap
Changing box ...
WARNING: Triclinic box skew is large. LAMMPS will run inefficiently. (src/domain.cpp:220)
  triclinic box = (0.19061718 0.17052825 0.15892705) to (5.2367113 4.5296761 4.2215179) with tilt (-2.5597306 0 0)
WARNING: Triclinic box skew is large. LAMMPS will run inefficiently. (src/domain.cpp:220)
  triclinic box = (0.19061718 0.16507932 0.15892705) to (5.2367113 4.535125 4.2215179) with tilt (-2.5597306 0 0)
WARNING: Triclinic box skew is large. LAMMPS will run inefficiently. (src/domain.cpp:220)
  triclinic box = (0.19061718 0.16507932 0.15384882) to (5.2367113 4.535125 4.2265962) with tilt (-2.5597306 0 0)

run 1
WARNING: No fixes with time integration, atoms won't move (src/verlet.cpp:60)
Per MPI rank memory allocation (min/avg/max) = 8.547 | 8.547 | 8.548 Mbytes
   Step         PotEng         TotEng           Lx             Ly             Lz           Volume         Press           Pxx            Pyy            Pzz      
        92  -58.817547     -58.817547      5.0460941      4.3700457      4.0727474      89.810848      206647.56      192597.42      193550.29      233794.98    
        93  -58.817547     -58.817547      5.0460941      4.3700457      4.0727474      89.810848      206647.56      192597.42      193550.29      233794.98    
Loop time of 0.000224375 on 8 procs for 1 steps with 8 atoms

Performance: 385.070 ns/day, 0.062 hours/ns, 4456.825 timesteps/s, 35.655 katom-step/s
0.0% CPU use with 8 MPI tasks x 1 OpenMP threads

MPI task timing breakdown:
Section |  min time  |  avg time  |  max time  |%varavg| %total
---------------------------------------------------------------
Pair    | 0.00014    | 0.00015538 | 0.000187   |   0.0 | 69.25
Neigh   | 0          | 0          | 0          |   0.0 |  0.00
Comm    | 2.1e-05    | 5.2625e-05 | 6.8e-05    |   0.0 | 23.45
Output  | 1.1e-05    | 1.2e-05    | 1.3e-05    |   0.0 |  5.35
Modify  | 0          | 0          | 0          |   0.0 |  0.00
Other   |            | 4.375e-06  |            |       |  1.95

Nlocal:              1 ave           1 max           1 min
Histogram: 8 0 0 0 0 0 0 0 0 0
Nghost:            575 ave         575 max         575 min
Histogram: 8 0 0 0 0 0 0 0 0 0
Neighs:             73 ave          74 max          72 min
Histogram: 4 0 0 0 0 0 0 0 0 4
FullNghs:          146 ave         146 max         146 min
Histogram: 8 0 0 0 0 0 0 0 0 0

Total # of neighbors = 1168
Ave neighs/atom = 146
Neighbor list builds = 0
Dangerous builds = 0
variable  natoms equal "count(all)"
variable xlength equal "lx"
variable  volume equal "vol"
variable  etotal equal "etotal"
variable    ecoh equal "pe/v_natoms"
print "${xlength}, ${volume}, ${etotal}, ${ecoh}" append lattice_cohesive_energy.txt screen no

next i
jump SELF loop

change_box all x scale 1.0025 y scale 1.0025 z scale 1.0025 remap
Changing box ...
WARNING: Triclinic box skew is large. LAMMPS will run inefficiently. (src/domain.cpp:220)
  triclinic box = (0.18430956 0.16507932 0.15384882) to (5.2430189 4.535125 4.2265962) with tilt (-2.5597306 0 0)
WARNING: Triclinic box skew is large. LAMMPS will run inefficiently. (src/domain.cpp:220)
  triclinic box = (0.18430956 0.15961676 0.15384882) to (5.2430189 4.5405876 4.2265962) with tilt (-2.5597306 0 0)
WARNING: Triclinic box skew is large. LAMMPS will run inefficiently. (src/domain.cpp:220)
  triclinic box = (0.18430956 0.15961676 0.14875788) to (5.2430189 4.5405876 4.2316871) with tilt (-2.5597306 0 0)

run 1
WARNING: No fixes with time integration, atoms won't move (src/verlet.cpp:60)
Per MPI rank memory allocation (min/avg/max) = 8.547 | 8.547 | 8.548 Mbytes
   Step         PotEng         TotEng           Lx             Ly             Lz           Volume         Press           Pxx            Pyy            Pzz      
        93  -58.897729     -58.897729      5.0587094      4.3809708      4.0829292      90.486115      167483.35      153855.09      154483.88      194111.09    
        94  -58.897729     -58.897729      5.0587094      4.3809708      4.0829292      90.486115      167483.35      153855.09      154483.88      194111.09    
Loop time of 0.000163875 on 8 procs for 1 steps with 8 atoms

Performance: 527.231 ns/day, 0.046 hours/ns, 6102.212 timesteps/s, 48.818 katom-step/s
0.0% CPU use with 8 MPI tasks x 1 OpenMP threads

MPI task timing breakdown:
Section |  min time  |  avg time  |  max time  |%varavg| %total
---------------------------------------------------------------
Pair    | 0.000121   | 0.00012637 | 0.000129   |   0.0 | 77.12
Neigh   | 0          | 0          | 0          |   0.0 |  0.00
Comm    | 2e-05      | 2.2875e-05 | 2.8e-05    |   0.0 | 13.96
Output  | 1e-05      | 1.05e-05   | 1.1e-05    |   0.0 |  6.41
Modify  | 0          | 1.25e-07   | 1e-06      |   0.0 |  0.08
Other   |            | 4e-06      |            |       |  2.44

Nlocal:              1 ave           1 max           1 min
Histogram: 8 0 0 0 0 0 0 0 0 0
Nghost:            575 ave         575 max         575 min
Histogram: 8 0 0 0 0 0 0 0 0 0
Neighs:             73 ave          74 max          72 min
Histogram: 4 0 0 0 0 0 0 0 0 4
FullNghs:          146 ave         146 max         146 min
Histogram: 8 0 0 0 0 0 0 0 0 0

Total # of neighbors = 1168
Ave neighs/atom = 146
Neighbor list builds = 0
Dangerous builds = 0
variable  natoms equal "count(all)"
variable xlength equal "lx"
variable  volume equal "vol"
variable  etotal equal "etotal"
variable    ecoh equal "pe/v_natoms"
print "${xlength}, ${volume}, ${etotal}, ${ecoh}" append lattice_cohesive_energy.txt screen no

next i
jump SELF loop

change_box all x scale 1.0025 y scale 1.0025 z scale 1.0025 remap
Changing box ...
WARNING: Triclinic box skew is large. LAMMPS will run inefficiently. (src/domain.cpp:220)
  triclinic box = (0.17798617 0.15961676 0.14875788) to (5.2493423 4.5405876 4.2316871) with tilt (-2.5597306 0 0)
WARNING: Triclinic box skew is large. LAMMPS will run inefficiently. (src/domain.cpp:220)
  triclinic box = (0.17798617 0.15414055 0.14875788) to (5.2493423 4.5460638 4.2316871) with tilt (-2.5597306 0 0)
  triclinic box = (0.17798617 0.15414055 0.14365422) to (5.2493423 4.5460638 4.2367908) with tilt (-2.5597306 0 0)

run 1
Per MPI rank memory allocation (min/avg/max) = 8.547 | 8.547 | 8.548 Mbytes
   Step         PotEng         TotEng           Lx             Ly             Lz           Volume         Press           Pxx            Pyy            Pzz      
WARNING: Too many warnings: 102 vs 100. All future warnings will be suppressed (src/thermo.cpp:466)
        94  -58.96189      -58.96189       5.0713561      4.3919232      4.0931366      91.166458      129799.46      116571.96      116951.32      155875.09    
        95  -58.96189      -58.96189       5.0713561      4.3919232      4.0931366      91.166458      129799.46      116571.96      116951.32      155875.09    
Loop time of 0.000158125 on 8 procs for 1 steps with 8 atoms

Performance: 546.403 ns/day, 0.044 hours/ns, 6324.111 timesteps/s, 50.593 katom-step/s
0.0% CPU use with 8 MPI tasks x 1 OpenMP threads

MPI task timing breakdown:
Section |  min time  |  avg time  |  max time  |%varavg| %total
---------------------------------------------------------------
Pair    | 0.000121   | 0.00012187 | 0.000123   |   0.0 | 77.08
Neigh   | 0          | 0          | 0          |   0.0 |  0.00
Comm    | 2e-05      | 2.125e-05  | 2.3e-05    |   0.0 | 13.44
Output  | 1.1e-05    | 1.1e-05    | 1.1e-05    |   0.0 |  6.96
Modify  | 0          | 0          | 0          |   0.0 |  0.00
Other   |            | 4e-06      |            |       |  2.53

Nlocal:              1 ave           1 max           1 min
Histogram: 8 0 0 0 0 0 0 0 0 0
Nghost:            575 ave         575 max         575 min
Histogram: 8 0 0 0 0 0 0 0 0 0
Neighs:             73 ave          74 max          72 min
Histogram: 4 0 0 0 0 0 0 0 0 4
FullNghs:          146 ave         146 max         146 min
Histogram: 8 0 0 0 0 0 0 0 0 0

Total # of neighbors = 1168
Ave neighs/atom = 146
Neighbor list builds = 0
Dangerous builds = 0
variable  natoms equal "count(all)"
variable xlength equal "lx"
variable  volume equal "vol"
variable  etotal equal "etotal"
variable    ecoh equal "pe/v_natoms"
print "${xlength}, ${volume}, ${etotal}, ${ecoh}" append lattice_cohesive_energy.txt screen no

next i
jump SELF loop

change_box all x scale 1.0025 y scale 1.0025 z scale 1.0025 remap
Changing box ...
  triclinic box = (0.17164698 0.15414055 0.14365422) to (5.2556815 4.5460638 4.2367908) with tilt (-2.5597306 0 0)
  triclinic box = (0.17164698 0.14865064 0.14365422) to (5.2556815 4.5515537 4.2367908) with tilt (-2.5597306 0 0)
  triclinic box = (0.17164698 0.14865064 0.1385378) to (5.2556815 4.5515537 4.2419072) with tilt (-2.5597306 0 0)

run 1
Per MPI rank memory allocation (min/avg/max) = 8.547 | 8.547 | 8.548 Mbytes
   Step         PotEng         TotEng           Lx             Ly             Lz           Volume         Press           Pxx            Pyy            Pzz      
        95  -59.010431     -59.010431      5.0840345      4.402903       4.1033694      91.851918      93555.371      80709.326      80907.214      119049.57    
        96  -59.010431     -59.010431      5.0840345      4.402903       4.1033694      91.851918      93555.371      80709.326      80907.214      119049.57    
Loop time of 0.00015875 on 8 procs for 1 steps with 8 atoms

Performance: 544.252 ns/day, 0.044 hours/ns, 6299.213 timesteps/s, 50.394 katom-step/s
0.0% CPU use with 8 MPI tasks x 1 OpenMP threads

MPI task timing breakdown:
Section |  min time  |  avg time  |  max time  |%varavg| %total
---------------------------------------------------------------
Pair    | 0.000119   | 0.00012088 | 0.000122   |   0.0 | 76.14
Neigh   | 0          | 0          | 0          |   0.0 |  0.00
Comm    | 2e-05      | 2.2375e-05 | 2.4e-05    |   0.0 | 14.09
Output  | 1.1e-05    | 1.1e-05    | 1.1e-05    |   0.0 |  6.93
Modify  | 0          | 0          | 0          |   0.0 |  0.00
Other   |            | 4.5e-06    |            |       |  2.83

Nlocal:              1 ave           1 max           1 min
Histogram: 8 0 0 0 0 0 0 0 0 0
Nghost:            575 ave         575 max         575 min
Histogram: 8 0 0 0 0 0 0 0 0 0
Neighs:             73 ave          74 max          72 min
Histogram: 4 0 0 0 0 0 0 0 0 4
FullNghs:          146 ave         146 max         146 min
Histogram: 8 0 0 0 0 0 0 0 0 0

Total # of neighbors = 1168
Ave neighs/atom = 146
Neighbor list builds = 0
Dangerous builds = 0
variable  natoms equal "count(all)"
variable xlength equal "lx"
variable  volume equal "vol"
variable  etotal equal "etotal"
variable    ecoh equal "pe/v_natoms"
print "${xlength}, ${volume}, ${etotal}, ${ecoh}" append lattice_cohesive_energy.txt screen no

next i
jump SELF loop

change_box all x scale 1.0025 y scale 1.0025 z scale 1.0025 remap
Changing box ...
  triclinic box = (0.16529193 0.14865064 0.1385378) to (5.2620365 4.5515537 4.2419072) with tilt (-2.5597306 0 0)
  triclinic box = (0.16529193 0.14314701 0.1385378) to (5.2620365 4.5570573 4.2419072) with tilt (-2.5597306 0 0)
  triclinic box = (0.16529193 0.14314701 0.13340859) to (5.2620365 4.5570573 4.2470364) with tilt (-2.5597306 0 0)

run 1
Per MPI rank memory allocation (min/avg/max) = 8.547 | 8.547 | 8.548 Mbytes
   Step         PotEng         TotEng           Lx             Ly             Lz           Volume         Press           Pxx            Pyy            Pzz      
        96  -59.043745     -59.043745      5.0967446      4.4139103      4.1136278      92.542531      58711.628      46229.392      46307.596      83597.895    
        97  -59.043745     -59.043745      5.0967446      4.4139103      4.1136278      92.542531      58711.628      46229.392      46307.596      83597.895    
Loop time of 0.000160875 on 8 procs for 1 steps with 8 atoms

Performance: 537.063 ns/day, 0.045 hours/ns, 6216.006 timesteps/s, 49.728 katom-step/s
0.0% CPU use with 8 MPI tasks x 1 OpenMP threads

MPI task timing breakdown:
Section |  min time  |  avg time  |  max time  |%varavg| %total
---------------------------------------------------------------
Pair    | 0.000119   | 0.00012075 | 0.000122   |   0.0 | 75.06
Neigh   | 0          | 0          | 0          |   0.0 |  0.00
Comm    | 2.2e-05    | 2.4125e-05 | 2.6e-05    |   0.0 | 15.00
Output  | 1.1e-05    | 1.175e-05  | 1.3e-05    |   0.0 |  7.30
Modify  | 0          | 0          | 0          |   0.0 |  0.00
Other   |            | 4.25e-06   |            |       |  2.64

Nlocal:              1 ave           1 max           1 min
Histogram: 8 0 0 0 0 0 0 0 0 0
Nghost:            575 ave         575 max         575 min
Histogram: 8 0 0 0 0 0 0 0 0 0
Neighs:             73 ave          74 max          72 min
Histogram: 4 0 0 0 0 0 0 0 0 4
FullNghs:          146 ave         146 max         146 min
Histogram: 8 0 0 0 0 0 0 0 0 0

Total # of neighbors = 1168
Ave neighs/atom = 146
Neighbor list builds = 0
Dangerous builds = 0
variable  natoms equal "count(all)"
variable xlength equal "lx"
variable  volume equal "vol"
variable  etotal equal "etotal"
variable    ecoh equal "pe/v_natoms"
print "${xlength}, ${volume}, ${etotal}, ${ecoh}" append lattice_cohesive_energy.txt screen no

next i
jump SELF loop

change_box all x scale 1.0025 y scale 1.0025 z scale 1.0025 remap
Changing box ...
  triclinic box = (0.158921 0.14314701 0.13340859) to (5.2684075 4.5570573 4.2470364) with tilt (-2.5597306 0 0)
  triclinic box = (0.158921 0.13762963 0.13340859) to (5.2684075 4.5625747 4.2470364) with tilt (-2.5597306 0 0)
  triclinic box = (0.158921 0.13762963 0.12826655) to (5.2684075 4.5625747 4.2521784) with tilt (-2.5597306 0 0)

run 1
Per MPI rank memory allocation (min/avg/max) = 8.547 | 8.547 | 8.548 Mbytes
   Step         PotEng         TotEng           Lx             Ly             Lz           Volume         Press           Pxx            Pyy            Pzz      
        97  -59.062218     -59.062218      5.1094865      4.4249451      4.1239119      93.238336      25229.63       13095.116      13109.609      49484.166    
        98  -59.062218     -59.062218      5.1094865      4.4249451      4.1239119      93.238336      25229.63       13095.116      13109.609      49484.166    
Loop time of 0.000158875 on 8 procs for 1 steps with 8 atoms

Performance: 543.824 ns/day, 0.044 hours/ns, 6294.256 timesteps/s, 50.354 katom-step/s
0.0% CPU use with 8 MPI tasks x 1 OpenMP threads

MPI task timing breakdown:
Section |  min time  |  avg time  |  max time  |%varavg| %total
---------------------------------------------------------------
Pair    | 0.00012    | 0.00012212 | 0.000124   |   0.0 | 76.87
Neigh   | 0          | 0          | 0          |   0.0 |  0.00
Comm    | 2e-05      | 2.1875e-05 | 2.4e-05    |   0.0 | 13.77
Output  | 1.1e-05    | 1.1e-05    | 1.1e-05    |   0.0 |  6.92
Modify  | 0          | 0          | 0          |   0.0 |  0.00
Other   |            | 3.875e-06  |            |       |  2.44

Nlocal:              1 ave           1 max           1 min
Histogram: 8 0 0 0 0 0 0 0 0 0
Nghost:            575 ave         575 max         575 min
Histogram: 8 0 0 0 0 0 0 0 0 0
Neighs:             73 ave          74 max          72 min
Histogram: 4 0 0 0 0 0 0 0 0 4
FullNghs:          146 ave         146 max         146 min
Histogram: 8 0 0 0 0 0 0 0 0 0

Total # of neighbors = 1168
Ave neighs/atom = 146
Neighbor list builds = 0
Dangerous builds = 0
variable  natoms equal "count(all)"
variable xlength equal "lx"
variable  volume equal "vol"
variable  etotal equal "etotal"
variable    ecoh equal "pe/v_natoms"
print "${xlength}, ${volume}, ${etotal}, ${ecoh}" append lattice_cohesive_energy.txt screen no

next i
jump SELF loop

change_box all x scale 1.0025 y scale 1.0025 z scale 1.0025 remap
Changing box ...
  triclinic box = (0.15253414 0.13762963 0.12826655) to (5.2747943 4.5625747 4.2521784) with tilt (-2.5597306 0 0)
  triclinic box = (0.15253414 0.13209844 0.12826655) to (5.2747943 4.5681059 4.2521784) with tilt (-2.5597306 0 0)
  triclinic box = (0.15253414 0.13209844 0.12311166) to (5.2747943 4.5681059 4.2573333) with tilt (-2.5597306 0 0)

run 1
Per MPI rank memory allocation (min/avg/max) = 8.547 | 8.547 | 8.548 Mbytes
   Step         PotEng         TotEng           Lx             Ly             Lz           Volume         Press           Pxx            Pyy            Pzz      
        98  -59.06623      -59.06623       5.1222602      4.4360074      4.1342217      93.939374     -6928.4804     -18729.867     -18728.77       16673.195    
        99  -59.06623      -59.06623       5.1222602      4.4360074      4.1342217      93.939374     -6928.4804     -18729.867     -18728.77       16673.195    
Loop time of 0.000161875 on 8 procs for 1 steps with 8 atoms

Performance: 533.745 ns/day, 0.045 hours/ns, 6177.606 timesteps/s, 49.421 katom-step/s
0.0% CPU use with 8 MPI tasks x 1 OpenMP threads

MPI task timing breakdown:
Section |  min time  |  avg time  |  max time  |%varavg| %total
---------------------------------------------------------------
Pair    | 0.000122   | 0.0001245  | 0.000126   |   0.0 | 76.91
Neigh   | 0          | 0          | 0          |   0.0 |  0.00
Comm    | 2.2e-05    | 2.25e-05   | 2.5e-05    |   0.0 | 13.90
Output  | 1e-05      | 1.0625e-05 | 1.1e-05    |   0.0 |  6.56
Modify  | 0          | 0          | 0          |   0.0 |  0.00
Other   |            | 4.25e-06   |            |       |  2.63

Nlocal:              1 ave           1 max           1 min
Histogram: 8 0 0 0 0 0 0 0 0 0
Nghost:            575 ave         575 max         575 min
Histogram: 8 0 0 0 0 0 0 0 0 0
[...]
Pair    | 0.000142   | 0.00014938 | 0.000172   |   0.0 | 66.69
Neigh   | 0          | 0          | 0          |   0.0 |  0.00
Comm    | 2.8e-05    | 4.9125e-05 | 5.8e-05    |   0.0 | 21.93
Output  | 1.5e-05    | 1.7125e-05 | 1.8e-05    |   0.0 |  7.65
Modify  | 0          | 0          | 0          |   0.0 |  0.00
Other   |            | 8.375e-06  |            |       |  3.74

Nlocal:              1 ave           1 max           1 min
Histogram: 8 0 0 0 0 0 0 0 0 0
Nghost:            342 ave         342 max         342 min
Histogram: 8 0 0 0 0 0 0 0 0 0
Neighs:             67 ave          68 max          66 min
Histogram: 4 0 0 0 0 0 0 0 0 4
FullNghs:          134 ave         134 max         134 min
Histogram: 8 0 0 0 0 0 0 0 0 0

Total # of neighbors = 1072
Ave neighs/atom = 134
Neighbor list builds = 0
Dangerous builds = 0
variable  natoms equal "count(all)"
variable xlength equal "lx"
variable  volume equal "vol"
variable  etotal equal "etotal"
variable    ecoh equal "pe/v_natoms"
print "${xlength}, ${volume}, ${etotal}, ${ecoh}" append lattice_cohesive_energy.txt screen no

next i
jump SELF loop

change_box all x scale 1.0025 y scale 1.0025 z scale 1.0025 remap
Changing box ...
  triclinic box = (0.034801247 0.035924209 0.033480251) to (5.3925272 4.6642801 4.3469647) with tilt (-2.5597306 0 0)
  triclinic box = (0.034801247 0.030138764 0.033480251) to (5.3925272 4.6700656 4.3469647) with tilt (-2.5597306 0 0)
  triclinic box = (0.034801247 0.030138764 0.028088396) to (5.3925272 4.6700656 4.3523566) with tilt (-2.5597306 0 0)

run 1
Per MPI rank memory allocation (min/avg/max) = 8.547 | 8.547 | 8.548 Mbytes
   Step         PotEng         TotEng           Lx             Ly             Lz           Volume         Press           Pxx            Pyy            Pzz      
       116  -57.064069     -57.064069      5.357726       4.6399268      4.3242682      107.49896     -397649.86     -404700.3      -401139.64     -387109.63    
       117  -57.064069     -57.064069      5.357726       4.6399268      4.3242682      107.49896     -397649.86     -404700.3      -401139.64     -387109.63    
Loop time of 0.0002265 on 8 procs for 1 steps with 8 atoms

Performance: 381.457 ns/day, 0.063 hours/ns, 4415.011 timesteps/s, 35.320 katom-step/s
0.0% CPU use with 8 MPI tasks x 1 OpenMP threads

MPI task timing breakdown:
Section |  min time  |  avg time  |  max time  |%varavg| %total
---------------------------------------------------------------
Pair    | 0.000141   | 0.00014975 | 0.000174   |   0.0 | 66.11
Neigh   | 0          | 0          | 0          |   0.0 |  0.00
Comm    | 2.7e-05    | 5.0375e-05 | 6e-05      |   0.0 | 22.24
Output  | 1.5e-05    | 1.7625e-05 | 1.9e-05    |   0.0 |  7.78
Modify  | 0          | 1.25e-07   | 1e-06      |   0.0 |  0.06
Other   |            | 8.625e-06  |            |       |  3.81

Nlocal:              1 ave           1 max           1 min
Histogram: 8 0 0 0 0 0 0 0 0 0
Nghost:            342 ave         342 max         342 min
Histogram: 8 0 0 0 0 0 0 0 0 0
Neighs:             67 ave          68 max          66 min
Histogram: 4 0 0 0 0 0 0 0 0 4
FullNghs:          134 ave         134 max         134 min
Histogram: 8 0 0 0 0 0 0 0 0 0

Total # of neighbors = 1072
Ave neighs/atom = 134
Neighbor list builds = 0
Dangerous builds = 0
variable  natoms equal "count(all)"
variable xlength equal "lx"
variable  volume equal "vol"
variable  etotal equal "etotal"
variable    ecoh equal "pe/v_natoms"
print "${xlength}, ${volume}, ${etotal}, ${ecoh}" append lattice_cohesive_energy.txt screen no

next i
jump SELF loop

change_box all x scale 1.0025 y scale 1.0025 z scale 1.0025 remap
Changing box ...
  triclinic box = (0.02810409 0.030138764 0.028088396) to (5.3992244 4.6700656 4.3523566) with tilt (-2.5597306 0 0)
  triclinic box = (0.02810409 0.024338856 0.028088396) to (5.3992244 4.6758655 4.3523566) with tilt (-2.5597306 0 0)
  triclinic box = (0.02810409 0.024338856 0.022683061) to (5.3992244 4.6758655 4.3577619) with tilt (-2.5597306 0 0)

run 1
Per MPI rank memory allocation (min/avg/max) = 8.547 | 8.547 | 8.548 Mbytes
   Step         PotEng         TotEng           Lx             Ly             Lz           Volume         Press           Pxx            Pyy            Pzz      
       117  -56.857829     -56.857829      5.3711203      4.6515266      4.3350789      108.30722     -410786.2      -417567.97     -413843.77     -400946.88    
       118  -56.857829     -56.857829      5.3711203      4.6515266      4.3350789      108.30722     -410786.2      -417567.97     -413843.77     -400946.88    
Loop time of 0.0002245 on 8 procs for 1 steps with 8 atoms

Performance: 384.855 ns/day, 0.062 hours/ns, 4454.343 timesteps/s, 35.635 katom-step/s
0.0% CPU use with 8 MPI tasks x 1 OpenMP threads

MPI task timing breakdown:
Section |  min time  |  avg time  |  max time  |%varavg| %total
---------------------------------------------------------------
Pair    | 0.000139   | 0.00014788 | 0.000172   |   0.0 | 65.87
Neigh   | 0          | 0          | 0          |   0.0 |  0.00
Comm    | 2.8e-05    | 4.9625e-05 | 5.8e-05    |   0.0 | 22.10
Output  | 1.6e-05    | 1.775e-05  | 1.9e-05    |   0.0 |  7.91
Modify  | 0          | 1.25e-07   | 1e-06      |   0.0 |  0.06
Other   |            | 9.125e-06  |            |       |  4.06

Nlocal:              1 ave           1 max           1 min
Histogram: 8 0 0 0 0 0 0 0 0 0
Nghost:            342 ave         342 max         342 min
Histogram: 8 0 0 0 0 0 0 0 0 0
Neighs:             67 ave          68 max          66 min
Histogram: 4 0 0 0 0 0 0 0 0 4
FullNghs:          134 ave         134 max         134 min
Histogram: 8 0 0 0 0 0 0 0 0 0

Total # of neighbors = 1072
Ave neighs/atom = 134
Neighbor list builds = 0
Dangerous builds = 0
variable  natoms equal "count(all)"
variable xlength equal "lx"
variable  volume equal "vol"
variable  etotal equal "etotal"
variable    ecoh equal "pe/v_natoms"
print "${xlength}, ${volume}, ${etotal}, ${ecoh}" append lattice_cohesive_energy.txt screen no

next i
jump SELF loop

change_box all x scale 1.0025 y scale 1.0025 z scale 1.0025 remap
Changing box ...
  triclinic box = (0.02139019 0.024338856 0.022683061) to (5.4059383 4.6758655 4.3577619) with tilt (-2.5597306 0 0)
  triclinic box = (0.02139019 0.018524448 0.022683061) to (5.4059383 4.6816799 4.3577619) with tilt (-2.5597306 0 0)
  triclinic box = (0.02139019 0.018524448 0.017264212) to (5.4059383 4.6816799 4.3631808) with tilt (-2.5597306 0 0)

run 1
Per MPI rank memory allocation (min/avg/max) = 8.547 | 8.547 | 8.548 Mbytes
   Step         PotEng         TotEng           Lx             Ly             Lz           Volume         Press           Pxx            Pyy            Pzz      
       118  -56.643525     -56.643525      5.3845481      4.6631554      4.3459166      109.12155     -423194.8      -429696.49     -425842.66     -414045.25    
       119  -56.643525     -56.643525      5.3845481      4.6631554      4.3459166      109.12155     -423194.8      -429696.49     -425842.66     -414045.25    
Loop time of 0.0002235 on 8 procs for 1 steps with 8 atoms

Performance: 386.577 ns/day, 0.062 hours/ns, 4474.273 timesteps/s, 35.794 katom-step/s
0.0% CPU use with 8 MPI tasks x 1 OpenMP threads

MPI task timing breakdown:
Section |  min time  |  avg time  |  max time  |%varavg| %total
---------------------------------------------------------------
Pair    | 0.00014    | 0.00015288 | 0.000171   |   0.0 | 68.40
Neigh   | 0          | 0          | 0          |   0.0 |  0.00
Comm    | 2.7e-05    | 4.3875e-05 | 5.6e-05    |   0.0 | 19.63
Output  | 1.6e-05    | 1.7625e-05 | 1.9e-05    |   0.0 |  7.89
Modify  | 0          | 1.25e-07   | 1e-06      |   0.0 |  0.06
Other   |            | 9e-06      |            |       |  4.03

Nlocal:              1 ave           1 max           1 min
Histogram: 8 0 0 0 0 0 0 0 0 0
Nghost:            342 ave         342 max         342 min
Histogram: 8 0 0 0 0 0 0 0 0 0
Neighs:             67 ave          68 max          66 min
Histogram: 4 0 0 0 0 0 0 0 0 4
FullNghs:          134 ave         134 max         134 min
Histogram: 8 0 0 0 0 0 0 0 0 0

Total # of neighbors = 1072
Ave neighs/atom = 134
Neighbor list builds = 0
Dangerous builds = 0
variable  natoms equal "count(all)"
variable xlength equal "lx"
variable  volume equal "vol"
variable  etotal equal "etotal"
variable    ecoh equal "pe/v_natoms"
print "${xlength}, ${volume}, ${etotal}, ${ecoh}" append lattice_cohesive_energy.txt screen no

next i
jump SELF loop

change_box all x scale 1.0025 y scale 1.0025 z scale 1.0025 remap
Changing box ...
  triclinic box = (0.014659504 0.018524448 0.017264212) to (5.412669 4.6816799 4.3631808) with tilt (-2.5597306 0 0)
  triclinic box = (0.014659504 0.012695503 0.017264212) to (5.412669 4.6875088 4.3631808) with tilt (-2.5597306 0 0)
  triclinic box = (0.014659504 0.012695503 0.011831816) to (5.412669 4.6875088 4.3686132) with tilt (-2.5597306 0 0)

run 1
Per MPI rank memory allocation (min/avg/max) = 8.547 | 8.547 | 8.548 Mbytes
   Step         PotEng         TotEng           Lx             Ly             Lz           Volume         Press           Pxx            Pyy            Pzz      
       119  -56.421418     -56.421418      5.3980095      4.6748133      4.3567814      109.94201     -434898.52     -441107.34     -437161.69     -426426.53    
       120  -56.421418     -56.421418      5.3980095      4.6748133      4.3567814      109.94201     -434898.52     -441107.34     -437161.69     -426426.53    
Loop time of 0.00022425 on 8 procs for 1 steps with 8 atoms

Performance: 385.284 ns/day, 0.062 hours/ns, 4459.309 timesteps/s, 35.674 katom-step/s
0.0% CPU use with 8 MPI tasks x 1 OpenMP threads

MPI task timing breakdown:
Section |  min time  |  avg time  |  max time  |%varavg| %total
---------------------------------------------------------------
Pair    | 0.000137   | 0.000147   | 0.000172   |   0.0 | 65.55
Neigh   | 0          | 0          | 0          |   0.0 |  0.00
Comm    | 2.7e-05    | 5.075e-05  | 6.2e-05    |   0.0 | 22.63
Output  | 1.5e-05    | 1.7375e-05 | 1.9e-05    |   0.0 |  7.75
Modify  | 0          | 2.5e-07    | 1e-06      |   0.0 |  0.11
Other   |            | 8.875e-06  |            |       |  3.96

Nlocal:              1 ave           1 max           1 min
Histogram: 8 0 0 0 0 0 0 0 0 0
Nghost:            342 ave         342 max         342 min
Histogram: 8 0 0 0 0 0 0 0 0 0
Neighs:             67 ave          68 max          66 min
Histogram: 4 0 0 0 0 0 0 0 0 4
FullNghs:          134 ave         134 max         134 min
Histogram: 8 0 0 0 0 0 0 0 0 0

Total # of neighbors = 1072
Ave neighs/atom = 134
Neighbor list builds = 0
Dangerous builds = 0
variable  natoms equal "count(all)"
variable xlength equal "lx"
variable  volume equal "vol"
variable  etotal equal "etotal"
variable    ecoh equal "pe/v_natoms"
print "${xlength}, ${volume}, ${etotal}, ${ecoh}" append lattice_cohesive_energy.txt screen no

next i
jump SELF loop

change_box all x scale 1.0025 y scale 1.0025 z scale 1.0025 remap
Changing box ...
  triclinic box = (0.0079119926 0.012695503 0.011831816) to (5.4194165 4.6875088 4.3686132) with tilt (-2.5597306 0 0)
  triclinic box = (0.0079119926 0.0068519866 0.011831816) to (5.4194165 4.6933523 4.3686132) with tilt (-2.5597306 0 0)
  triclinic box = (0.0079119926 0.0068519866 0.0063858395) to (5.4194165 4.6933523 4.3740592) with tilt (-2.5597306 0 0)

run 1
Per MPI rank memory allocation (min/avg/max) = 8.547 | 8.547 | 8.548 Mbytes
   Step         PotEng         TotEng           Lx             Ly             Lz           Volume         Press           Pxx            Pyy            Pzz      
       120  -56.191767     -56.191767      5.4115045      4.6865004      4.3676733      110.76864     -445919.72     -451821.6      -447825.51     -438112.05    
       121  -56.191767     -56.191767      5.4115045      4.6865004      4.3676733      110.76864     -445919.72     -451821.6      -447825.51     -438112.05    
Loop time of 0.000255375 on 8 procs for 1 steps with 8 atoms

Performance: 338.326 ns/day, 0.071 hours/ns, 3915.810 timesteps/s, 31.326 katom-step/s
0.0% CPU use with 8 MPI tasks x 1 OpenMP threads

MPI task timing breakdown:
Section |  min time  |  avg time  |  max time  |%varavg| %total
---------------------------------------------------------------
Pair    | 0.000162   | 0.00017163 | 0.000194   |   0.0 | 67.21
Neigh   | 0          | 0          | 0          |   0.0 |  0.00
Comm    | 2.8e-05    | 4.9375e-05 | 5.9e-05    |   0.0 | 19.33
Output  | 1.7e-05    | 1.9625e-05 | 2.7e-05    |   0.0 |  7.68
Modify  | 0          | 3.75e-07   | 1e-06      |   0.0 |  0.15
Other   |            | 1.437e-05  |            |       |  5.63

Nlocal:              1 ave           1 max           1 min
Histogram: 8 0 0 0 0 0 0 0 0 0
Nghost:            342 ave         342 max         342 min
Histogram: 8 0 0 0 0 0 0 0 0 0
Neighs:             67 ave          68 max          66 min
Histogram: 4 0 0 0 0 0 0 0 0 4
FullNghs:          134 ave         134 max         134 min
Histogram: 8 0 0 0 0 0 0 0 0 0

Total # of neighbors = 1072
Ave neighs/atom = 134
Neighbor list builds = 0
Dangerous builds = 0
variable  natoms equal "count(all)"
variable xlength equal "lx"
variable  volume equal "vol"
variable  etotal equal "etotal"
variable    ecoh equal "pe/v_natoms"
print "${xlength}, ${volume}, ${etotal}, ${ecoh}" append lattice_cohesive_energy.txt screen no

next i
jump SELF loop

change_box all x scale 1.0025 y scale 1.0025 z scale 1.0025 remap
Changing box ...
  triclinic box = (0.001147612 0.0068519866 0.0063858395) to (5.4261809 4.6933523 4.3740592) with tilt (-2.5597306 0 0)
  triclinic box = (0.001147612 0.00099386115 0.0063858395) to (5.4261809 4.6992105 4.3740592) with tilt (-2.5597306 0 0)
  triclinic box = (0.001147612 0.00099386115 0.00092624784) to (5.4261809 4.6992105 4.3795188) with tilt (-2.5597306 0 0)

run 1
Per MPI rank memory allocation (min/avg/max) = 8.547 | 8.547 | 8.548 Mbytes
   Step         PotEng         TotEng           Lx             Ly             Lz           Volume         Press           Pxx            Pyy            Pzz      
       121  -55.954823     -55.954823      5.4250332      4.6982166      4.3785925      111.60148     -456280.2      -461859.95     -457857.98     -449122.68    
       122  -55.954823     -55.954823      5.4250332      4.6982166      4.3785925      111.60148     -456280.2      -461859.95     -457857.98     -449122.68    
Loop time of 0.0002285 on 8 procs for 1 steps with 8 atoms

Performance: 378.118 ns/day, 0.063 hours/ns, 4376.368 timesteps/s, 35.011 katom-step/s
0.0% CPU use with 8 MPI tasks x 1 OpenMP threads

MPI task timing breakdown:
Section |  min time  |  avg time  |  max time  |%varavg| %total
---------------------------------------------------------------
Pair    | 0.000144   | 0.00015212 | 0.000175   |   0.0 | 66.58
Neigh   | 0          | 0          | 0          |   0.0 |  0.00
Comm    | 2.8e-05    | 4.9e-05    | 5.8e-05    |   0.0 | 21.44
Output  | 1.6e-05    | 1.775e-05  | 1.9e-05    |   0.0 |  7.77
Modify  | 0          | 3.75e-07   | 2e-06      |   0.0 |  0.16
Other   |            | 9.25e-06   |            |       |  4.05

Nlocal:              1 ave           1 max           1 min
Histogram: 8 0 0 0 0 0 0 0 0 0
Nghost:            342 ave         342 max         342 min
Histogram: 8 0 0 0 0 0 0 0 0 0
Neighs:             67 ave          68 max          66 min
Histogram: 4 0 0 0 0 0 0 0 0 4
FullNghs:          134 ave         134 max         134 min
Histogram: 8 0 0 0 0 0 0 0 0 0

Total # of neighbors = 1072
Ave neighs/atom = 134
Neighbor list builds = 0
Dangerous builds = 0
variable  natoms equal "count(all)"
variable xlength equal "lx"
variable  volume equal "vol"
variable  etotal equal "etotal"
variable    ecoh equal "pe/v_natoms"
print "${xlength}, ${volume}, ${etotal}, ${ecoh}" append lattice_cohesive_energy.txt screen no

next i
jump SELF loop

change_box all x scale 1.0025 y scale 1.0025 z scale 1.0025 remap
Changing box ...
  triclinic box = (-0.0056336796 0.00099386115 0.00092624784) to (5.4329621 4.6992105 4.3795188) with tilt (-2.5597306 0 0)
  triclinic box = (-0.0056336796 -0.0048789096 0.00092624784) to (5.4329621 4.7050832 4.3795188) with tilt (-2.5597306 0 0)
  triclinic box = (-0.0056336796 -0.0048789096 -0.0045469928) to (5.4329621 4.7050832 4.384992) with tilt (-2.5597306 0 0)

run 1
Per MPI rank memory allocation (min/avg/max) = 8.547 | 8.547 | 8.548 Mbytes
   Step         PotEng         TotEng           Lx             Ly             Lz           Volume         Press           Pxx            Pyy            Pzz      
       122  -55.710832     -55.710832      5.4385958      4.7099621      4.389539       112.44059     -466001.16     -471242.73     -467282.32     -459478.44    
       123  -55.710832     -55.710832      5.4385958      4.7099621      4.389539       112.44059     -466001.16     -471242.73     -467282.32     -459478.44    
Loop time of 0.000223875 on 8 procs for 1 steps with 8 atoms

Performance: 385.930 ns/day, 0.062 hours/ns, 4466.778 timesteps/s, 35.734 katom-step/s
0.0% CPU use with 8 MPI tasks x 1 OpenMP threads

MPI task timing breakdown:
Section |  min time  |  avg time  |  max time  |%varavg| %total
---------------------------------------------------------------
Pair    | 0.000142   | 0.00014988 | 0.000171   |   0.0 | 66.95
Neigh   | 0          | 0          | 0          |   0.0 |  0.00
Comm    | 2.8e-05    | 4.7875e-05 | 5.6e-05    |   0.0 | 21.38
Output  | 1.6e-05    | 1.7375e-05 | 1.9e-05    |   0.0 |  7.76
Modify  | 0          | 1.25e-07   | 1e-06      |   0.0 |  0.06
Other   |            | 8.625e-06  |            |       |  3.85

Nlocal:              1 ave           1 max           1 min
Histogram: 8 0 0 0 0 0 0 0 0 0
Nghost:            342 ave         342 max         342 min
Histogram: 8 0 0 0 0 0 0 0 0 0
Neighs:             67 ave          68 max          66 min
Histogram: 4 0 0 0 0 0 0 0 0 4
FullNghs:          134 ave         134 max         134 min
Histogram: 8 0 0 0 0 0 0 0 0 0

Total # of neighbors = 1072
Ave neighs/atom = 134
Neighbor list builds = 0
Dangerous builds = 0
variable  natoms equal "count(all)"
variable xlength equal "lx"
variable  volume equal "vol"
variable  etotal equal "etotal"
variable    ecoh equal "pe/v_natoms"
print "${xlength}, ${volume}, ${etotal}, ${ecoh}" append lattice_cohesive_energy.txt screen no

next i
jump SELF loop

print "-------------------------------------------------------------"
-------------------------------------------------------------
print "Show results of 1st step (Running Minimization)"
Show results of 1st step (Running Minimization)
print "The number of atoms = ${natoms};"
The number of atoms = 8;
print "The lattice constant, x (Angstoms) = ${x0};"
The lattice constant, x (Angstoms) = 5.43859582911309;
print "The lattice constant, y (Angstoms) = ${y0};"
The lattice constant, y (Angstoms) = 4.70996214892552;
print "The lattice constant, z (Angstoms) = ${z0};"
The lattice constant, z (Angstoms) = 4.38953898558848;
print "The volume (Angstoms^3) = ${v0};"
The volume (Angstoms^3) = 112.440589236325;
print "The total energy (eV) = ${etot0};"
The total energy (eV) = -55.7108323096421;
print "The cohesive energy (eV/atom) = ${ecoh0};"
The cohesive energy (eV/atom) = -6.96385403870526;
print "-------------------------------------------------------------"
-------------------------------------------------------------
print "Simulations completed !"
Simulations completed !
Total wall time: 0:00:00
