ITEM: TIMESTEP
0
ITEM: NUMBER OF ATOMS
12960
ITEM: BOX BOUNDS xy xz yz pp pp pp
-2.1300586426096402e-01 2.1803405864260888e+01 0.0000000000000000e+00
-2.1487285383260257e-01 2.1805272853832129e+01 0.0000000000000000e+00
6.1471058551430247e-01 3.0850528941448414e+02 0.0000000000000000e+00
ITEM: ATOMS id type x y z c_peratom fx fy fz 
6 1 0.677923 0.79519 2.36437 -8.72202 0.259026 2.45678 1.19113 
222 1 0.439492 0.826894 7.73986 -7.1124 0.77348 -0.135897 -2.54262 
582 1 0.26865 15.4691 12.7783 -7.46379 -0.7101 -1.37598 -0.865863 
42 1 0.603879 4.25039 3.03253 -7.83303 -1.77502 -0.748647 -0.0675872 
258 1 0.757241 4.50592 8.20789 -7.75911 -0.0431288 -0.427601 -0.236804 
512 2 4.50887 10.1798 11.6204 -28.4241 0.954841 -1.78249 0.307034 
78 1 0.677272 8.46682 2.53891 -8.52314 -0.0160666 -0.281896 -2.28019 
294 1 0.870709 8.37134 7.78745 -7.60102 0.161817 -1.17783 -2.39165 
578 2 0.609133 17.5833 11.5933 -29.307 0.0277131 -0.225456 1.8494 
114 1 0.32332 11.6807 3.39769 -7.71732 2.99859 0.716065 -1.3502 
330 1 0.79931 11.7977 8.13044 -7.7951 -0.369941 2.10223 -1.00629 
117 1 5.69754 14.9419 0.705766 -7.32775 3.51301 0.199204 1.76944 
150 1 0.685557 15.6622 2.43615 -7.59174 2.40841 0.546951 -0.00982848 
366 1 0.636945 15.9166 7.65699 -8.31009 0.549718 -2.89422 1.15676 
12881 1 14.3638 12.1815 1.00817 -7.87497 -0.534043 0.0771665 -1.63632 
186 1 0.787965 18.9253 2.87368 -8.55307 -1.17439 0.459951 0.191638 
402 1 0.512738 19.1322 8.18995 -7.26875 -0.321656 1.89502 -2.23214 
75 1 2.20667 11.3896 0.834945 -7.72493 -0.21416 -1.10265 -1.32 
12 1 4.54904 0.493879 3.29199 -8.0016 -2.55173 1.51579 -0.582874 
228 1 4.24439 0.76124 8.03176 -7.61001 1.28501 -0.303403 0.0769024 
3 1 2.46412 3.88132 1.00122 -8.09044 -0.126486 -0.692096 -0.139416 
48 1 4.68816 4.9923 2.49648 -8.07194 -3.36729 -3.62684 -2.56161 
264 1 4.39704 4.92321 7.66433 -6.93088 -0.747732 -1.64553 -2.44857 
12929 1 21.4408 19.5792 0.681008 -7.65426 1.52685 -0.591101 2.26968 
84 1 4.06813 8.36732 3.05118 -8.07584 0.581494 -2.49849 -0.946678 
300 1 4.2907 8.36331 8.054 -7.66871 0.0842551 -0.349647 -0.0432809 
500 2 18.894 6.41606 11.7613 -28.7397 2.31644 -0.798807 -0.0647619 
120 1 4.69214 12.2947 2.25851 -7.88398 0.794988 -1.87508 0.723494 
336 1 4.43053 12.036 7.63492 -7.05927 0.043266 1.35013 -2.44766 
45 1 5.72442 7.55114 0.928924 -8.30968 0.79033 0.171482 -0.576737 
156 1 4.05522 15.1972 3.30716 -8.03069 0.479296 0.420458 1.16791 
372 1 4.29478 15.6508 8.25657 -9.11183 -0.412401 1.06453 -0.181271 
496 1 17.1736 7.33509 12.3879 -7.864 1.57208 -1.3601 0.593468 
192 1 4.52835 19.4127 2.23685 -8.59725 -0.0693134 -0.438003 1.87916 
408 1 4.26189 19.7746 7.51994 -7.01869 1.73521 -4.18403 1.69715 
87 1 9.50143 11.0112 0.673597 -7.359 1.61231 -0.985808 1.1879 
18 1 8.19767 1.09841 2.78775 -8.50108 1.31085 1.18295 -3.41181 
234 1 7.90193 1.35552 7.43135 -8.55518 -0.566173 0.0415453 0.573395 
129 1 13.54 14.8853 0.8581 -7.54055 -0.173615 -1.70383 -0.110059 
54 1 8.01924 4.35302 3.27711 -6.99368 0.442794 -2.05558 -0.549476 
270 1 7.80428 4.92461 8.24474 -8.26737 2.53911 -1.96125 -0.798366 
12827 1 2.90643 8.40435 0.697621 -8.48373 0.12553 0.613999 0.938211 
90 1 8.01488 8.65254 2.26076 -7.76457 -0.223387 -1.80662 1.81636 
306 1 8.01891 8.41564 7.7219 -7.53307 0.307714 -0.916385 -1.2124 
620 2 4.57698 21.3972 11.7594 -29.4906 0.153978 -1.22437 -0.427931 
126 1 7.77001 11.8371 3.30297 -7.95485 -0.53623 1.24462 -1.10284 
342 1 8.16587 12.4402 8.27747 -8.19284 -0.0827073 -1.07199 -0.5902 
34 1 20.6936 2.46167 2.31637 -8.21333 2.04887 0.678757 1.08131 
162 1 8.47763 15.8608 2.24212 -8.67614 0.257619 -0.31674 0.886857 
378 1 7.90961 15.7385 7.49557 -7.96068 -2.13574 0.574959 1.23787 
141 1 20.9323 14.9128 0.694395 -6.42956 -0.537555 0.947459 0.797922 
198 1 7.79722 18.9027 2.82288 -7.40676 1.93681 1.33132 2.15127 
414 1 8.20797 19.4264 8.38104 -7.50092 -3.78648 -0.627229 -1.75772 
12851 1 18.1184 8.19453 0.695191 -8.26622 -0.298768 -0.464577 1.29503 
24 1 11.4411 0.488772 3.29452 -7.78097 0.0378274 0.880691 -0.287053 
240 1 11.6836 0.872693 8.01667 -7.44383 -2.67864 0.940392 -0.268018 
136 1 17.1317 13.6413 2.2475 -8.35125 0.123487 -2.79191 2.26576 
60 1 12.0257 4.96155 2.22337 -8.24965 -1.02535 0.880149 1.00495 
276 1 11.8283 4.64702 7.8394 -8.35882 -0.14499 0.0850369 -1.45891 
12923 1 18.1573 15.714 0.667723 -7.13136 -1.05355 1.74141 0.0401172 
96 1 11.3928 8.04359 3.15081 -8.07785 2.1253 0.734022 0.512602 
312 1 11.8171 8.51292 8.12313 -8.22457 -3.49604 -0.207184 1.19313 
316 1 17.2919 10.1378 8.04542 -8.88198 0.28182 -0.0997368 0.698688 
132 1 11.835 11.9394 2.67481 -8.27251 1.13005 0.408733 0.201619 
348 1 11.6292 12.0698 7.62891 -9.22794 -1.92847 -1.91676 -0.733022 
12857 1 21.5276 12.2522 0.676717 -7.44235 0.604138 -1.01651 1.20702 
168 1 11.5121 15.4513 3.14233 -8.36585 -0.668952 -0.438194 0.158293 
384 1 11.8932 16.1097 8.26271 -8.08038 -1.68537 -1.36041 0.538459 
12767 1 10.5373 1.10079 0.930186 -8.08355 0.678512 1.00792 -2.34641 
204 1 12.3747 19.3692 2.05847 -8.6199 -1.67821 0.331237 0.537937 
420 1 11.6546 19.4629 7.43766 -9.17675 -0.549697 -0.0562604 0.40766 
388 1 17.138 17.3693 7.87533 -7.96023 -1.22212 -1.37917 3.78391 
30 1 15.6655 1.00512 2.38628 -7.78439 1.02586 1.81858 0.331832 
246 1 15.2234 0.854309 7.4298 -7.09908 1.2278 0.516389 0.255428 
12797 1 7.19466 4.86936 0.685138 -8.39375 -1.08603 -0.752131 -0.595721 
66 1 14.8826 4.41941 3.14726 -8.16558 4.72497 0.473379 -0.388852 
282 1 15.3737 4.622 8.21058 -8.3686 -1.7658 1.79888 -1.40293 
492 1 11.0239 4.24106 12.78 -7.73081 1.61716 0.853703 -1.53256 
102 1 15.5538 8.40208 2.24435 -7.74869 2.03782 -0.199418 1.36381 
318 1 15.6032 8.3529 7.77597 -7.96236 -1.07033 -0.136859 -1.46751 
346 1 13.1725 13.683 8.09172 -8.66487 2.96081 1.01242 -0.157212 
138 1 15.4499 11.4517 3.28279 -7.90097 0.431509 1.49398 1.09181 
354 1 15.5298 11.9405 8.4595 -8.74596 -1.82535 0.877349 -1.55827 
172 1 16.9214 17.5834 3.4144 -7.44409 3.20256 0.907629 -1.22035 
174 1 15.7641 15.7712 2.5224 -7.67305 -1.00968 -1.70104 -2.48035 
390 1 15.2436 15.5642 7.60122 -8.85205 1.09236 -0.128167 -0.622875 
382 1 13.5772 17.564 7.47636 -7.64898 -0.772921 0.972427 0.364152 
210 1 15.116 19.2299 3.19819 -7.97786 -1.24642 -0.318899 -0.398497 
426 1 15.3167 19.2431 8.25497 -8.4962 2.06507 0.646304 -0.432394 
166 1 13.5721 17.0025 2.20389 -7.89913 -1.24694 1.8566 1.55571 
36 1 18.8392 0.772006 2.90094 -8.51621 -1.34724 0.181866 1.29201 
252 1 18.934 1.17708 8.37693 -8.252 1.2613 -1.85123 -0.667029 
100 1 17.6206 9.88593 3.21963 -7.89385 -0.171067 2.6924 -0.348491 
72 1 19.3126 4.56845 2.43794 -7.87783 0.0212803 1.20693 -0.729624 
288 1 19.0761 4.46904 7.43637 -8.04198 -1.12594 2.16648 1.03372 
280 1 17.2153 6.51891 7.46485 -8.53855 0.738591 -2.00063 0.750311 
108 1 19.0839 7.79792 3.35583 -7.60767 -1.18916 -0.645721 -0.788111 
324 1 19.0932 8.34323 8.24207 -8.7171 0.109463 -1.85067 -2.5707 
322 1 21.0534 9.96519 7.64519 -7.67726 -2.39653 0.771795 0.946316 
144 1 19.2332 12.0447 2.70062 -7.79225 -3.03791 0.984979 -1.95786 
360 1 19.1452 11.9355 7.38543 -7.49623 0.00734534 -1.07327 0.538501 
28 1 17.4338 3.05029 3.11443 -8.6128 -1.64977 -1.80231 -1.33524 
180 1 18.8342 15.3428 3.09064 -8.26188 -1.36284 1.96108 2.48504 
396 1 19.108 15.7907 8.31637 -8.44744 -1.32579 -0.425679 -0.416279 
106 1 20.5932 10.0776 2.4866 -7.32369 -0.156983 -2.48621 -1.6077 
216 1 18.8895 19.3991 2.56573 -7.01617 0.520255 -2.14727 -0.219396 
432 1 19.059 19.1221 7.9839 -8.20063 -0.530704 0.313648 -1.81825 
458 2 15.636 2.64576 11.5367 -28.6072 -0.483154 -1.57268 -0.363399 
5 1 0.717311 1.86261 5.1098 -7.56857 -3.23147 -1.16254 -2.83192 
221 1 0.837321 0.0483001 9.84806 -7.38446 -1.45334 -0.374952 4.01778 
41 1 21.598 4.7979 5.58098 -7.73925 0.832785 -0.368783 2.03238 
257 1 1.46711 4.64764 11.0408 -7.63429 1.55287 -2.84923 -0.842544 
77 1 0.263244 9.20654 4.83624 -7.47098 4.86819 0.326726 1.28392 
293 1 0.707909 6.83616 9.84125 -7.43943 2.13229 2.06185 0.125113 
113 1 21.599 12.2401 5.89195 -7.92645 0.821417 0.46625 1.41507 
329 1 1.33179 11.9152 10.6115 -7.61472 0.275898 -1.14786 0.0158528 
149 1 0.153978 16.7935 4.67839 -8.05409 -0.169326 -0.802367 0.195617 
365 1 0.457195 14.6359 10.0543 -7.87877 1.15019 1.01841 -0.572053 
185 1 21.7496 19.4001 5.58991 -8.37936 -0.000372502 -1.07063 0.0550183 
401 1 1.52697 19.3215 10.5823 -7.32455 -0.221378 -0.522754 2.64726 
11 1 3.19647 1.14105 5.74068 -7.73594 -0.449434 -0.815877 -0.753185 
227 1 5.22604 1.06756 10.6964 -7.89488 -0.216671 1.64945 0.73744 
47 1 4.05939 5.46227 4.92556 -8.2571 -1.69803 0.887276 0.366823 
263 1 4.25444 3.82079 9.8826 -7.816 2.32442 -2.14322 1.85877 
83 1 3.25505 8.39818 5.46726 -7.74602 -0.242438 0.609807 2.36221 
299 1 5.19493 8.32227 10.7083 -7.98531 -0.611342 0.637482 0.273585 
119 1 4.29518 12.8312 5.02969 -7.98407 -1.96485 2.28725 -0.37528 
335 1 4.59163 11.2761 9.75892 -7.91972 -0.282157 -0.947162 4.97014 
155 1 2.87073 15.7735 5.99386 -8.14177 1.62994 -1.64686 -1.22484 
371 1 5.35166 15.5495 10.8575 -8.47341 -1.96586 0.0216155 1.48329 
191 1 3.99981 20.2277 4.97901 -8.13155 1.06667 -1.83929 -3.44605 
407 1 4.17224 18.4076 10.0497 -7.98541 2.00451 0.0337168 -2.46532 
17 1 7.61042 2.06728 4.89481 -7.74047 3.59368 1.75972 3.0365 
233 1 7.84949 0.583463 10.111 -7.67498 0.872901 -2.69016 -0.471526 
53 1 6.93446 4.95689 5.80766 -8.209 -0.627337 0.0706883 -0.10074 
269 1 9.1349 4.89879 10.9669 -7.79465 -0.333665 -1.43316 -0.859058 
89 1 7.93092 9.42004 5.08894 -7.85422 -1.75552 -2.21718 -2.72224 
305 1 8.21327 7.40303 9.99842 -7.32656 -0.311827 -1.21031 0.488829 
125 1 7.09311 12.049 5.92689 -7.92022 -1.13732 1.56091 0.779845 
341 1 8.89856 12.2246 10.7512 -8.01289 1.42345 -2.02815 0.351372 
161 1 7.83002 16.7587 4.85626 -8.21284 -0.601747 0.108727 -0.315346 
377 1 8.17946 15.0415 10.1366 -7.91335 0.527906 1.16859 -2.27545 
197 1 6.79368 19.7577 5.61149 -8.5372 1.751 -0.632924 1.56847 
413 1 8.80274 19.2176 11.0154 -7.41363 1.3566 2.45238 -0.946365 
23 1 10.6573 1.22917 5.54743 -8.05565 0.787086 -0.82378 2.7935 
239 1 12.3159 0.954753 10.735 -8.07018 0.673115 -2.83864 0.709439 
59 1 11.3635 5.41926 4.93367 -8.7161 2.22699 1.52591 0.957738 
275 1 11.7724 3.68841 10.1461 -8.04375 -0.41811 1.13551 -0.658568 
95 1 10.3876 8.61136 5.87671 -7.35263 1.3227 0.541104 0.669495 
311 1 12.6848 8.28101 10.9383 -7.5404 -0.844973 -0.576265 -0.344334 
131 1 11.6803 13.1565 4.80598 -8.2002 0.119861 -0.677327 0.226583 
347 1 11.8883 10.8646 10.0225 -9.07215 -0.380268 1.88531 -4.01227 
167 1 10.4608 15.9944 5.66082 -7.85386 0.871349 -0.046528 2.4431 
383 1 12.719 15.4356 10.9624 -7.51292 -1.18464 -1.53526 -0.399636 
203 1 11.5093 20.1645 4.68381 -9.3042 -0.493613 -0.769588 0.450215 
419 1 11.6953 18.7654 10.114 -8.27635 1.11557 0.796129 -0.977204 
29 1 15.0338 1.78623 4.78314 -7.68751 1.41376 0.672413 0.584863 
245 1 15.5181 -0.109393 9.92919 -7.12821 1.66904 -0.269919 -1.53557 
65 1 14.1018 4.92186 5.69465 -8.55862 0.939816 0.873478 2.41847 
281 1 16.3208 4.43588 10.6849 -8.25523 -1.14695 -0.641285 1.25447 
101 1 15.1348 9.01052 5.14017 -8.15259 1.43591 2.1943 0.083194 
317 1 15.4739 7.37596 9.98973 -7.48987 0.202937 0.480132 0.222372 
137 1 14.2298 11.9889 6.13365 -8.80963 1.06983 0.817474 -0.895031 
353 1 16.2059 11.9301 11.0764 -7.69611 0.938673 -1.41718 -0.465012 
173 1 15.1216 16.4621 4.86073 -7.97568 -1.57251 1.19482 2.09672 
389 1 15.641 14.478 9.76816 -8.58184 -3.13949 0.556247 -0.853955 
209 1 14.0542 19.4782 5.74931 -8.29525 0.582285 -0.384826 0.202338 
425 1 16.1635 19.0463 10.9012 -8.15276 -0.617966 -0.432102 -1.62669 
35 1 18.2757 0.80488 5.83931 -8.13063 -0.377675 0.773846 -1.32802 
251 1 20.1389 0.792657 11.3593 -7.42763 -1.4309 -0.58136 -3.0327 
71 1 18.8057 5.38675 4.98482 -8.25989 1.30762 1.66762 -0.0805214 
287 1 19.2025 3.50693 9.86916 -7.09258 -1.77037 1.08703 -0.857319 
107 1 18.0375 8.47944 5.81203 -8.26449 -0.564498 -0.343143 -0.0698429 
323 1 19.5888 8.2526 10.5875 -7.68875 2.06841 -1.08272 2.59074 
143 1 18.9875 13.1866 4.85884 -8.37735 -1.59826 1.33302 0.769485 
359 1 19.2836 10.8679 9.81939 -7.93065 0.711095 1.03625 -0.504971 
179 1 18.0183 15.7938 5.80057 -8.39337 -0.1147 -1.65589 0.390693 
395 1 19.8468 15.5225 11.0788 -7.71857 0.960791 0.288484 -1.9965 
215 1 18.8939 20.063 4.96068 -7.87724 0.719662 -0.04937 1.76393 
431 1 18.9764 18.4809 10.4288 -7.82649 1.81885 -0.434671 -2.69283 
2 2 0.628474 2.86595 1.40931 -28.0129 -0.205021 1.67666 1.39603 
218 2 0.737964 2.83283 6.78876 -29.317 -1.73755 -1.35223 1.44508 
644 2 19.1381 20.6569 11.6804 -29.3049 0.985934 1.32153 0.367355 
38 2 0.55599 6.49372 1.79661 -28.8128 -2.48421 -1.78544 -3.28001 
254 2 0.601112 6.4749 6.7161 -29.267 -0.972049 -0.910658 0.939858 
470 2 0.884578 6.27153 11.7093 -28.2549 -1.82017 -0.182842 0.0498623 
74 2 0.423651 10.4056 1.6935 -29.2165 0.0512934 0.94502 -0.729689 
290 2 0.701647 10.188 6.5699 -29.8186 0.402065 0.599868 0.586815 
506 2 0.889392 9.80554 11.7014 -28.7803 0.039414 2.33919 0.788222 
110 2 0.574196 13.7411 1.56009 -29.7108 -2.58104 1.24835 -0.743217 
326 2 0.498445 13.8657 6.71813 -28.1928 0.266081 0.0114708 0.34107 
542 2 0.69348 13.4565 11.8493 -29.1941 0.767952 2.45415 -1.99912 
146 2 0.45833 17.5063 1.3882 -29.0914 -0.729068 -0.428234 0.402847 
362 2 0.667001 17.6362 6.49695 -29.35 -1.37218 -0.703362 2.28554 
189 1 6.23084 0.268372 0.949182 -7.9816 -1.08231 3.41039 -2.38795 
182 2 0.464255 20.9856 1.57224 -28.9826 0.473916 0.2899 -0.01911 
398 2 0.481764 20.9038 6.60415 -28.7887 0.486292 1.98699 0.898961 
498 1 15.328 5.17018 13.1477 -8.45475 2.21591 -1.33405 0.796483 
8 2 4.22211 2.77774 1.79381 -27.5339 -1.00179 0.798922 -1.975 
224 2 4.07265 2.71487 6.58892 -28.9488 -2.12563 0.666674 0.289569 
440 2 4.46947 2.87894 11.6487 -28.2304 -2.0006 -2.00719 -0.492207 
44 2 4.04596 6.64357 1.7374 -28.25 0.806094 1.10833 -2.23637 
260 2 4.20062 6.79457 6.549 -29.7025 0.34758 -0.937298 1.23531 
15 1 9.74145 4.03321 0.734305 -7.54052 -0.158397 0.175334 -1.70949 
80 2 4.00991 10.0905 1.67921 -29.0968 -0.149522 1.05734 0.615098 
296 2 4.34839 10.1205 6.62233 -30.0781 -2.3862 0.48484 1.02352 
632 2 11.761 20.7648 11.4762 -28.4296 -1.01545 0.459584 -0.873248 
116 2 4.25041 14.0077 1.64325 -29.2763 -1.24386 2.09926 -1.49993 
332 2 4.3866 13.9436 6.86417 -28.1071 -1.33304 -0.89668 -1.22111 
548 2 4.59392 13.4769 11.7055 -28.7299 -1.01883 1.14564 -0.164184 
152 2 4.17244 17.5885 1.35012 -28.4977 -0.392134 -1.12956 0.296047 
368 2 4.15598 17.115 6.61533 -27.5966 -1.71863 2.54969 0.0662205 
584 2 4.32902 17.1532 11.5506 -28.5526 0.178016 2.00834 2.18891 
188 2 4.62925 21.3152 1.6416 -29.0171 -1.00944 -0.132093 -0.392046 
404 2 4.14481 21.3645 6.40445 -29.1744 0.10363 1.46437 1.81213 
614 2 1.05142 21.0029 11.7512 -29.4433 -1.22901 -0.325301 -1.80645 
14 2 8.06541 3.01125 1.4554 -28.4667 0.202543 1.09381 1.29027 
230 2 7.66334 3.41278 6.64372 -28.2849 1.6595 -2.75184 -0.159149 
446 2 7.95292 2.44072 11.6545 -28.6315 -0.0924178 0.513455 -1.01292 
50 2 7.86156 6.66372 1.21893 -28.766 -0.698777 0.8607 2.0015 
266 2 7.72068 6.69389 6.65022 -29.1473 0.894922 0.500124 -0.771617 
482 2 8.0434 6.24925 11.9971 -28.8721 -1.9317 3.06207 -2.97549 
86 2 7.87873 10.5047 1.59425 -29.4045 -0.809709 -1.1175 0.710779 
302 2 8.2274 10.3579 6.65097 -29.1508 -2.70013 -0.187136 1.48876 
452 2 11.6837 2.51276 11.5927 -28.7022 -1.13322 0.818202 1.80667 
122 2 7.77749 13.786 1.85407 -28.3451 1.66435 1.19243 -2.71562 
338 2 7.75139 13.8477 6.79504 -28.6369 0.818278 0.443409 -1.61564 
554 2 8.28831 13.8623 11.723 -29.1895 -0.905163 0.594566 -0.202785 
158 2 8.04431 17.7528 1.25311 -28.1171 -2.58934 0.54887 2.54187 
374 2 7.99521 17.7373 6.84125 -28.345 -1.24069 -1.1014 -0.478773 
590 2 8.13514 17.5349 11.4492 -29.8112 -0.0521392 -2.42846 1.75255 
194 2 7.93443 21.3569 1.5322 -29.3608 -0.69004 -1.69497 -0.331476 
410 2 7.66176 21.5428 6.37464 -27.8725 0.137844 -0.90785 1.73836 
626 2 8.05444 21.1067 11.6557 -29.1739 0.147351 -1.7838 -1.67674 
20 2 11.5505 2.89569 1.37491 -28.8208 0.6108 0.993152 -0.277798 
236 2 11.4884 2.86796 6.67231 -29.1491 -1.42208 -0.659108 0.507132 
618 1 0.91059 19.7364 13.2712 -7.80805 -0.605898 1.25185 0.305326 
56 2 11.389 6.75854 1.35917 -29.0329 1.282 0.336 0.10272 
272 2 11.77 6.38734 6.98489 -28.1011 -0.662813 2.26715 -1.07004 
488 2 11.5136 6.2148 11.7709 -28.4038 -0.225844 -0.244824 -3.37807 
92 2 11.4884 10.3949 1.57673 -28.7793 -1.3339 -2.48175 -0.536971 
308 2 11.5242 10.2289 6.83219 -28.2978 0.0207508 -2.6962 -2.19096 
524 2 11.9062 10.0806 11.6148 -28.4072 0.151423 -2.93543 3.87069 
128 2 11.8645 13.709 1.75539 -28.6601 -0.63889 1.96741 -1.49053 
344 2 11.2723 13.9291 6.53476 -27.877 3.94287 1.47267 -2.55033 
576 1 18.6063 11.7996 12.3941 -8.16166 -1.04788 -0.419175 0.133719 
164 2 11.4245 17.4476 1.57897 -28.0759 2.04983 -0.210974 0.221852 
380 2 11.5798 17.6584 6.53308 -28.5575 0.217426 -2.81783 0.869544 
596 2 11.9101 17.2245 11.5042 -29.5551 -0.974151 -0.244741 1.7429 
200 2 11.6802 21.3078 1.61598 -28.7659 -1.14022 0.470331 -0.314121 
416 2 11.3329 21.1896 6.42772 -28.0568 0.309 2.92175 1.79711 
434 2 0.684655 2.4212 11.5955 -28.9909 0.0533441 0.995465 0.805214 
26 2 15.5097 3.00818 1.78953 -28.8388 -2.44676 -1.36724 -1.86568 
242 2 15.065 3.23367 6.54789 -28.7553 1.25464 -2.57927 -0.11992 
530 2 15.4217 9.80131 11.5505 -29.2557 1.20977 -0.0240572 2.41463 
62 2 15.3029 6.46049 1.60039 -28.7794 -2.68299 0.190025 0.625369 
278 2 15.1592 6.60886 6.63746 -28.1934 -0.00150133 0.71013 0.38402 
494 2 15.4616 6.26887 11.5514 -28.9824 0.17867 1.31076 -0.354765 
98 2 15.1845 10.2107 1.37992 -29.1643 -1.07893 1.73604 2.8928 
314 2 15.6359 10.2931 6.98667 -28.1457 -1.95049 -0.443103 -2.47743 
476 2 4.40264 6.32188 11.5284 -28.7587 2.69049 0.671431 1.72529 
134 2 15.341 13.9343 1.62299 -28.8193 -1.2564 -0.0655487 -2.27754 
350 2 15.1446 13.6259 6.75442 -27.1386 -0.285533 1.03002 -0.0350237 
566 2 15.4885 13.699 11.4792 -29.2717 0.0322668 -0.303096 4.04341 
170 2 15.4053 17.7382 1.59297 -29.2978 -0.527527 -0.776134 -0.0175807 
386 2 15.253 17.6098 6.61961 -28.6836 1.01074 -0.163088 -0.972901 
602 2 15.2127 17.1662 11.573 -28.8755 2.29466 -0.47969 1.19649 
206 2 14.9555 21.2174 1.89719 -29.3128 2.52574 -0.687068 -2.84657 
422 2 15.0073 21.0748 6.49958 -29.2115 0.964557 1.22282 1.56447 
638 2 15.3223 20.8441 11.6561 -29.2186 3.52263 0.699947 0.443573 
32 2 18.9772 2.66472 1.3798 -28.4499 -2.06495 0.00165687 1.36133 
248 2 18.7284 2.60332 6.76161 -28.9708 0.415515 0.817085 0.0104129 
464 2 19.2172 2.66279 11.7617 -29.5906 1.37817 -1.32115 -1.99743 
68 2 19.0886 6.46868 1.51083 -28.779 1.47374 0.386453 1.17499 
284 2 19.0569 6.71709 6.50783 -28.0769 -0.266331 -1.63067 -0.158668 
518 2 8.22873 10.2588 11.6877 -28.8087 -0.612357 -0.400644 0.422353 
104 2 18.6587 10.2699 1.6059 -28.6677 2.62263 -1.27726 0.278292 
320 2 18.9959 9.86071 6.83967 -28.9314 2.30933 3.23398 -1.86288 
536 2 19.3137 10.0074 11.6976 -29.0654 -0.0446789 -0.214529 -1.08083 
140 2 19.0558 14.176 1.66544 -29.4819 2.51076 -2.05124 -3.38469 
356 2 19.0287 13.7901 6.72691 -28.2818 0.841866 0.428311 1.3517 
572 2 19.2686 13.6266 11.4074 -29.166 -0.888927 0.591524 2.01196 
176 2 18.5458 17.4814 1.88445 -29.814 2.39055 -0.721935 -1.1884 
392 2 18.7856 17.5939 6.69168 -28.8733 -0.209279 -1.24359 -2.04263 
608 2 18.7033 17.2137 11.9242 -29.6826 0.292432 -1.87628 -0.869752 
212 2 18.8816 21.1845 1.45298 -30.0001 0.310121 -0.703689 1.00913 
428 2 19.091 21.0537 6.67555 -28.5386 -0.23959 0.491168 0.433295 
94 1 13.5195 10.0216 2.50477 -7.36648 -1.95507 -1.34305 2.74334 
1 2 2.15611 1.00996 3.7994 -28.7071 1.49576 -2.52636 1.77066 
217 2 2.38744 0.598813 8.90845 -29.7015 1.30737 1.027 0.559203 
37 2 2.24952 4.69131 4.10622 -28.5677 -0.886599 1.15641 0.895332 
253 2 2.58924 4.50837 9.12935 -29.7113 -1.30124 0.339997 -1.40437 
73 2 1.99545 8.3831 3.93453 -28.4696 2.77858 0.739512 1.12794 
289 2 2.4188 8.25655 9.10135 -29.1627 0.509683 -0.229959 -1.22693 
109 2 2.25179 12.451 4.0606 -28.3364 1.54559 -3.40974 0.662141 
325 2 2.60254 12.0674 9.03243 -29.6765 1.83211 -1.41829 -0.649346 
145 2 2.07605 15.8469 4.00822 -28.601 -0.121693 0.173896 0.0327339 
361 2 2.29624 15.6642 9.11624 -28.2513 -0.562661 -1.68154 -0.911039 
181 2 2.59161 19.2925 3.79487 -28.6472 -0.86764 1.47054 0.251371 
397 2 2.57062 19.2247 9.07225 -29.3368 0.524761 2.47071 -1.21414 
7 2 6.43419 1.14469 3.93218 -28.5482 -3.78881 -1.44177 -1.20402 
223 2 6.22764 1.05686 8.83867 -29.2329 -1.11758 -0.167047 1.1637 
43 2 5.6816 4.69875 4.04587 -29.0808 5.29307 0.276964 1.10739 
259 2 5.97236 4.67255 8.95911 -29.1665 -0.842027 0.379441 -0.173735 
79 2 6.18741 8.3777 3.86448 -29.0118 0.0429093 1.98151 -1.65085 
295 2 6.3993 8.37372 9.17055 -29.4579 0.292119 -0.696178 -0.985154 
115 2 5.92584 12.1279 4.21346 -29.3272 0.677191 -0.792141 -1.21054 
331 2 6.20273 11.8456 8.98422 -28.7749 2.10802 0.255152 -0.616799 
151 2 5.98843 15.9933 3.85831 -27.985 0.545524 -1.48461 2.02639 
367 2 6.23041 15.6251 9.15594 -27.9566 2.11682 -0.139123 -0.282151 
187 2 5.87597 19.237 4.03901 -28.2534 1.18739 1.03813 -2.70495 
403 2 5.91562 19.1592 9.02533 -29.0767 0.0256725 3.80646 0.0462407 
13 2 9.66881 1.3956 4.02924 -28.0481 -0.261813 -0.198245 -0.782143 
229 2 9.54076 0.898298 8.96026 -29.2461 1.72513 0.515595 -0.468802 
49 2 9.87392 4.89697 3.95379 -28.6166 -3.71954 0.519432 -1.11534 
265 2 9.86394 4.76844 9.12699 -28.6531 -0.117907 -0.875103 -0.302604 
85 2 9.59031 8.41643 4.10225 -29.2937 0.178637 0.790155 -1.92832 
301 2 9.86813 8.19551 9.11254 -28.8702 -0.799283 -0.527214 -1.07736 
121 2 9.83066 12.1733 4.00601 -29.0139 -0.151963 0.0881602 0.267046 
337 2 10.0875 11.981 9.06747 -27.5749 -2.18197 0.432389 1.12943 
157 2 9.65407 15.9604 4.03171 -27.9593 -1.31731 -0.714107 -0.873764 
373 2 10.1561 15.533 8.97153 -28.2178 -2.07655 1.56498 2.87824 
193 2 9.72212 19.5358 4.17507 -27.0939 -3.53465 1.16194 -2.41167 
409 2 9.94256 19.3191 8.88448 -28.6131 1.48511 0.0530865 2.35898 
19 2 13.1533 1.04247 4.32266 -29.0179 1.05133 2.2171 -2.12156 
235 2 13.4229 0.892671 8.97506 -29.6634 1.89277 1.15052 -0.427576 
55 2 13.1534 4.8211 3.88581 -28.8118 0.229682 -1.06082 0.263753 
271 2 13.4681 4.3487 9.33167 -28.6019 1.16628 0.832045 -1.24841 
91 2 13.4773 8.48722 4.24717 -28.7376 -1.46162 1.45936 -1.27491 
307 2 13.6074 8.3071 9.00359 -29.2427 1.18966 0.63606 1.49618 
127 2 13.5225 12.0084 4.14232 -28.4526 -0.228644 -1.37399 -0.66102 
343 2 13.2955 11.856 8.86846 -27.4905 2.95291 -0.88453 1.6261 
163 2 13.4587 15.6913 3.85973 -28.9326 -0.536104 0.773258 1.42697 
379 2 13.7114 15.3605 8.90657 -27.9334 -1.68542 2.5013 1.44444 
199 2 13.1291 19.2301 3.8841 -27.9168 2.55195 -0.0235648 0.499976 
415 2 13.602 19.1159 8.99887 -28.4885 -2.36782 0.369705 1.20119 
25 2 17.1738 1.27965 4.0484 -28.1748 -1.71973 -1.91217 1.35672 
241 2 17.1245 0.68232 9.05911 -29.1974 -1.32618 0.515749 -0.966269 
61 2 17.202 4.79221 4.02759 -27.9955 -0.503736 2.04827 -0.813051 
277 2 17.3719 4.75017 9.01465 -28.5844 0.0388602 -2.39701 -1.20176 
97 2 16.93 8.37893 3.97979 -29.0366 -0.435783 -2.21494 0.895359 
313 2 17.3303 8.17001 9.04094 -28.7354 -2.05613 0.152344 2.6019 
133 2 17.3508 12.155 3.88781 -28.1521 -0.443509 -0.388673 -0.631806 
349 2 17.4081 11.7978 9.25492 -28.442 0.583492 0.0106642 0.63545 
169 2 16.7353 15.6246 4.24672 -28.2701 2.89765 0.662839 -0.692755 
385 2 17.1739 15.3301 8.8393 -28.3729 0.857084 1.3105 0.604532 
205 2 17.0774 19.5835 4.08045 -29.725 0.607009 -0.82467 -1.08613 
421 2 17.3391 19.2217 9.14411 -28.5311 -0.823701 -0.304744 -0.0989 
31 2 20.6842 0.881354 3.79933 -28.1982 0.69894 -0.44974 0.756409 
247 2 20.7837 0.793669 9.11258 -29.0847 1.72972 0.910163 1.05748 
67 2 20.535 4.40207 4.18197 -28.7228 -0.128395 0.399701 -3.08303 
283 2 20.7624 4.37288 8.89469 -29.9169 1.06986 -0.0028953 1.16366 
103 2 20.7484 8.4362 3.93696 -29.4746 -0.146683 0.533296 0.372529 
319 2 20.8762 7.96571 8.99009 -29.036 3.31851 0.671109 1.44133 
139 2 20.6137 12.0417 4.24584 -29.5938 -0.536815 -2.38584 -1.05413 
355 2 21.2453 11.6765 9.098 -28.8265 -2.64858 -0.971101 0.721247 
175 2 20.4572 15.5797 4.2597 -28.7895 1.35134 1.54496 -0.83228 
391 2 20.8699 15.6243 8.94311 -28.5213 1.7726 0.68077 1.1994 
211 2 20.7166 19.0556 3.96531 -29.1285 -1.1315 -0.0940128 -2.14267 
427 2 20.8122 19.126 9.2731 -29.1151 -0.00188902 0.187346 -1.0231 
560 2 11.9094 13.4309 11.8097 -28.8401 0.807653 3.11075 -0.357106 
219 1 2.05679 3.80746 5.92914 -7.70437 3.55312 2.40586 -0.545949 
435 1 2.49458 2.03429 10.574 -7.61549 -0.484768 -0.104094 2.82481 
558 1 8.31724 12.5497 13.3182 -8.12207 -0.186849 1.1514 0.0104534 
255 1 1.37671 6.66575 5.00931 -8.02066 0.595989 -0.235964 -1.30037 
471 1 3.59663 6.14871 9.88283 -7.66693 -2.37922 3.04066 0.111654 
480 1 3.76122 4.61341 12.6063 -8.40584 -0.435007 -0.89164 0.290413 
291 1 2.31974 11.2142 5.88555 -7.09574 -1.12381 0.946582 -4.04453 
507 1 2.77992 9.54454 10.6199 -8.28782 -0.798782 -1.07852 1.40443 
70 1 21.1751 6.38936 3.1262 -7.75198 -1.23192 0.197533 1.58148 
327 1 1.32743 14.0291 4.72179 -8.72297 0.0835741 0.545675 1.30507 
543 1 3.18939 13.7975 10.0552 -7.82506 1.05063 -0.0502479 -1.15529 
640 1 17.4008 21.5381 12.35 -6.98375 0.280101 0.397769 -0.310723 
363 1 2.20282 18.0822 5.5364 -7.86781 2.24744 2.52004 -2.05752 
579 1 2.44924 16.6977 10.7023 -8.17854 -0.131827 -0.717763 0.0678655 
552 1 3.70373 11.7798 12.407 -8.23673 -0.745773 -0.301085 0.284934 
399 1 1.56671 21.242 4.60009 -7.49311 -1.34026 -0.723065 2.25767 
615 1 3.39918 21.1782 10.2454 -7.48573 -0.853518 -0.742093 -1.62552 
250 1 20.8723 2.67038 7.51529 -7.52837 -1.34752 0.230661 -1.37634 
225 1 5.10745 3.04075 4.9455 -7.85033 -0.473459 -0.601974 -0.768838 
441 1 7.20509 2.85268 9.79433 -7.79306 -1.36622 2.13663 0.0618958 
502 1 20.0412 6.01427 13.4342 -7.80046 1.20937 2.99811 -0.422296 
261 1 5.86473 7.50983 5.4707 -8.03514 0.273715 0.403436 2.19546 
477 1 6.20265 5.59098 10.6625 -7.93116 0.866189 -0.0147295 1.4038 
544 1 2.79403 14.3325 12.4995 -7.35192 -0.127506 0.766655 1.63396 
297 1 5.11586 10.4415 4.92431 -7.12376 0.496497 -1.89744 -0.159871 
513 1 7.33988 10.1331 9.88078 -8.26856 -1.43143 0.777824 1.00125 
394 1 20.7246 17.4543 7.17982 -7.42888 -0.577184 0.393096 0.241688 
333 1 5.96444 14.8543 5.77975 -8.47835 -1.04919 0.552858 0.492188 
549 1 6.36247 13.1582 10.7679 -7.83066 -0.772321 -0.854333 0.434326 
64 1 17.1983 6.26207 2.55206 -8.68873 -1.38097 -1.12172 -1.44085 
369 1 5.02746 17.6326 4.81326 -8.7924 -0.720487 -0.938333 1.30682 
585 1 6.73434 17.672 9.85551 -8.22659 1.1796 -2.89045 -0.32247 
202 1 13.6411 21.3306 3.26907 -8.12368 -0.534299 -0.32115 1.19231 
405 1 5.92553 0.34257 5.75469 -8.39206 -0.315998 -1.06779 0.921707 
621 1 6.28105 20.5287 10.8813 -7.23862 -0.976626 -1.15971 -0.41045 
418 1 13.4513 21.1648 8.48917 -7.15872 -0.317172 -3.89703 -1.93102 
231 1 9.63339 3.68198 5.75394 -7.9604 -0.577362 0.637877 -0.903048 
447 1 9.78176 1.8953 10.7309 -7.62332 0.82849 1.06276 0.667716 
352 1 17.1408 13.6778 7.39712 -8.60999 -0.832871 0.601479 -0.707169 
267 1 8.82491 6.79356 4.7778 -7.47565 -0.878834 -1.36379 1.91589 
483 1 11.0304 6.39709 9.78848 -8.29945 -0.938605 0.429561 0.116862 
424 1 17.2147 21.0196 7.34012 -7.64672 -0.873025 -0.624542 2.22991 
303 1 9.67144 11.3819 5.89828 -7.93715 2.90094 1.33204 -0.477159 
519 1 9.93103 9.29376 10.6897 -8.02294 0.793211 2.08125 1.23619 
201 1 13.3297 0.0242023 0.780578 -8.16496 -0.182992 0.79518 -0.303297 
339 1 9.02305 13.8073 4.96668 -8.22569 -0.331178 1.8571 -0.758454 
555 1 11.1491 13.5351 9.87712 -8.37323 -1.17776 0.461025 -0.93823 
12755 1 3.06102 1.14071 0.916648 -8.51408 1.09904 1.67602 0.947071 
375 1 9.51962 18.5922 5.97576 -8.65029 1.29457 2.49379 -2.19936 
591 1 9.99535 16.9354 10.5991 -7.49682 0.689131 -1.67246 -0.918202 
358 1 20.7754 13.6585 8.31357 -8.16935 0.606816 -0.131603 -0.09341 
411 1 8.96919 21.3309 4.83021 -8.88971 -0.0876651 0.00430723 -0.0605643 
627 1 10.4569 21.048 9.76915 -7.8812 0.152426 0.751313 0.9643 
142 1 20.992 13.7981 3.3718 -7.60427 0.574683 2.42354 -1.39279 
237 1 12.5592 2.90656 4.95485 -7.89022 -0.888764 0.993629 -1.10964 
453 1 14.4029 2.44304 9.86261 -8.2243 0.236775 1.51701 -0.0232596 
244 1 17.0245 2.82725 7.93654 -7.50068 -0.199528 -0.851973 0.41971 
273 1 13.1704 7.55167 6.03914 -8.25939 -0.0296184 -1.5399 -0.0789222 
489 1 13.7183 5.3984 10.9943 -7.69744 -0.944608 0.175363 -0.44571 
171 1 17.1984 18.4233 0.803351 -7.54212 -1.80925 0.00604293 -0.636252 
309 1 12.3744 10.3733 5.04723 -8.10393 0.408892 -0.410924 -1.35649 
525 1 14.5967 9.8857 9.91063 -7.9343 -1.02384 1.49618 -1.28649 
430 1 20.6433 20.9289 8.23156 -8.22108 0.0279739 1.72601 -0.905876 
345 1 13.0981 15.1203 5.89813 -7.11821 0.368268 -2.04113 -0.375888 
561 1 13.6235 12.8308 10.8933 -8.16781 0.226579 -0.278408 -1.42464 
130 1 13.7579 13.8394 3.0579 -8.8751 0.146919 -0.867885 1.8713 
381 1 12.4702 17.4836 4.78297 -8.35767 0.385422 1.56911 -1.54589 
597 1 13.9186 17.228 10.1021 -8.42871 1.98126 1.06632 -2.32495 
208 1 16.9748 20.8384 2.24227 -7.20282 -0.635838 0.508004 0.246896 
417 1 13.1358 0.0366078 5.91402 -8.03441 0.0232198 -1.35576 0.478795 
633 1 13.7251 20.2843 10.8883 -8.06795 -3.45738 -0.811672 0.47746 
556 1 10.1871 14.5881 12.2048 -7.87998 0.0610603 -0.681179 1.37418 
243 1 16.8873 3.66397 5.50276 -8.2417 -1.34932 -1.26305 1.82291 
459 1 17.4233 1.80645 10.7048 -7.66448 -0.930713 0.613288 1.0389 
214 1 20.7074 20.9252 2.95279 -7.74871 2.75105 0.539319 1.86337 
279 1 16.1864 6.68076 4.92522 -7.95153 0.917207 -1.89643 0.175537 
495 1 17.8475 6.40062 10.067 -8.35744 0.944927 -1.00665 -1.54261 
466 1 21.0412 3.56189 12.4642 -7.33879 0.876365 -1.58292 0.91676 
315 1 17.2468 11.2676 5.52667 -7.85423 -1.64452 -1.14736 2.2617 
531 1 17.3677 9.4594 10.8825 -7.76435 -1.49942 0.800598 -0.833044 
310 1 13.6053 9.96968 7.53629 -7.92099 -0.245023 2.27677 0.852315 
351 1 15.8543 13.8791 4.86104 -8.97551 0.695946 -0.997309 -0.415703 
567 1 18.142 13.6084 9.7085 -8.42637 1.21636 -0.635872 0.356763 
454 1 13.6953 3.16908 12.4184 -8.19051 0.68116 -0.930419 0.784923 