LAMMPS (22 Dec 2022)
  using 1 OpenMP thread(s) per MPI task
Loaded 1 plugins from C:\Program Files\LAMMPS 64-bit 23Jun2022\plugins
Loaded 0 plugins from C:\Program Files\LAMMPS 64-bit 23Jun2022-MPI\plugins
Loaded 1 plugins from C:\Program Files\LAMMPS 64-bit 22Dec2022-MSMPI\plugins
Loaded 1 plugins from C:\Program Files\LAMMPS 64-bit 28Mar2023-MPI\plugins
#------------------------------------------------------------------------------------------
# LAMMPS 64-bit 22Dec2022-MSMPI
#------------------------------------------------------------------------------------------
clear
  using 1 OpenMP thread(s) per MPI task
Loaded 1 plugins from C:\Program Files\LAMMPS 64-bit 23Jun2022\plugins
Loaded 0 plugins from C:\Program Files\LAMMPS 64-bit 23Jun2022-MPI\plugins
Loaded 1 plugins from C:\Program Files\LAMMPS 64-bit 22Dec2022-MSMPI\plugins
Loaded 1 plugins from C:\Program Files\LAMMPS 64-bit 28Mar2023-MPI\plugins
#echo both
# ---------- Initializing Simulation ---------------------------------
units metal
dimension 3
boundary p p p
atom_style atomic
atom_modify map array

read_data ./../../BeO.data
Reading data file ...
  triclinic box = (0 0 0) to (2.7097101 2.3466778 4.402034) with tilt (-1.3548551 0 0)
WARNING: Triclinic box skew is large. LAMMPS will run inefficiently. (src/domain.cpp:220)
  2 by 2 by 2 MPI processor grid
  reading atoms ...
  4 atoms
  read_data CPU = 0.001 seconds

replicate 1 1 1
Replication is creating a 1x1x1 = 1 times larger system...
  triclinic box = (0 0 0) to (2.7097101 2.3466778 4.402034) with tilt (-1.3548551 0 0)
WARNING: Triclinic box skew is large. LAMMPS will run inefficiently. (src/domain.cpp:220)
  2 by 2 by 2 MPI processor grid
  4 atoms
  replicate CPU = 0.000 seconds

# ---------- Defining the Interatomic Potential ---------------------
pair_style meam
pair_coeff * * ./../../library.meam Be O ./../../BeO.meam Be O

# ---------- Running Minimization -------------------------------------
fix 1 all box/relax iso 0.0 vmax 0.001

thermo 10
thermo_style custom step pe etotal lx ly lz vol press pxx pyy pzz

min_style cg
minimize 1e-25 1e-25 5000 10000
Neighbor list info ...
  update: every = 1 steps, delay = 0 steps, check = yes
  max neighbors/atom: 2000, page size: 100000
  master list distance cutoff = 6.2
  ghost atom cutoff = 6.2
  binsize = 3.1, bins = 2 1 2
  2 neighbor lists, perpetual/occasional/extra = 2 0 0
  (1) pair meam, perpetual
      attributes: full, newton on
      pair build: full/bin/atomonly
      stencil: full/bin/3d
      bin: standard
  (2) pair meam, perpetual, half/full from (1)
      attributes: half, newton on
      pair build: halffull/newton
      stencil: none
      bin: none
WARNING: Proc sub-domain size < neighbor skin, could lead to lost atoms (src/domain.cpp:966)
Per MPI rank memory allocation (min/avg/max) = 9.704 | 9.705 | 9.705 Mbytes
   Step         PotEng         TotEng           Lx             Ly             Lz           Volume         Press           Pxx            Pyy            Pzz      
         0  -15.145426     -15.145426      2.7097101      2.3466778      4.402034       27.991727     -86402.796     -42252.963     -42252.919     -174702.51    
        10  -15.179906     -15.179906      2.682613       2.323211       4.3580137      27.160345     -43945.382     -2553.2444     -2553.2028     -126729.7     
        20  -15.190495     -15.190495      2.657826       2.3017449      4.3177462      26.414406      215.78091      38703.905      38703.93      -76760.493    
        30  -15.190497     -15.190497      2.6579847      2.3018823      4.3180039      26.419136      6.5443759e-09  38662.87       38662.87      -77325.74     
Loop time of 0.0103979 on 8 procs for 30 steps with 4 atoms

37.6% CPU use with 8 MPI tasks x 1 OpenMP threads

Minimization stats:
  Stopping criterion = energy tolerance
  Energy initial, next-to-last, final = 
      -15.145425905365  -15.1904972788464  -15.1904972788464
  Force two-norm initial, final = 4.5522565 9.7570774e-13
  Force max component initial, final = 4.5286461 6.5569772e-13
  Final line search alpha, max atom move = 1 6.5569772e-13
  Iterations, force evaluations = 30 41

MPI task timing breakdown:
Section |  min time  |  avg time  |  max time  |%varavg| %total
---------------------------------------------------------------
Pair    | 0.005418   | 0.0059925  | 0.006589   |   0.5 | 57.63
Neigh   | 0          | 0          | 0          |   0.0 |  0.00
Comm    | 0.00147    | 0.0020886  | 0.002674   |   0.8 | 20.09
Output  | 2.9e-05    | 3.1125e-05 | 3.7e-05    |   0.0 |  0.30
Modify  | 0          | 0          | 0          |   0.0 |  0.00
Other   |            | 0.002286   |            |       | 21.98

Nlocal:            0.5 ave           1 max           0 min
Histogram: 4 0 0 0 0 0 0 0 0 4
Nghost:         392.75 ave         401 max         390 min
Histogram: 6 0 0 0 0 0 0 0 0 2
Neighs:          35.75 ave          77 max           0 min
Histogram: 4 0 0 0 0 0 0 0 2 2
FullNghs:         71.5 ave         143 max           0 min
Histogram: 4 0 0 0 0 0 0 0 0 4

Total # of neighbors = 572
Ave neighs/atom = 143
Neighbor list builds = 0
Dangerous builds = 0

variable  natoms equal "count(all)"
variable      x0 equal "lx"
variable      y0 equal "ly"
variable      z0 equal "lz"
variable      v0 equal "vol"
variable   etot0 equal "etotal"
variable   ecoh0 equal "pe/v_natoms"

unfix 1
write_data ./../step2_elastic/data.in
System init for write_data ...
WARNING: Proc sub-domain size < neighbor skin, could lead to lost atoms (src/domain.cpp:966)

# ---------- For Equation of States -------------------------------------
change_box all x scale 0.94 y scale 0.94 z scale 0.94 remap
Changing box ...
WARNING: Triclinic box skew is large. LAMMPS will run inefficiently. (src/domain.cpp:220)
  triclinic box = (0.10560226 0.022397771 0.042015035) to (2.6041079 2.32428 4.360019) with tilt (-1.3289923 0 0)
WARNING: Triclinic box skew is large. LAMMPS will run inefficiently. (src/domain.cpp:220)
  triclinic box = (0.10560226 0.091454239 0.042015035) to (2.6041079 2.2552236 4.360019) with tilt (-1.3289923 0 0)
WARNING: Triclinic box skew is large. LAMMPS will run inefficiently. (src/domain.cpp:220)
  triclinic box = (0.10560226 0.091454239 0.17155515) to (2.6041079 2.2552236 4.2304788) with tilt (-1.3289923 0 0)
run 1
WARNING: No fixes with time integration, atoms won't move (src/verlet.cpp:60)
WARNING: Proc sub-domain size < neighbor skin, could lead to lost atoms (src/domain.cpp:966)
Per MPI rank memory allocation (min/avg/max) = 8.589 | 8.59 | 8.591 Mbytes
   Step         PotEng         TotEng           Lx             Ly             Lz           Volume         Press           Pxx            Pyy            Pzz      
        30  -14.639528     -14.639528      2.4985056      2.1637693      4.0589237      21.943312      439869.18      415151.61      475319.07      429136.85    
        31  -14.639528     -14.639528      2.4985056      2.1637693      4.0589237      21.943312      439869.18      415151.61      475319.07      429136.85    
Loop time of 0.0003565 on 8 procs for 1 steps with 4 atoms

Performance: 242.356 ns/day, 0.099 hours/ns, 2805.049 timesteps/s, 11.220 katom-step/s
0.0% CPU use with 8 MPI tasks x 1 OpenMP threads

MPI task timing breakdown:
Section |  min time  |  avg time  |  max time  |%varavg| %total
---------------------------------------------------------------
Pair    | 0.000283   | 0.00029137 | 0.000304   |   0.0 | 81.73
Neigh   | 0          | 0          | 0          |   0.0 |  0.00
Comm    | 3e-05      | 4.225e-05  | 5.1e-05    |   0.0 | 11.85
Output  | 1.3e-05    | 1.4e-05    | 1.6e-05    |   0.0 |  3.93
Modify  | 0          | 2.5e-07    | 1e-06      |   0.0 |  0.07
Other   |            | 8.625e-06  |            |       |  2.42

Nlocal:            0.5 ave           1 max           0 min
Histogram: 4 0 0 0 0 0 0 0 0 4
Nghost:         633.25 ave         643 max         630 min
Histogram: 6 0 0 0 0 0 0 0 0 2
Neighs:          43.75 ave          95 max           0 min
Histogram: 4 0 0 0 0 0 0 0 2 2
FullNghs:         87.5 ave         175 max           0 min
Histogram: 4 0 0 0 0 0 0 0 0 4

Total # of neighbors = 700
Ave neighs/atom = 175
Neighbor list builds = 0
Dangerous builds = 0
print "# Lattice constant (Angstroms), Volume (Angstrom), Total energy (eV), Cohesive energy (eV/atom)" file lattice_cohesive_energy.txt screen no


# Loop over lattice constants
variable i loop 49 # Number of steps
label loop

change_box all x scale 1.0025 y scale 1.0025 z scale 1.0025 remap
Changing box ...
WARNING: Triclinic box skew is large. LAMMPS will run inefficiently. (src/domain.cpp:220)
  triclinic box = (0.10247913 0.091454239 0.17155515) to (2.607231 2.2552236 4.2304788) with tilt (-1.3289923 0 0)
WARNING: Triclinic box skew is large. LAMMPS will run inefficiently. (src/domain.cpp:220)
  triclinic box = (0.10247913 0.088749528 0.17155515) to (2.607231 2.2579283 4.2304788) with tilt (-1.3289923 0 0)
WARNING: Triclinic box skew is large. LAMMPS will run inefficiently. (src/domain.cpp:220)
  triclinic box = (0.10247913 0.088749528 0.1664815) to (2.607231 2.2579283 4.2355525) with tilt (-1.3289923 0 0)

run 1
WARNING: No fixes with time integration, atoms won't move (src/verlet.cpp:60)
WARNING: Proc sub-domain size < neighbor skin, could lead to lost atoms (src/domain.cpp:966)
Per MPI rank memory allocation (min/avg/max) = 8.589 | 8.59 | 8.591 Mbytes
   Step         PotEng         TotEng           Lx             Ly             Lz           Volume         Press           Pxx            Pyy            Pzz      
        31  -14.685942     -14.685942      2.5047519      2.1691788      4.069071       22.108299      416212.91      395740.12      450686.86      402211.75    
        32  -14.685942     -14.685942      2.5047519      2.1691788      4.069071       22.108299      416212.91      395740.12      450686.86      402211.75    
Loop time of 0.000202625 on 8 procs for 1 steps with 4 atoms

Performance: 426.403 ns/day, 0.056 hours/ns, 4935.225 timesteps/s, 19.741 katom-step/s
0.0% CPU use with 8 MPI tasks x 1 OpenMP threads

MPI task timing breakdown:
Section |  min time  |  avg time  |  max time  |%varavg| %total
---------------------------------------------------------------
Pair    | 0.000137   | 0.000145   | 0.000155   |   0.0 | 71.56
Neigh   | 0          | 0          | 0          |   0.0 |  0.00
Comm    | 2.6e-05    | 3.6125e-05 | 4.5e-05    |   0.0 | 17.83
Output  | 1.1e-05    | 1.1875e-05 | 1.2e-05    |   0.0 |  5.86
Modify  | 0          | 2.5e-07    | 1e-06      |   0.0 |  0.12
Other   |            | 9.375e-06  |            |       |  4.63

Nlocal:            0.5 ave           1 max           0 min
Histogram: 4 0 0 0 0 0 0 0 0 4
Nghost:         633.25 ave         643 max         630 min
Histogram: 6 0 0 0 0 0 0 0 0 2
Neighs:           43.5 ave          94 max           0 min
Histogram: 4 0 0 0 0 0 0 0 2 2
FullNghs:           87 ave         174 max           0 min
Histogram: 4 0 0 0 0 0 0 0 0 4

Total # of neighbors = 696
Ave neighs/atom = 174
Neighbor list builds = 0
Dangerous builds = 0
variable  natoms equal "count(all)"
variable xlength equal "lx"
variable  volume equal "vol"
variable  etotal equal "etotal"
variable    ecoh equal "pe/v_natoms"
print "${xlength}, ${volume}, ${etotal}, ${ecoh}" append lattice_cohesive_energy.txt screen no

next i
jump SELF loop

change_box all x scale 1.0025 y scale 1.0025 z scale 1.0025 remap
Changing box ...
WARNING: Triclinic box skew is large. LAMMPS will run inefficiently. (src/domain.cpp:220)
  triclinic box = (0.099348188 0.088749528 0.1664815) to (2.6103619 2.2579283 4.2355525) with tilt (-1.3289923 0 0)
WARNING: Triclinic box skew is large. LAMMPS will run inefficiently. (src/domain.cpp:220)
  triclinic box = (0.099348188 0.086038054 0.1664815) to (2.6103619 2.2606398 4.2355525) with tilt (-1.3289923 0 0)
WARNING: Triclinic box skew is large. LAMMPS will run inefficiently. (src/domain.cpp:220)
  triclinic box = (0.099348188 0.086038054 0.16139516) to (2.6103619 2.2606398 4.2406388) with tilt (-1.3289923 0 0)

run 1
WARNING: No fixes with time integration, atoms won't move (src/verlet.cpp:60)
WARNING: Proc sub-domain size < neighbor skin, could lead to lost atoms (src/domain.cpp:966)
Per MPI rank memory allocation (min/avg/max) = 8.589 | 8.59 | 8.591 Mbytes
   Step         PotEng         TotEng           Lx             Ly             Lz           Volume         Press           Pxx            Pyy            Pzz      
        32  -14.730098     -14.730098      2.5110138      2.1746017      4.0792437      22.274526      393119.17      376747.07      426683.58      375926.85    
        33  -14.730098     -14.730098      2.5110138      2.1746017      4.0792437      22.274526      393119.17      376747.07      426683.58      375926.85    
Loop time of 0.000195 on 8 procs for 1 steps with 4 atoms

Performance: 443.077 ns/day, 0.054 hours/ns, 5128.205 timesteps/s, 20.513 katom-step/s
0.0% CPU use with 8 MPI tasks x 1 OpenMP threads

MPI task timing breakdown:
Section |  min time  |  avg time  |  max time  |%varavg| %total
---------------------------------------------------------------
Pair    | 0.000137   | 0.00014375 | 0.000153   |   0.0 | 73.72
Neigh   | 0          | 0          | 0          |   0.0 |  0.00
Comm    | 2.6e-05    | 3.5375e-05 | 4.2e-05    |   0.0 | 18.14
Output  | 1.1e-05    | 1.1875e-05 | 1.2e-05    |   0.0 |  6.09
Modify  | 0          | 1.25e-07   | 1e-06      |   0.0 |  0.06
Other   |            | 3.875e-06  |            |       |  1.99

Nlocal:            0.5 ave           1 max           0 min
Histogram: 4 0 0 0 0 0 0 0 0 4
Nghost:         633.25 ave         643 max         630 min
Histogram: 6 0 0 0 0 0 0 0 0 2
Neighs:           43.5 ave          94 max           0 min
Histogram: 4 0 0 0 0 0 0 0 2 2
FullNghs:           87 ave         174 max           0 min
Histogram: 4 0 0 0 0 0 0 0 0 4

Total # of neighbors = 696
Ave neighs/atom = 174
Neighbor list builds = 0
Dangerous builds = 0
variable  natoms equal "count(all)"
variable xlength equal "lx"
variable  volume equal "vol"
variable  etotal equal "etotal"
variable    ecoh equal "pe/v_natoms"
print "${xlength}, ${volume}, ${etotal}, ${ecoh}" append lattice_cohesive_energy.txt screen no

next i
jump SELF loop

change_box all x scale 1.0025 y scale 1.0025 z scale 1.0025 remap
Changing box ...
WARNING: Triclinic box skew is large. LAMMPS will run inefficiently. (src/domain.cpp:220)
  triclinic box = (0.09620942 0.086038054 0.16139516) to (2.6135007 2.2606398 4.2406388) with tilt (-1.3289923 0 0)
WARNING: Triclinic box skew is large. LAMMPS will run inefficiently. (src/domain.cpp:220)
  triclinic box = (0.09620942 0.083319802 0.16139516) to (2.6135007 2.263358 4.2406388) with tilt (-1.3289923 0 0)
WARNING: Triclinic box skew is large. LAMMPS will run inefficiently. (src/domain.cpp:220)
  triclinic box = (0.09620942 0.083319802 0.15629611) to (2.6135007 2.263358 4.2457379) with tilt (-1.3289923 0 0)

run 1
WARNING: No fixes with time integration, atoms won't move (src/verlet.cpp:60)
WARNING: Proc sub-domain size < neighbor skin, could lead to lost atoms (src/domain.cpp:966)
Per MPI rank memory allocation (min/avg/max) = 8.589 | 8.59 | 8.591 Mbytes
   Step         PotEng         TotEng           Lx             Ly             Lz           Volume         Press           Pxx            Pyy            Pzz      
        33  -14.772026     -14.772026      2.5172913      2.1800382      4.0894418      22.442003      370578.85      358165.6       403298.93      350272.02    
        34  -14.772026     -14.772026      2.5172913      2.1800382      4.0894418      22.442003      370578.85      358165.6       403298.93      350272.02    
Loop time of 0.000195875 on 8 procs for 1 steps with 4 atoms

Performance: 441.098 ns/day, 0.054 hours/ns, 5105.297 timesteps/s, 20.421 katom-step/s
0.0% CPU use with 8 MPI tasks x 1 OpenMP threads

MPI task timing breakdown:
Section |  min time  |  avg time  |  max time  |%varavg| %total
---------------------------------------------------------------
Pair    | 0.000137   | 0.00014387 | 0.000152   |   0.0 | 73.45
Neigh   | 0          | 0          | 0          |   0.0 |  0.00
Comm    | 2.8e-05    | 3.5125e-05 | 4.2e-05    |   0.0 | 17.93
Output  | 1.2e-05    | 1.25e-05   | 1.4e-05    |   0.0 |  6.38
Modify  | 0          | 3.75e-07   | 2e-06      |   0.0 |  0.19
Other   |            | 4e-06      |            |       |  2.04

Nlocal:            0.5 ave           1 max           0 min
Histogram: 4 0 0 0 0 0 0 0 0 4
Nghost:         633.25 ave         643 max         630 min
Histogram: 6 0 0 0 0 0 0 0 0 2
Neighs:           43.5 ave          94 max           0 min
Histogram: 4 0 0 0 0 0 0 0 2 2
FullNghs:           87 ave         174 max           0 min
Histogram: 4 0 0 0 0 0 0 0 0 4

Total # of neighbors = 696
Ave neighs/atom = 174
Neighbor list builds = 0
Dangerous builds = 0
variable  natoms equal "count(all)"
variable xlength equal "lx"
variable  volume equal "vol"
variable  etotal equal "etotal"
variable    ecoh equal "pe/v_natoms"
print "${xlength}, ${volume}, ${etotal}, ${ecoh}" append lattice_cohesive_energy.txt screen no

next i
jump SELF loop

change_box all x scale 1.0025 y scale 1.0025 z scale 1.0025 remap
Changing box ...
WARNING: Triclinic box skew is large. LAMMPS will run inefficiently. (src/domain.cpp:220)
  triclinic box = (0.093062806 0.083319802 0.15629611) to (2.6166473 2.263358 4.2457379) with tilt (-1.3289923 0 0)
WARNING: Triclinic box skew is large. LAMMPS will run inefficiently. (src/domain.cpp:220)
  triclinic box = (0.093062806 0.080594754 0.15629611) to (2.6166473 2.2660831 4.2457379) with tilt (-1.3289923 0 0)
WARNING: Triclinic box skew is large. LAMMPS will run inefficiently. (src/domain.cpp:220)
  triclinic box = (0.093062806 0.080594754 0.1511843) to (2.6166473 2.2660831 4.2508497) with tilt (-1.3289923 0 0)

run 1
WARNING: No fixes with time integration, atoms won't move (src/verlet.cpp:60)
WARNING: Proc sub-domain size < neighbor skin, could lead to lost atoms (src/domain.cpp:966)
Per MPI rank memory allocation (min/avg/max) = 8.589 | 8.59 | 8.591 Mbytes
   Step         PotEng         TotEng           Lx             Ly             Lz           Volume         Press           Pxx            Pyy            Pzz      
        34  -14.811754     -14.811754      2.5235845      2.1854883      4.0996654      22.610739      348582.96      339989.07      380522.58      325237.24    
        35  -14.811754     -14.811754      2.5235845      2.1854883      4.0996654      22.610739      348582.96      339989.07      380522.58      325237.24    
Loop time of 0.000197875 on 8 procs for 1 steps with 4 atoms

Performance: 436.639 ns/day, 0.055 hours/ns, 5053.696 timesteps/s, 20.215 katom-step/s
0.0% CPU use with 8 MPI tasks x 1 OpenMP threads

MPI task timing breakdown:
Section |  min time  |  avg time  |  max time  |%varavg| %total
---------------------------------------------------------------
Pair    | 0.000141   | 0.00014663 | 0.000154   |   0.0 | 74.10
Neigh   | 0          | 0          | 0          |   0.0 |  0.00
Comm    | 2.8e-05    | 3.425e-05  | 4e-05      |   0.0 | 17.31
Output  | 1.1e-05    | 1.2125e-05 | 1.3e-05    |   0.0 |  6.13
Modify  | 0          | 1.25e-07   | 1e-06      |   0.0 |  0.06
Other   |            | 4.75e-06   |            |       |  2.40

Nlocal:            0.5 ave           1 max           0 min
Histogram: 4 0 0 0 0 0 0 0 0 4
Nghost:         633.25 ave         643 max         630 min
Histogram: 6 0 0 0 0 0 0 0 0 2
Neighs:             43 ave          94 max           0 min
Histogram: 4 0 0 0 0 0 0 0 2 2
FullNghs:           86 ave         172 max           0 min
Histogram: 4 0 0 0 0 0 0 0 0 4

Total # of neighbors = 688
Ave neighs/atom = 172
Neighbor list builds = 0
Dangerous builds = 0
variable  natoms equal "count(all)"
variable xlength equal "lx"
variable  volume equal "vol"
variable  etotal equal "etotal"
variable    ecoh equal "pe/v_natoms"
print "${xlength}, ${volume}, ${etotal}, ${ecoh}" append lattice_cohesive_energy.txt screen no

next i
jump SELF loop

change_box all x scale 1.0025 y scale 1.0025 z scale 1.0025 remap
Changing box ...
WARNING: Triclinic box skew is large. LAMMPS will run inefficiently. (src/domain.cpp:220)
  triclinic box = (0.089908326 0.080594754 0.1511843) to (2.6198018 2.2660831 4.2508497) with tilt (-1.3289923 0 0)
WARNING: Triclinic box skew is large. LAMMPS will run inefficiently. (src/domain.cpp:220)
  triclinic box = (0.089908326 0.077862894 0.1511843) to (2.6198018 2.2688149 4.2508497) with tilt (-1.3289923 0 0)
WARNING: Triclinic box skew is large. LAMMPS will run inefficiently. (src/domain.cpp:220)
  triclinic box = (0.089908326 0.077862894 0.14605972) to (2.6198018 2.2688149 4.2559743) with tilt (-1.3289923 0 0)

run 1
WARNING: No fixes with time integration, atoms won't move (src/verlet.cpp:60)
WARNING: Proc sub-domain size < neighbor skin, could lead to lost atoms (src/domain.cpp:966)
Per MPI rank memory allocation (min/avg/max) = 8.589 | 8.59 | 8.591 Mbytes
   Step         PotEng         TotEng           Lx             Ly             Lz           Volume         Press           Pxx            Pyy            Pzz      
        35  -14.849312     -14.849312      2.5298935      2.190952       4.1099146      22.780744      327122.49      322210.75      358344.23      300812.47    
        36  -14.849312     -14.849312      2.5298935      2.190952       4.1099146      22.780744      327122.49      322210.75      358344.23      300812.47    
Loop time of 0.000186 on 8 procs for 1 steps with 4 atoms

Performance: 464.516 ns/day, 0.052 hours/ns, 5376.344 timesteps/s, 21.505 katom-step/s
0.0% CPU use with 8 MPI tasks x 1 OpenMP threads

MPI task timing breakdown:
Section |  min time  |  avg time  |  max time  |%varavg| %total
---------------------------------------------------------------
Pair    | 0.00013    | 0.0001365  | 0.000144   |   0.0 | 73.39
Neigh   | 0          | 0          | 0          |   0.0 |  0.00
Comm    | 2.7e-05    | 3.45e-05   | 4.1e-05    |   0.0 | 18.55
Output  | 1.1e-05    | 1.1375e-05 | 1.2e-05    |   0.0 |  6.12
Modify  | 0          | 1.25e-07   | 1e-06      |   0.0 |  0.07
Other   |            | 3.5e-06    |            |       |  1.88

Nlocal:            0.5 ave           1 max           0 min
Histogram: 4 0 0 0 0 0 0 0 0 4
Nghost:          584.5 ave         588 max         581 min
Histogram: 2 2 0 0 0 0 0 0 2 2
Neighs:           42.5 ave          94 max           0 min
Histogram: 4 0 0 0 0 0 0 0 2 2
FullNghs:           85 ave         170 max           0 min
Histogram: 4 0 0 0 0 0 0 0 0 4

Total # of neighbors = 680
Ave neighs/atom = 170
Neighbor list builds = 0
Dangerous builds = 0
variable  natoms equal "count(all)"
variable xlength equal "lx"
variable  volume equal "vol"
variable  etotal equal "etotal"
variable    ecoh equal "pe/v_natoms"
print "${xlength}, ${volume}, ${etotal}, ${ecoh}" append lattice_cohesive_energy.txt screen no

next i
jump SELF loop

change_box all x scale 1.0025 y scale 1.0025 z scale 1.0025 remap
Changing box ...
WARNING: Triclinic box skew is large. LAMMPS will run inefficiently. (src/domain.cpp:220)
  triclinic box = (0.086745959 0.077862894 0.14605972) to (2.6229642 2.2688149 4.2559743) with tilt (-1.3289923 0 0)
WARNING: Triclinic box skew is large. LAMMPS will run inefficiently. (src/domain.cpp:220)
  triclinic box = (0.086745959 0.075124204 0.14605972) to (2.6229642 2.2715536 4.2559743) with tilt (-1.3289923 0 0)
WARNING: Triclinic box skew is large. LAMMPS will run inefficiently. (src/domain.cpp:220)
  triclinic box = (0.086745959 0.075124204 0.14092233) to (2.6229642 2.2715536 4.2611117) with tilt (-1.3289923 0 0)

run 1
WARNING: No fixes with time integration, atoms won't move (src/verlet.cpp:60)
WARNING: Proc sub-domain size < neighbor skin, could lead to lost atoms (src/domain.cpp:966)
Per MPI rank memory allocation (min/avg/max) = 8.589 | 8.59 | 8.591 Mbytes
   Step         PotEng         TotEng           Lx             Ly             Lz           Volume         Press           Pxx            Pyy            Pzz      
        36  -14.884728     -14.884728      2.5362182      2.1964294      4.1201893      22.952027      306188.61      304824.32      336753.77      276987.74    
        37  -14.884728     -14.884728      2.5362182      2.1964294      4.1201893      22.952027      306188.61      304824.32      336753.77      276987.74    
Loop time of 0.000184625 on 8 procs for 1 steps with 4 atoms

Performance: 467.976 ns/day, 0.051 hours/ns, 5416.385 timesteps/s, 21.666 katom-step/s
0.0% CPU use with 8 MPI tasks x 1 OpenMP threads

MPI task timing breakdown:
Section |  min time  |  avg time  |  max time  |%varavg| %total
---------------------------------------------------------------
Pair    | 0.00013    | 0.00013562 | 0.000143   |   0.0 | 73.46
Neigh   | 0          | 0          | 0          |   0.0 |  0.00
Comm    | 2.7e-05    | 3.4125e-05 | 4e-05      |   0.0 | 18.48
Output  | 1.1e-05    | 1.125e-05  | 1.2e-05    |   0.0 |  6.09
Modify  | 0          | 0          | 0          |   0.0 |  0.00
Other   |            | 3.625e-06  |            |       |  1.96

Nlocal:            0.5 ave           1 max           0 min
Histogram: 4 0 0 0 0 0 0 0 0 4
Nghost:          584.5 ave         588 max         581 min
Histogram: 2 2 0 0 0 0 0 0 2 2
Neighs:           41.5 ave          93 max           0 min
Histogram: 4 0 0 0 0 0 0 2 0 2
FullNghs:           83 ave         166 max           0 min
Histogram: 4 0 0 0 0 0 0 0 0 4

Total # of neighbors = 664
Ave neighs/atom = 166
Neighbor list builds = 0
Dangerous builds = 0
variable  natoms equal "count(all)"
variable xlength equal "lx"
variable  volume equal "vol"
variable  etotal equal "etotal"
variable    ecoh equal "pe/v_natoms"
print "${xlength}, ${volume}, ${etotal}, ${ecoh}" append lattice_cohesive_energy.txt screen no

next i
jump SELF loop

change_box all x scale 1.0025 y scale 1.0025 z scale 1.0025 remap
Changing box ...
WARNING: Triclinic box skew is large. LAMMPS will run inefficiently. (src/domain.cpp:220)
  triclinic box = (0.083575686 0.075124204 0.14092233) to (2.6261344 2.2715536 4.2611117) with tilt (-1.3289923 0 0)
WARNING: Triclinic box skew is large. LAMMPS will run inefficiently. (src/domain.cpp:220)
  triclinic box = (0.083575686 0.072378667 0.14092233) to (2.6261344 2.2742991 4.2611117) with tilt (-1.3289923 0 0)
WARNING: Triclinic box skew is large. LAMMPS will run inefficiently. (src/domain.cpp:220)
  triclinic box = (0.083575686 0.072378667 0.13577209) to (2.6261344 2.2742991 4.2662619) with tilt (-1.3289923 0 0)

run 1
WARNING: No fixes with time integration, atoms won't move (src/verlet.cpp:60)
WARNING: Proc sub-domain size < neighbor skin, could lead to lost atoms (src/domain.cpp:966)
Per MPI rank memory allocation (min/avg/max) = 8.589 | 8.59 | 8.591 Mbytes
   Step         PotEng         TotEng           Lx             Ly             Lz           Volume         Press           Pxx            Pyy            Pzz      
        37  -14.91803      -14.91803       2.5425588      2.2019205      4.1304898      23.124598      285772.57      287823.49      315741.1       253753.11    
        38  -14.91803      -14.91803       2.5425588      2.2019205      4.1304898      23.124598      285772.57      287823.49      315741.1       253753.11    
Loop time of 0.000195375 on 8 procs for 1 steps with 4 atoms

Performance: 442.226 ns/day, 0.054 hours/ns, 5118.362 timesteps/s, 20.473 katom-step/s
0.0% CPU use with 8 MPI tasks x 1 OpenMP threads

MPI task timing breakdown:
Section |  min time  |  avg time  |  max time  |%varavg| %total
---------------------------------------------------------------
Pair    | 0.000132   | 0.000138   | 0.000144   |   0.0 | 70.63
Neigh   | 0          | 0          | 0          |   0.0 |  0.00
Comm    | 2.6e-05    | 3.225e-05  | 3.9e-05    |   0.0 | 16.51
Output  | 1.1e-05    | 1.25e-05   | 2.1e-05    |   0.0 |  6.40
Modify  | 0          | 0          | 0          |   0.0 |  0.00
Other   |            | 1.262e-05  |            |       |  6.46

Nlocal:            0.5 ave           1 max           0 min
Histogram: 4 0 0 0 0 0 0 0 0 4
Nghost:          584.5 ave         588 max         581 min
Histogram: 2 2 0 0 0 0 0 0 2 2
Neighs:           41.5 ave          93 max           0 min
Histogram: 4 0 0 0 0 0 0 2 0 2
FullNghs:           83 ave         166 max           0 min
Histogram: 4 0 0 0 0 0 0 0 0 4

Total # of neighbors = 664
Ave neighs/atom = 166
Neighbor list builds = 0
Dangerous builds = 0
variable  natoms equal "count(all)"
variable xlength equal "lx"
variable  volume equal "vol"
variable  etotal equal "etotal"
variable    ecoh equal "pe/v_natoms"
print "${xlength}, ${volume}, ${etotal}, ${ecoh}" append lattice_cohesive_energy.txt screen no

next i
jump SELF loop

change_box all x scale 1.0025 y scale 1.0025 z scale 1.0025 remap
Changing box ...
WARNING: Triclinic box skew is large. LAMMPS will run inefficiently. (src/domain.cpp:220)
  triclinic box = (0.080397488 0.072378667 0.13577209) to (2.6293126 2.2742991 4.2662619) with tilt (-1.3289923 0 0)
WARNING: Triclinic box skew is large. LAMMPS will run inefficiently. (src/domain.cpp:220)
  triclinic box = (0.080397488 0.069626267 0.13577209) to (2.6293126 2.2770515 4.2662619) with tilt (-1.3289923 0 0)
WARNING: Triclinic box skew is large. LAMMPS will run inefficiently. (src/domain.cpp:220)
  triclinic box = (0.080397488 0.069626267 0.13060898) to (2.6293126 2.2770515 4.271425) with tilt (-1.3289923 0 0)

run 1
WARNING: No fixes with time integration, atoms won't move (src/verlet.cpp:60)
WARNING: Proc sub-domain size < neighbor skin, could lead to lost atoms (src/domain.cpp:966)
Per MPI rank memory allocation (min/avg/max) = 8.581 | 8.582 | 8.583 Mbytes
   Step         PotEng         TotEng           Lx             Ly             Lz           Volume         Press           Pxx            Pyy            Pzz      
        38  -14.949248     -14.949248      2.5489152      2.2074253      4.140816       23.298466      265865.67      271201.98      295296.29      231098.74    
        39  -14.949248     -14.949248      2.5489152      2.2074253      4.140816       23.298466      265865.67      271201.98      295296.29      231098.74    
Loop time of 0.00016975 on 8 procs for 1 steps with 4 atoms

Performance: 508.984 ns/day, 0.047 hours/ns, 5891.016 timesteps/s, 23.564 katom-step/s
0.0% CPU use with 8 MPI tasks x 1 OpenMP threads

MPI task timing breakdown:
Section |  min time  |  avg time  |  max time  |%varavg| %total
---------------------------------------------------------------
Pair    | 0.000117   | 0.0001225  | 0.00013    |   0.0 | 72.16
Neigh   | 0          | 0          | 0          |   0.0 |  0.00
Comm    | 2.5e-05    | 3.2375e-05 | 3.8e-05    |   0.0 | 19.07
Output  | 1.1e-05    | 1.175e-05  | 1.2e-05    |   0.0 |  6.92
Modify  | 0          | 0          | 0          |   0.0 |  0.00
Other   |            | 3.125e-06  |            |       |  1.84

Nlocal:            0.5 ave           1 max           0 min
Histogram: 4 0 0 0 0 0 0 0 0 4
Nghost:          506.5 ave         510 max         503 min
Histogram: 2 2 0 0 0 0 0 0 2 2
Neighs:           41.5 ave          93 max           0 min
Histogram: 4 0 0 0 0 0 0 2 0 2
FullNghs:           83 ave         166 max           0 min
Histogram: 4 0 0 0 0 0 0 0 0 4

Total # of neighbors = 664
Ave neighs/atom = 166
Neighbor list builds = 0
Dangerous builds = 0
variable  natoms equal "count(all)"
variable xlength equal "lx"
variable  volume equal "vol"
variable  etotal equal "etotal"
variable    ecoh equal "pe/v_natoms"
print "${xlength}, ${volume}, ${etotal}, ${ecoh}" append lattice_cohesive_energy.txt screen no

next i
jump SELF loop

change_box all x scale 1.0025 y scale 1.0025 z scale 1.0025 remap
Changing box ...
WARNING: Triclinic box skew is large. LAMMPS will run inefficiently. (src/domain.cpp:220)
  triclinic box = (0.077211344 0.069626267 0.13060898) to (2.6324988 2.2770515 4.271425) with tilt (-1.3289923 0 0)
WARNING: Triclinic box skew is large. LAMMPS will run inefficiently. (src/domain.cpp:220)
  triclinic box = (0.077211344 0.066866985 0.13060898) to (2.6324988 2.2798108 4.271425) with tilt (-1.3289923 0 0)
WARNING: Triclinic box skew is large. LAMMPS will run inefficiently. (src/domain.cpp:220)
  triclinic box = (0.077211344 0.066866985 0.12543296) to (2.6324988 2.2798108 4.276601) with tilt (-1.3289923 0 0)

run 1
WARNING: No fixes with time integration, atoms won't move (src/verlet.cpp:60)
WARNING: Proc sub-domain size < neighbor skin, could lead to lost atoms (src/domain.cpp:966)
Per MPI rank memory allocation (min/avg/max) = 8.581 | 8.582 | 8.583 Mbytes
   Step         PotEng         TotEng           Lx             Ly             Lz           Volume         Press           Pxx            Pyy            Pzz      
        39  -14.978411     -14.978411      2.5552874      2.2129438      4.1511681      23.473642      246459.4       254953.88      275409.48      209014.85    
        40  -14.978411     -14.978411      2.5552874      2.2129438      4.1511681      23.473642      246459.4       254953.88      275409.48      209014.85    
Loop time of 0.000164375 on 8 procs for 1 steps with 4 atoms

Performance: 525.627 ns/day, 0.046 hours/ns, 6083.650 timesteps/s, 24.335 katom-step/s
0.0% CPU use with 8 MPI tasks x 1 OpenMP threads

MPI task timing breakdown:
Section |  min time  |  avg time  |  max time  |%varavg| %total
---------------------------------------------------------------
Pair    | 0.000112   | 0.00011763 | 0.000124   |   0.0 | 71.56
Neigh   | 0          | 0          | 0          |   0.0 |  0.00
Comm    | 2.5e-05    | 3.1375e-05 | 3.7e-05    |   0.0 | 19.09
Output  | 1.1e-05    | 1.1625e-05 | 1.2e-05    |   0.0 |  7.07
Modify  | 0          | 1.25e-07   | 1e-06      |   0.0 |  0.08
Other   |            | 3.625e-06  |            |       |  2.21

Nlocal:            0.5 ave           1 max           0 min
Histogram: 4 0 0 0 0 0 0 0 0 4
Nghost:          467.5 ave         468 max         467 min
Histogram: 4 0 0 0 0 0 0 0 0 4
Neighs:           41.5 ave          93 max           0 min
Histogram: 4 0 0 0 0 0 0 2 0 2
FullNghs:           83 ave         166 max           0 min
Histogram: 4 0 0 0 0 0 0 0 0 4

Total # of neighbors = 664
Ave neighs/atom = 166
Neighbor list builds = 0
Dangerous builds = 0
variable  natoms equal "count(all)"
variable xlength equal "lx"
variable  volume equal "vol"
variable  etotal equal "etotal"
variable    ecoh equal "pe/v_natoms"
print "${xlength}, ${volume}, ${etotal}, ${ecoh}" append lattice_cohesive_energy.txt screen no

next i
jump SELF loop

change_box all x scale 1.0025 y scale 1.0025 z scale 1.0025 remap
Changing box ...
WARNING: Triclinic box skew is large. LAMMPS will run inefficiently. (src/domain.cpp:220)
  triclinic box = (0.074017234 0.066866985 0.12543296) to (2.6356929 2.2798108 4.276601) with tilt (-1.3289923 0 0)
WARNING: Triclinic box skew is large. LAMMPS will run inefficiently. (src/domain.cpp:220)
  triclinic box = (0.074017234 0.064100805 0.12543296) to (2.6356929 2.282577 4.276601) with tilt (-1.3289923 0 0)
WARNING: Triclinic box skew is large. LAMMPS will run inefficiently. (src/domain.cpp:220)
  triclinic box = (0.074017234 0.064100805 0.120244) to (2.6356929 2.282577 4.28179) with tilt (-1.3289923 0 0)

run 1
WARNING: No fixes with time integration, atoms won't move (src/verlet.cpp:60)
WARNING: Proc sub-domain size < neighbor skin, could lead to lost atoms (src/domain.cpp:966)
Per MPI rank memory allocation (min/avg/max) = 8.581 | 8.582 | 8.583 Mbytes
   Step         PotEng         TotEng           Lx             Ly             Lz           Volume         Press           Pxx            Pyy            Pzz      
        40  -15.005548     -15.005548      2.5616757      2.2184762      4.161546       23.650135      227545.28      239073.25      256070.82      187491.78    
        41  -15.005548     -15.005548      2.5616757      2.2184762      4.161546       23.650135      227545.28      239073.25      256070.82      187491.78    
Loop time of 0.00017525 on 8 procs for 1 steps with 4 atoms

Performance: 493.010 ns/day, 0.049 hours/ns, 5706.134 timesteps/s, 22.825 katom-step/s
0.0% CPU use with 8 MPI tasks x 1 OpenMP threads

MPI task timing breakdown:
Section |  min time  |  avg time  |  max time  |%varavg| %total
---------------------------------------------------------------
Pair    | 0.000117   | 0.000123   | 0.000133   |   0.0 | 70.19
Neigh   | 0          | 0          | 0          |   0.0 |  0.00
Comm    | 2.5e-05    | 3.4375e-05 | 4.1e-05    |   0.0 | 19.61
Output  | 1.3e-05    | 1.325e-05  | 1.4e-05    |   0.0 |  7.56
Modify  | 0          | 2.5e-07    | 1e-06      |   0.0 |  0.14
Other   |            | 4.375e-06  |            |       |  2.50

Nlocal:            0.5 ave           1 max           0 min
Histogram: 4 0 0 0 0 0 0 0 0 4
Nghost:          467.5 ave         468 max         467 min
Histogram: 4 0 0 0 0 0 0 0 0 4
Neighs:             41 ave          92 max           0 min
Histogram: 4 0 0 0 0 0 0 2 0 2
FullNghs:           82 ave         164 max           0 min
Histogram: 4 0 0 0 0 0 0 0 0 4

Total # of neighbors = 656
Ave neighs/atom = 164
Neighbor list builds = 0
Dangerous builds = 0
variable  natoms equal "count(all)"
variable xlength equal "lx"
variable  volume equal "vol"
variable  etotal equal "etotal"
variable    ecoh equal "pe/v_natoms"
print "${xlength}, ${volume}, ${etotal}, ${ecoh}" append lattice_cohesive_energy.txt screen no

next i
jump SELF loop

change_box all x scale 1.0025 y scale 1.0025 z scale 1.0025 remap
Changing box ...
WARNING: Triclinic box skew is large. LAMMPS will run inefficiently. (src/domain.cpp:220)
  triclinic box = (0.07081514 0.064100805 0.120244) to (2.638895 2.282577 4.28179) with tilt (-1.3289923 0 0)
WARNING: Triclinic box skew is large. LAMMPS will run inefficiently. (src/domain.cpp:220)
  triclinic box = (0.07081514 0.06132771 0.120244) to (2.638895 2.2853501 4.28179) with tilt (-1.3289923 0 0)
WARNING: Triclinic box skew is large. LAMMPS will run inefficiently. (src/domain.cpp:220)
  triclinic box = (0.07081514 0.06132771 0.11504207) to (2.638895 2.2853501 4.2869919) with tilt (-1.3289923 0 0)

run 1
WARNING: No fixes with time integration, atoms won't move (src/verlet.cpp:60)
WARNING: Proc sub-domain size < neighbor skin, could lead to lost atoms (src/domain.cpp:966)
Per MPI rank memory allocation (min/avg/max) = 8.581 | 8.582 | 8.583 Mbytes
   Step         PotEng         TotEng           Lx             Ly             Lz           Volume         Press           Pxx            Pyy            Pzz      
        41  -15.030686     -15.030686      2.5680799      2.2240224      4.1719499      23.827954      209114.88      223554.21      237270.52      166519.92    
        42  -15.030686     -15.030686      2.5680799      2.2240224      4.1719499      23.827954      209114.88      223554.21      237270.52      166519.92    
Loop time of 0.000156125 on 8 procs for 1 steps with 4 atoms

Performance: 553.403 ns/day, 0.043 hours/ns, 6405.124 timesteps/s, 25.620 katom-step/s
0.0% CPU use with 8 MPI tasks x 1 OpenMP threads

MPI task timing breakdown:
Section |  min time  |  avg time  |  max time  |%varavg| %total
---------------------------------------------------------------
Pair    | 0.000108   | 0.0001135  | 0.000119   |   0.0 | 72.70
Neigh   | 0          | 0          | 0          |   0.0 |  0.00
Comm    | 2.2e-05    | 2.775e-05  | 3.4e-05    |   0.0 | 17.77
Output  | 1.1e-05    | 1.15e-05   | 1.2e-05    |   0.0 |  7.37
Modify  | 0          | 0          | 0          |   0.0 |  0.00
Other   |            | 3.375e-06  |            |       |  2.16

Nlocal:            0.5 ave           1 max           0 min
Histogram: 4 0 0 0 0 0 0 0 0 4
Nghost:          467.5 ave         468 max         467 min
Histogram: 4 0 0 0 0 0 0 0 0 4
Neighs:             41 ave          92 max           0 min
Histogram: 4 0 0 0 0 0 0 2 0 2
FullNghs:           82 ave         164 max           0 min
Histogram: 4 0 0 0 0 0 0 0 0 4

Total # of neighbors = 656
Ave neighs/atom = 164
Neighbor list builds = 0
Dangerous builds = 0
variable  natoms equal "count(all)"
variable xlength equal "lx"
variable  volume equal "vol"
variable  etotal equal "etotal"
variable    ecoh equal "pe/v_natoms"
print "${xlength}, ${volume}, ${etotal}, ${ecoh}" append lattice_cohesive_energy.txt screen no

next i
jump SELF loop

change_box all x scale 1.0025 y scale 1.0025 z scale 1.0025 remap
Changing box ...
WARNING: Triclinic box skew is large. LAMMPS will run inefficiently. (src/domain.cpp:220)
  triclinic box = (0.06760504 0.06132771 0.11504207) to (2.6421051 2.2853501 4.2869919) with tilt (-1.3289923 0 0)
WARNING: Triclinic box skew is large. LAMMPS will run inefficiently. (src/domain.cpp:220)
  triclinic box = (0.06760504 0.058547682 0.11504207) to (2.6421051 2.2881301 4.2869919) with tilt (-1.3289923 0 0)
WARNING: Triclinic box skew is large. LAMMPS will run inefficiently. (src/domain.cpp:220)
  triclinic box = (0.06760504 0.058547682 0.10982713) to (2.6421051 2.2881301 4.2922069) with tilt (-1.3289923 0 0)

run 1
WARNING: No fixes with time integration, atoms won't move (src/verlet.cpp:60)
WARNING: Proc sub-domain size < neighbor skin, could lead to lost atoms (src/domain.cpp:966)
Per MPI rank memory allocation (min/avg/max) = 8.581 | 8.582 | 8.583 Mbytes
   Step         PotEng         TotEng           Lx             Ly             Lz           Volume         Press           Pxx            Pyy            Pzz      
        42  -15.053855     -15.053855      2.5745         2.2295824      4.1823797      24.007111      191159.97      208391.21      218998.96      146089.73    
        43  -15.053855     -15.053855      2.5745         2.2295824      4.1823797      24.007111      191159.97      208391.21      218998.96      146089.73    
Loop time of 0.000160875 on 8 procs for 1 steps with 4 atoms

Performance: 537.063 ns/day, 0.045 hours/ns, 6216.006 timesteps/s, 24.864 katom-step/s
0.0% CPU use with 8 MPI tasks x 1 OpenMP threads

MPI task timing breakdown:
Section |  min time  |  avg time  |  max time  |%varavg| %total
---------------------------------------------------------------
Pair    | 0.000112   | 0.000117   | 0.000124   |   0.0 | 72.73
Neigh   | 0          | 0          | 0          |   0.0 |  0.00
Comm    | 2.2e-05    | 2.8875e-05 | 3.4e-05    |   0.0 | 17.95
Output  | 1.1e-05    | 1.1e-05    | 1.1e-05    |   0.0 |  6.84
Modify  | 0          | 1.25e-07   | 1e-06      |   0.0 |  0.08
Other   |            | 3.875e-06  |            |       |  2.41

Nlocal:            0.5 ave           1 max           0 min
Histogram: 4 0 0 0 0 0 0 0 0 4
Nghost:          467.5 ave         468 max         467 min
Histogram: 4 0 0 0 0 0 0 0 0 4
Neighs:             41 ave          92 max           0 min
Histogram: 4 0 0 0 0 0 0 2 0 2
FullNghs:           82 ave         164 max           0 min
Histogram: 4 0 0 0 0 0 0 0 0 4

Total # of neighbors = 656
Ave neighs/atom = 164
Neighbor list builds = 0
Dangerous builds = 0
variable  natoms equal "count(all)"
variable xlength equal "lx"
variable  volume equal "vol"
variable  etotal equal "etotal"
variable    ecoh equal "pe/v_natoms"
print "${xlength}, ${volume}, ${etotal}, ${ecoh}" append lattice_cohesive_energy.txt screen no

next i
jump SELF loop

change_box all x scale 1.0025 y scale 1.0025 z scale 1.0025 remap
Changing box ...
WARNING: Triclinic box skew is large. LAMMPS will run inefficiently. (src/domain.cpp:220)
  triclinic box = (0.064386915 0.058547682 0.10982713) to (2.6453232 2.2881301 4.2922069) with tilt (-1.3289923 0 0)
WARNING: Triclinic box skew is large. LAMMPS will run inefficiently. (src/domain.cpp:220)
  triclinic box = (0.064386915 0.055760704 0.10982713) to (2.6453232 2.2909171 4.2922069) with tilt (-1.3289923 0 0)
WARNING: Triclinic box skew is large. LAMMPS will run inefficiently. (src/domain.cpp:220)
  triclinic box = (0.064386915 0.055760704 0.10459915) to (2.6453232 2.2909171 4.2974348) with tilt (-1.3289923 0 0)

run 1
WARNING: No fixes with time integration, atoms won't move (src/verlet.cpp:60)
WARNING: Proc sub-domain size < neighbor skin, could lead to lost atoms (src/domain.cpp:966)
Per MPI rank memory allocation (min/avg/max) = 8.581 | 8.582 | 8.583 Mbytes
   Step         PotEng         TotEng           Lx             Ly             Lz           Volume         Press           Pxx            Pyy            Pzz      
        43  -15.075083     -15.075083      2.5809363      2.2351564      4.1928357      24.187615      173672.3       193578.62      201246.55      126191.72    
        44  -15.075083     -15.075083      2.5809363      2.2351564      4.1928357      24.187615      173672.3       193578.62      201246.55      126191.72    
Loop time of 0.00034 on 8 procs for 1 steps with 4 atoms

Performance: 254.118 ns/day, 0.094 hours/ns, 2941.176 timesteps/s, 11.765 katom-step/s
0.0% CPU use with 8 MPI tasks x 1 OpenMP threads

MPI task timing breakdown:
Section |  min time  |  avg time  |  max time  |%varavg| %total
---------------------------------------------------------------
Pair    | 0.000213   | 0.00024025 | 0.000273   |   0.0 | 70.66
Neigh   | 0          | 0          | 0          |   0.0 |  0.00
Comm    | 3.7e-05    | 6.7625e-05 | 9.7e-05    |   0.0 | 19.89
Output  | 1.8e-05    | 2.2125e-05 | 2.4e-05    |   0.0 |  6.51
Modify  | 0          | 1.25e-07   | 1e-06      |   0.0 |  0.04
Other   |            | 9.875e-06  |            |       |  2.90

Nlocal:            0.5 ave           1 max           0 min
Histogram: 4 0 0 0 0 0 0 0 0 4
Nghost:          467.5 ave         468 max         467 min
Histogram: 4 0 0 0 0 0 0 0 0 4
Neighs:             41 ave          92 max           0 min
Histogram: 4 0 0 0 0 0 0 2 0 2
FullNghs:           82 ave         164 max           0 min
Histogram: 4 0 0 0 0 0 0 0 0 4

Total # of neighbors = 656
Ave neighs/atom = 164
Neighbor list builds = 0
Dangerous builds = 0
variable  natoms equal "count(all)"
variable xlength equal "lx"
variable  volume equal "vol"
variable  etotal equal "etotal"
variable    ecoh equal "pe/v_natoms"
print "${xlength}, ${volume}, ${etotal}, ${ecoh}" append lattice_cohesive_energy.txt screen no

next i
jump SELF loop

change_box all x scale 1.0025 y scale 1.0025 z scale 1.0025 remap
Changing box ...
WARNING: Triclinic box skew is large. LAMMPS will run inefficiently. (src/domain.cpp:220)
  triclinic box = (0.061160745 0.055760704 0.10459915) to (2.6485494 2.2909171 4.2974348) with tilt (-1.3289923 0 0)
WARNING: Triclinic box skew is large. LAMMPS will run inefficiently. (src/domain.cpp:220)
  triclinic box = (0.061160745 0.052966759 0.10459915) to (2.6485494 2.2937111 4.2974348) with tilt (-1.3289923 0 0)
WARNING: Triclinic box skew is large. LAMMPS will run inefficiently. (src/domain.cpp:220)
  triclinic box = (0.061160745 0.052966759 0.09935811) to (2.6485494 2.2937111 4.3026759) with tilt (-1.3289923 0 0)

run 1
WARNING: No fixes with time integration, atoms won't move (src/verlet.cpp:60)
WARNING: Proc sub-domain size < neighbor skin, could lead to lost atoms (src/domain.cpp:966)
Per MPI rank memory allocation (min/avg/max) = 8.581 | 8.582 | 8.583 Mbytes
   Step         PotEng         TotEng           Lx             Ly             Lz           Volume         Press           Pxx            Pyy            Pzz      
        44  -15.094399     -15.094399      2.5873886      2.2407443      4.2033178      24.369476      156643.75      179110.91      184003.83      106816.5     
        45  -15.094399     -15.094399      2.5873886      2.2407443      4.2033178      24.369476      156643.75      179110.91      184003.83      106816.5     
Loop time of 0.000416 on 8 procs for 1 steps with 4 atoms

Performance: 207.692 ns/day, 0.116 hours/ns, 2403.846 timesteps/s, 9.615 katom-step/s
469.5% CPU use with 8 MPI tasks x 1 OpenMP threads

MPI task timing breakdown:
Section |  min time  |  avg time  |  max time  |%varavg| %total
---------------------------------------------------------------
Pair    | 0.000194   | 0.00022625 | 0.00026    |   0.0 | 54.39
Neigh   | 0          | 0          | 0          |   0.0 |  0.00
Comm    | 8.2e-05    | 0.00013637 | 0.00019    |   0.0 | 32.78
Output  | 1.9e-05    | 1.9875e-05 | 2.1e-05    |   0.0 |  4.78
Modify  | 0          | 2.5e-07    | 1e-06      |   0.0 |  0.06
Other   |            | 3.325e-05  |            |       |  7.99

Nlocal:            0.5 ave           1 max           0 min
Histogram: 4 0 0 0 0 0 0 0 0 4
Nghost:          467.5 ave         468 max         467 min
Histogram: 4 0 0 0 0 0 0 0 0 4
Neighs:             41 ave          92 max           0 min
Histogram: 4 0 0 0 0 0 0 2 0 2
FullNghs:           82 ave         164 max           0 min
Histogram: 4 0 0 0 0 0 0 0 0 4

Total # of neighbors = 656
Ave neighs/atom = 164
Neighbor list builds = 0
Dangerous builds = 0
variable  natoms equal "count(all)"
variable xlength equal "lx"
variable  volume equal "vol"
variable  etotal equal "etotal"
variable    ecoh equal "pe/v_natoms"
print "${xlength}, ${volume}, ${etotal}, ${ecoh}" append lattice_cohesive_energy.txt screen no

next i
jump SELF loop

change_box all x scale 1.0025 y scale 1.0025 z scale 1.0025 remap
Changing box ...
WARNING: Triclinic box skew is large. LAMMPS will run inefficiently. (src/domain.cpp:220)
  triclinic box = (0.057926509 0.052966759 0.09935811) to (2.6517836 2.2937111 4.3026759) with tilt (-1.3289923 0 0)
WARNING: Triclinic box skew is large. LAMMPS will run inefficiently. (src/domain.cpp:220)
  triclinic box = (0.057926509 0.050165828 0.09935811) to (2.6517836 2.296512 4.3026759) with tilt (-1.3289923 0 0)
WARNING: Triclinic box skew is large. LAMMPS will run inefficiently. (src/domain.cpp:220)
  triclinic box = (0.057926509 0.050165828 0.094103963) to (2.6517836 2.296512 4.30793) with tilt (-1.3289923 0 0)

run 1
WARNING: No fixes with time integration, atoms won't move (src/verlet.cpp:60)
WARNING: Proc sub-domain size < neighbor skin, could lead to lost atoms (src/domain.cpp:966)
Per MPI rank memory allocation (min/avg/max) = 8.581 | 8.582 | 8.583 Mbytes
   Step         PotEng         TotEng           Lx             Ly             Lz           Volume         Press           Pxx            Pyy            Pzz      
        45  -15.111833     -15.111833      2.5938571      2.2463462      4.2138261      24.552704      140066.27      164818.09      167614.54      87766.183    
        46  -15.111833     -15.111833      2.5938571      2.2463462      4.2138261      24.552704      140066.27      164818.09      167614.54      87766.183    
Loop time of 0.00031675 on 8 procs for 1 steps with 4 atoms

Performance: 272.770 ns/day, 0.088 hours/ns, 3157.064 timesteps/s, 12.628 katom-step/s
0.0% CPU use with 8 MPI tasks x 1 OpenMP threads

MPI task timing breakdown:
Section |  min time  |  avg time  |  max time  |%varavg| %total
---------------------------------------------------------------
Pair    | 0.000187   | 0.00021963 | 0.000253   |   0.0 | 69.34
Neigh   | 0          | 0          | 0          |   0.0 |  0.00
Comm    | 3.6e-05    | 6.875e-05  | 0.000101   |   0.0 | 21.70
Output  | 1.7e-05    | 1.8625e-05 | 2.1e-05    |   0.0 |  5.88
Modify  | 0          | 5e-07      | 2e-06      |   0.0 |  0.16
Other   |            | 9.25e-06   |            |       |  2.92

Nlocal:            0.5 ave           1 max           0 min
Histogram: 4 0 0 0 0 0 0 0 0 4
Nghost:          467.5 ave         468 max         467 min
Histogram: 4 0 0 0 0 0 0 0 0 4
Neighs:             41 ave          92 max           0 min
Histogram: 4 0 0 0 0 0 0 2 0 2
FullNghs:           82 ave         164 max           0 min
Histogram: 4 0 0 0 0 0 0 0 0 4

Total # of neighbors = 656
Ave neighs/atom = 164
Neighbor list builds = 0
Dangerous builds = 0
variable  natoms equal "count(all)"
variable xlength equal "lx"
variable  volume equal "vol"
variable  etotal equal "etotal"
variable    ecoh equal "pe/v_natoms"
print "${xlength}, ${volume}, ${etotal}, ${ecoh}" append lattice_cohesive_energy.txt screen no

next i
jump SELF loop

change_box all x scale 1.0025 y scale 1.0025 z scale 1.0025 remap
Changing box ...
WARNING: Triclinic box skew is large. LAMMPS will run inefficiently. (src/domain.cpp:220)
  triclinic box = (0.054684187 0.050165828 0.094103963) to (2.6550259 2.296512 4.30793) with tilt (-1.3289923 0 0)
WARNING: Triclinic box skew is large. LAMMPS will run inefficiently. (src/domain.cpp:220)
  triclinic box = (0.054684187 0.047357895 0.094103963) to (2.6550259 2.2993199 4.30793) with tilt (-1.3289923 0 0)
WARNING: Triclinic box skew is large. LAMMPS will run inefficiently. (src/domain.cpp:220)
  triclinic box = (0.054684187 0.047357895 0.08883668) to (2.6550259 2.2993199 4.3131973) with tilt (-1.3289923 0 0)

run 1
WARNING: No fixes with time integration, atoms won't move (src/verlet.cpp:60)
WARNING: Proc sub-domain size < neighbor skin, could lead to lost atoms (src/domain.cpp:966)
Per MPI rank memory allocation (min/avg/max) = 8.581 | 8.582 | 8.583 Mbytes
   Step         PotEng         TotEng           Lx             Ly             Lz           Volume         Press           Pxx            Pyy            Pzz      
        46  -15.127437     -15.127437      2.6003418      2.251962       4.2243606      24.73731       123930.31      150423.23      152651.76      68715.93     
        47  -15.127437     -15.127437      2.6003418      2.251962       4.2243606      24.73731       123930.31      150423.23      152651.76      68715.93     
Loop time of 0.000310875 on 8 procs for 1 steps with 4 atoms

Performance: 277.925 ns/day, 0.086 hours/ns, 3216.727 timesteps/s, 12.867 katom-step/s
0.0% CPU use with 8 MPI tasks x 1 OpenMP threads

MPI task timing breakdown:
Section |  min time  |  avg time  |  max time  |%varavg| %total
---------------------------------------------------------------
Pair    | 0.000182   | 0.00021375 | 0.000246   |   0.0 | 68.76
Neigh   | 0          | 0          | 0          |   0.0 |  0.00
Comm    | 3.4e-05    | 6.575e-05  | 9.7e-05    |   0.0 | 21.15
Output  | 1.6e-05    | 1.8375e-05 | 2.1e-05    |   0.0 |  5.91
Modify  | 0          | 1.25e-07   | 1e-06      |   0.0 |  0.04
Other   |            | 1.288e-05  |            |       |  4.14

Nlocal:            0.5 ave           1 max           0 min
Histogram: 4 0 0 0 0 0 0 0 0 4
Nghost:          467.5 ave         468 max         467 min
Histogram: 4 0 0 0 0 0 0 0 0 4
Neighs:             41 ave          92 max           0 min
Histogram: 4 0 0 0 0 0 0 2 0 2
FullNghs:           82 ave         164 max           0 min
Histogram: 4 0 0 0 0 0 0 0 0 4

Total # of neighbors = 656
Ave neighs/atom = 164
Neighbor list builds = 0
Dangerous builds = 0
variable  natoms equal "count(all)"
variable xlength equal "lx"
variable  volume equal "vol"
variable  etotal equal "etotal"
variable    ecoh equal "pe/v_natoms"
print "${xlength}, ${volume}, ${etotal}, ${ecoh}" append lattice_cohesive_energy.txt screen no

next i
jump SELF loop

change_box all x scale 1.0025 y scale 1.0025 z scale 1.0025 remap
Changing box ...
WARNING: Triclinic box skew is large. LAMMPS will run inefficiently. (src/domain.cpp:220)
  triclinic box = (0.05143376 0.047357895 0.08883668) to (2.6582764 2.2993199 4.3131973) with tilt (-1.3289923 0 0)
WARNING: Triclinic box skew is large. LAMMPS will run inefficiently. (src/domain.cpp:220)
  triclinic box = (0.05143376 0.044542943 0.08883668) to (2.6582764 2.3021349 4.3131973) with tilt (-1.3289923 0 0)
WARNING: Triclinic box skew is large. LAMMPS will run inefficiently. (src/domain.cpp:220)
  triclinic box = (0.05143376 0.044542943 0.083556229) to (2.6582764 2.3021349 4.3184778) with tilt (-1.3289923 0 0)

run 1
WARNING: No fixes with time integration, atoms won't move (src/verlet.cpp:60)
WARNING: Proc sub-domain size < neighbor skin, could lead to lost atoms (src/domain.cpp:966)
Per MPI rank memory allocation (min/avg/max) = 8.581 | 8.582 | 8.583 Mbytes
   Step         PotEng         TotEng           Lx             Ly             Lz           Volume         Press           Pxx            Pyy            Pzz      
        47  -15.14125      -15.14125       2.6068426      2.2575919      4.2349215      24.923304      108227.44      136384.06      138113.92      50184.338    
        48  -15.14125      -15.14125       2.6068426      2.2575919      4.2349215      24.923304      108227.44      136384.06      138113.92      50184.338    
Loop time of 0.000317125 on 8 procs for 1 steps with 4 atoms

Performance: 272.448 ns/day, 0.088 hours/ns, 3153.331 timesteps/s, 12.613 katom-step/s
0.0% CPU use with 8 MPI tasks x 1 OpenMP threads

MPI task timing breakdown:
Section |  min time  |  avg time  |  max time  |%varavg| %total
---------------------------------------------------------------
Pair    | 0.000186   | 0.00022    | 0.000254   |   0.0 | 69.37
Neigh   | 0          | 0          | 0          |   0.0 |  0.00
Comm    | 3.5e-05    | 6.8875e-05 | 0.000102   |   0.0 | 21.72
Output  | 1.7e-05    | 1.8875e-05 | 2.1e-05    |   0.0 |  5.95
Modify  | 0          | 6.25e-07   | 2e-06      |   0.0 |  0.20
Other   |            | 8.75e-06   |            |       |  2.76

Nlocal:            0.5 ave           1 max           0 min
Histogram: 4 0 0 0 0 0 0 0 0 4
Nghost:          467.5 ave         468 max         467 min
Histogram: 4 0 0 0 0 0 0 0 0 4
Neighs:          39.25 ave          87 max           0 min
Histogram: 4 0 0 0 0 0 0 0 2 2
FullNghs:         78.5 ave         157 max           0 min
Histogram: 4 0 0 0 0 0 0 0 0 4

Total # of neighbors = 628
Ave neighs/atom = 157
Neighbor list builds = 0
Dangerous builds = 0
variable  natoms equal "count(all)"
variable xlength equal "lx"
variable  volume equal "vol"
variable  etotal equal "etotal"
variable    ecoh equal "pe/v_natoms"
print "${xlength}, ${volume}, ${etotal}, ${ecoh}" append lattice_cohesive_energy.txt screen no

next i
jump SELF loop

change_box all x scale 1.0025 y scale 1.0025 z scale 1.0025 remap
Changing box ...
WARNING: Triclinic box skew is large. LAMMPS will run inefficiently. (src/domain.cpp:220)
  triclinic box = (0.048175207 0.044542943 0.083556229) to (2.6615349 2.3021349 4.3184778) with tilt (-1.3289923 0 0)
WARNING: Triclinic box skew is large. LAMMPS will run inefficiently. (src/domain.cpp:220)
  triclinic box = (0.048175207 0.041720953 0.083556229) to (2.6615349 2.3049569 4.3184778) with tilt (-1.3289923 0 0)
WARNING: Triclinic box skew is large. LAMMPS will run inefficiently. (src/domain.cpp:220)
  triclinic box = (0.048175207 0.041720953 0.078262577) to (2.6615349 2.3049569 4.3237714) with tilt (-1.3289923 0 0)

run 1
WARNING: No fixes with time integration, atoms won't move (src/verlet.cpp:60)
WARNING: Proc sub-domain size < neighbor skin, could lead to lost atoms (src/domain.cpp:966)
Per MPI rank memory allocation (min/avg/max) = 8.581 | 8.582 | 8.583 Mbytes
   Step         PotEng         TotEng           Lx             Ly             Lz           Volume         Press           Pxx            Pyy            Pzz      
        48  -15.153298     -15.153298      2.6133597      2.2632359      4.2455088      25.110697      92950.038      122694.83      123993.3       32161.979    
        49  -15.153298     -15.153298      2.6133597      2.2632359      4.2455088      25.110697      92950.038      122694.83      123993.3       32161.979    
Loop time of 0.00032 on 8 procs for 1 steps with 4 atoms

Performance: 270.000 ns/day, 0.089 hours/ns, 3125.000 timesteps/s, 12.500 katom-step/s
0.0% CPU use with 8 MPI tasks x 1 OpenMP threads

MPI task timing breakdown:
Section |  min time  |  avg time  |  max time  |%varavg| %total
---------------------------------------------------------------
Pair    | 0.000189   | 0.00022012 | 0.000258   |   0.0 | 68.79
Neigh   | 0          | 0          | 0          |   0.0 |  0.00
Comm    | 3.6e-05    | 7.2625e-05 | 0.000103   |   0.0 | 22.70
Output  | 1.7e-05    | 1.825e-05  | 2e-05      |   0.0 |  5.70
Modify  | 0          | 3.75e-07   | 1e-06      |   0.0 |  0.12
Other   |            | 8.625e-06  |            |       |  2.70

Nlocal:            0.5 ave           1 max           0 min
Histogram: 4 0 0 0 0 0 0 0 0 4
Nghost:          467.5 ave         468 max         467 min
Histogram: 4 0 0 0 0 0 0 0 0 4
Neighs:           37.5 ave          82 max           0 min
Histogram: 4 0 0 0 0 0 0 0 2 2
FullNghs:           75 ave         150 max           0 min
Histogram: 4 0 0 0 0 0 0 0 0 4

Total # of neighbors = 600
Ave neighs/atom = 150
Neighbor list builds = 0
Dangerous builds = 0
variable  natoms equal "count(all)"
variable xlength equal "lx"
variable  volume equal "vol"
variable  etotal equal "etotal"
variable    ecoh equal "pe/v_natoms"
print "${xlength}, ${volume}, ${etotal}, ${ecoh}" append lattice_cohesive_energy.txt screen no

next i
jump SELF loop

change_box all x scale 1.0025 y scale 1.0025 z scale 1.0025 remap
Changing box ...
WARNING: Triclinic box skew is large. LAMMPS will run inefficiently. (src/domain.cpp:220)
  triclinic box = (0.044908507 0.041720953 0.078262577) to (2.6648016 2.3049569 4.3237714) with tilt (-1.3289923 0 0)
  triclinic box = (0.044908507 0.038891908 0.078262577) to (2.6648016 2.3077859 4.3237714) with tilt (-1.3289923 0 0)
  triclinic box = (0.044908507 0.038891908 0.072955691) to (2.6648016 2.3077859 4.3290783) with tilt (-1.3289923 0 0)

run 1
Per MPI rank memory allocation (min/avg/max) = 8.581 | 8.582 | 8.583 Mbytes
   Step         PotEng         TotEng           Lx             Ly             Lz           Volume         Press           Pxx            Pyy            Pzz      
WARNING: Too many warnings: 104 vs 100. All future warnings will be suppressed (src/thermo.cpp:466)
        49  -15.163608     -15.163608      2.6198931      2.268894       4.2561226      25.299498      78090.476      109349.71      110282.23      14639.491    
        50  -15.163608     -15.163608      2.6198931      2.268894       4.2561226      25.299498      78090.476      109349.71      110282.23      14639.491    
Loop time of 0.00030125 on 8 procs for 1 steps with 4 atoms

Performance: 286.805 ns/day, 0.084 hours/ns, 3319.502 timesteps/s, 13.278 katom-step/s
0.0% CPU use with 8 MPI tasks x 1 OpenMP threads

MPI task timing breakdown:
Section |  min time  |  avg time  |  max time  |%varavg| %total
---------------------------------------------------------------
Pair    | 0.00018    | 0.00021012 | 0.000241   |   0.0 | 69.75
Neigh   | 0          | 0          | 0          |   0.0 |  0.00
Comm    | 3.4e-05    | 6.4625e-05 | 9.5e-05    |   0.0 | 21.45
Output  | 1.6e-05    | 1.75e-05   | 2e-05      |   0.0 |  5.81
Modify  | 0          | 3.75e-07   | 1e-06      |   0.0 |  0.12
Other   |            | 8.625e-06  |            |       |  2.86

Nlocal:            0.5 ave           1 max           0 min
Histogram: 4 0 0 0 0 0 0 0 0 4
Nghost:          467.5 ave         468 max         467 min
Histogram: 4 0 0 0 0 0 0 0 0 4
Neighs:           36.5 ave          80 max           0 min
Histogram: 4 0 0 0 0 0 0 0 2 2
FullNghs:           73 ave         146 max           0 min
Histogram: 4 0 0 0 0 0 0 0 0 4

Total # of neighbors = 584
Ave neighs/atom = 146
Neighbor list builds = 0
Dangerous builds = 0
variable  natoms equal "count(all)"
variable xlength equal "lx"
variable  volume equal "vol"
variable  etotal equal "etotal"
variable    ecoh equal "pe/v_natoms"
print "${xlength}, ${volume}, ${etotal}, ${ecoh}" append lattice_cohesive_energy.txt screen no

next i
jump SELF loop

change_box all x scale 1.0025 y scale 1.0025 z scale 1.0025 remap
Changing box ...
  triclinic box = (0.041633641 0.038891908 0.072955691) to (2.6680765 2.3077859 4.3290783) with tilt (-1.3289923 0 0)
  triclinic box = (0.041633641 0.036055791 0.072955691) to (2.6680765 2.310622 4.3290783) with tilt (-1.3289923 0 0)
  triclinic box = (0.041633641 0.036055791 0.067635538) to (2.6680765 2.310622 4.3343985) with tilt (-1.3289923 0 0)

run 1
Per MPI rank memory allocation (min/avg/max) = 8.581 | 8.582 | 8.583 Mbytes
   Step         PotEng         TotEng           Lx             Ly             Lz           Volume         Press           Pxx            Pyy            Pzz      
        50  -15.172206     -15.172206      2.6264428      2.2745662      4.2667629      25.489719      63641.226      96342.99       96973.08      -2392.3932    
        51  -15.172206     -15.172206      2.6264428      2.2745662      4.2667629      25.489719      63641.226      96342.99       96973.08      -2392.3932    
Loop time of 0.00030125 on 8 procs for 1 steps with 4 atoms

Performance: 286.805 ns/day, 0.084 hours/ns, 3319.502 timesteps/s, 13.278 katom-step/s
0.0% CPU use with 8 MPI tasks x 1 OpenMP threads

MPI task timing breakdown:
Section |  min time  |  avg time  |  max time  |%varavg| %total
---------------------------------------------------------------
Pair    | 0.000179   | 0.00020975 | 0.00024    |   0.0 | 69.63
Neigh   | 0          | 0          | 0          |   0.0 |  0.00
Comm    | 3.5e-05    | 6.525e-05  | 9.6e-05    |   0.0 | 21.66
Output  | 1.6e-05    | 1.7e-05    | 1.9e-05    |   0.0 |  5.64
Modify  | 0          | 2.5e-07    | 1e-06      |   0.0 |  0.08
Other   |            | 9e-06      |            |       |  2.99

Nlocal:            0.5 ave           1 max           0 min
Histogram: 4 0 0 0 0 0 0 0 0 4
Nghost:          467.5 ave         468 max         467 min
Histogram: 4 0 0 0 0 0 0 0 0 4
Neighs:           36.5 ave          80 max           0 min
Histogram: 4 0 0 0 0 0 0 0 2 2
FullNghs:           73 ave         146 max           0 min
Histogram: 4 0 0 0 0 0 0 0 0 4

Total # of neighbors = 584
Ave neighs/atom = 146
Neighbor list builds = 0
Dangerous builds = 0
variable  natoms equal "count(all)"
variable xlength equal "lx"
variable  volume equal "vol"
variable  etotal equal "etotal"
variable    ecoh equal "pe/v_natoms"
print "${xlength}, ${volume}, ${etotal}, ${ecoh}" append lattice_cohesive_energy.txt screen no

next i
jump SELF loop

change_box all x scale 1.0025 y scale 1.0025 z scale 1.0025 remap
Changing box ...
  triclinic box = (0.038350587 0.036055791 0.067635538) to (2.6713595 2.310622 4.3343985) with tilt (-1.3289923 0 0)
  triclinic box = (0.038350587 0.033212583 0.067635538) to (2.6713595 2.3134652 4.3343985) with tilt (-1.3289923 0 0)
  triclinic box = (0.038350587 0.033212583 0.062302084) to (2.6713595 2.3134652 4.3397319) with tilt (-1.3289923 0 0)

run 1
Per MPI rank memory allocation (min/avg/max) = 8.581 | 8.582 | 8.583 Mbytes
   Step         PotEng         TotEng           Lx             Ly             Lz           Volume         Press           Pxx            Pyy            Pzz      
        51  -15.17912      -15.17912       2.633009       2.2802526      4.2774298      25.681371      49594.933      83669.199      84058.404     -18942.806    
        52  -15.17912      -15.17912       2.633009       2.2802526      4.2774298      25.681371      49594.933      83669.199      84058.404     -18942.806    
Loop time of 0.00029775 on 8 procs for 1 steps with 4 atoms

Performance: 290.176 ns/day, 0.083 hours/ns, 3358.522 timesteps/s, 13.434 katom-step/s
0.0% CPU use with 8 MPI tasks x 1 OpenMP threads

MPI task timing breakdown:
Section |  min time  |  avg time  |  max time  |%varavg| %total
---------------------------------------------------------------
Pair    | 0.000177   | 0.0002065  | 0.000237   |   0.0 | 69.35
Neigh   | 0          | 0          | 0          |   0.0 |  0.00
Comm    | 3.5e-05    | 6.5125e-05 | 9.4e-05    |   0.0 | 21.87
Output  | 1.6e-05    | 1.7125e-05 | 1.9e-05    |   0.0 |  5.75
Modify  | 0          | 3.75e-07   | 1e-06      |   0.0 |  0.13
Other   |            | 8.625e-06  |            |       |  2.90

Nlocal:            0.5 ave           1 max           0 min
Histogram: 4 0 0 0 0 0 0 0 0 4
Nghost:          467.5 ave         468 max         467 min
Histogram: 4 0 0 0 0 0 0 0 0 4
Neighs:           36.5 ave          80 max           0 min
Histogram: 4 0 0 0 0 0 0 0 2 2
FullNghs:           73 ave         146 max           0 min
Histogram: 4 0 0 0 0 0 0 0 0 4

Total # of neighbors = 584
Ave neighs/atom = 146
Neighbor list builds = 0
Dangerous builds = 0
variable  natoms equal "count(all)"
variable xlength equal "lx"
variable  volume equal "vol"
variable  etotal equal "etotal"
variable    ecoh equal "pe/v_natoms"
print "${xlength}, ${volume}, ${etotal}, ${ecoh}" append lattice_cohesive_energy.txt screen no

next i
jump SELF loop

change_box all x scale 1.0025 y scale 1.0025 z scale 1.0025 remap
Changing box ...
  triclinic box = (0.035059326 0.033212583 0.062302084) to (2.6746508 2.3134652 4.3397319) with tilt (-1.3289923 0 0)
  triclinic box = (0.035059326 0.030362267 0.062302084) to (2.6746508 2.3163155 4.3397319) with tilt (-1.3289923 0 0)
  triclinic box = (0.035059326 0.030362267 0.056955297) to (2.6746508 2.3163155 4.3450787) with tilt (-1.3289923 0 0)

run 1
Per MPI rank memory allocation (min/avg/max) = 8.581 | 8.582 | 8.583 Mbytes
   Step         PotEng         TotEng           Lx             Ly             Lz           Volume         Press           Pxx            Pyy            Pzz      
        52  -15.184376     -15.184376      2.6395915      2.2859533      4.2881234      25.874463      35944.236      71322.805      71530.707     -35020.804    
        53  -15.184376     -15.184376      2.6395915      2.2859533      4.2881234      25.874463      35944.236      71322.805      71530.707     -35020.804    
Loop time of 0.0002985 on 8 procs for 1 steps with 4 atoms

Performance: 289.447 ns/day, 0.083 hours/ns, 3350.084 timesteps/s, 13.400 katom-step/s
0.0% CPU use with 8 MPI tasks x 1 OpenMP threads

MPI task timing breakdown:
Section |  min time  |  avg time  |  max time  |%varavg| %total
---------------------------------------------------------------
Pair    | 0.000177   | 0.00020788 | 0.000238   |   0.0 | 69.64
Neigh   | 0          | 0          | 0          |   0.0 |  0.00
Comm    | 3.5e-05    | 6.4125e-05 | 9.5e-05    |   0.0 | 21.48
Output  | 1.6e-05    | 1.7625e-05 | 1.9e-05    |   0.0 |  5.90
Modify  | 0          | 2.5e-07    | 1e-06      |   0.0 |  0.08
Other   |            | 8.625e-06  |            |       |  2.89

Nlocal:            0.5 ave           1 max           0 min
Histogram: 4 0 0 0 0 0 0 0 0 4
Nghost:          467.5 ave         468 max         467 min
Histogram: 4 0 0 0 0 0 0 0 0 4
Neighs:           36.5 ave          80 max           0 min
Histogram: 4 0 0 0 0 0 0 0 2 2
FullNghs:           73 ave         146 max           0 min
Histogram: 4 0 0 0 0 0 0 0 0 4

Total # of neighbors = 584
Ave neighs/atom = 146
Neighbor list builds = 0
Dangerous builds = 0
variable  natoms equal "count(all)"
variable xlength equal "lx"
variable  volume equal "vol"
variable  etotal equal "etotal"
variable    ecoh equal "pe/v_natoms"
print "${xlength}, ${volume}, ${etotal}, ${ecoh}" append lattice_cohesive_energy.txt screen no

next i
jump SELF loop

change_box all x scale 1.0025 y scale 1.0025 z scale 1.0025 remap
Changing box ...
  triclinic box = (0.031759837 0.030362267 0.056955297) to (2.6779503 2.3163155 4.3450787) with tilt (-1.3289923 0 0)
  triclinic box = (0.031759837 0.027504825 0.056955297) to (2.6779503 2.319173 4.3450787) with tilt (-1.3289923 0 0)
  triclinic box = (0.031759837 0.027504825 0.051595143) to (2.6779503 2.319173 4.3504389) with tilt (-1.3289923 0 0)

run 1
Per MPI rank memory allocation (min/avg/max) = 8.581 | 8.582 | 8.583 Mbytes
   Step         PotEng         TotEng           Lx             Ly             Lz           Volume         Press           Pxx            Pyy            Pzz      
        53  -15.188001     -15.188001      2.6461905      2.2916682      4.2988437      26.069007      22681.862      59298.362      59382.56      -50635.336    
        54  -15.188001     -15.188001      2.6461905      2.2916682      4.2988437      26.069007      22681.862      59298.362      59382.56      -50635.336    
Loop time of 0.0002985 on 8 procs for 1 steps with 4 atoms

Performance: 289.447 ns/day, 0.083 hours/ns, 3350.084 timesteps/s, 13.400 katom-step/s
0.0% CPU use with 8 MPI tasks x 1 OpenMP threads

MPI task timing breakdown:
Section |  min time  |  avg time  |  max time  |%varavg| %total
---------------------------------------------------------------
Pair    | 0.000178   | 0.000208   | 0.000238   |   0.0 | 69.68
Neigh   | 0          | 0          | 0          |   0.0 |  0.00
Comm    | 3.6e-05    | 6.4625e-05 | 9.4e-05    |   0.0 | 21.65
Output  | 1.6e-05    | 1.75e-05   | 1.9e-05    |   0.0 |  5.86
Modify  | 0          | 0          | 0          |   0.0 |  0.00
Other   |            | 8.375e-06  |            |       |  2.81

Nlocal:            0.5 ave           1 max           0 min
Histogram: 4 0 0 0 0 0 0 0 0 4
Nghost:          467.5 ave         468 max         467 min
Histogram: 4 0 0 0 0 0 0 0 0 4
Neighs:           36.5 ave          80 max           0 min
Histogram: 4 0 0 0 0 0 0 0 2 2
FullNghs:           73 ave         146 max           0 min
Histogram: 4 0 0 0 0 0 0 0 0 4

Total # of neighbors = 584
Ave neighs/atom = 146
Neighbor list builds = 0
Dangerous builds = 0
variable  natoms equal "count(all)"
variable xlength equal "lx"
variable  volume equal "vol"
variable  etotal equal "etotal"
variable    ecoh equal "pe/v_natoms"
print "${xlength}, ${volume}, ${etotal}, ${ecoh}" append lattice_cohesive_energy.txt screen no

next i
jump SELF loop

change_box all x scale 1.0025 y scale 1.0025 z scale 1.0025 remap
Changing box ...
  triclinic box = (0.028452099 0.027504825 0.051595143) to (2.681258 2.319173 4.3504389) with tilt (-1.3289923 0 0)
  triclinic box = (0.028452099 0.02464024 0.051595143) to (2.681258 2.3220376 4.3504389) with tilt (-1.3289923 0 0)
  triclinic box = (0.028452099 0.02464024 0.046221588) to (2.681258 2.3220376 4.3558124) with tilt (-1.3289923 0 0)

run 1
Per MPI rank memory allocation (min/avg/max) = 8.581 | 8.582 | 8.583 Mbytes
   Step         PotEng         TotEng           Lx             Ly             Lz           Volume         Press           Pxx            Pyy            Pzz      
        54  -15.19002      -15.19002       2.6528059      2.2973973      4.3095908      26.265014      9800.703       47590.667      47606.654     -65795.213    
        55  -15.19002      -15.19002       2.6528059      2.2973973      4.3095908      26.265014      9800.703       47590.667      47606.654     -65795.213    
Loop time of 0.00029025 on 8 procs for 1 steps with 4 atoms

Performance: 297.674 ns/day, 0.081 hours/ns, 3445.306 timesteps/s, 13.781 katom-step/s
0.0% CPU use with 8 MPI tasks x 1 OpenMP threads

MPI task timing breakdown:
Section |  min time  |  avg time  |  max time  |%varavg| %total
---------------------------------------------------------------
Pair    | 0.000178   | 0.00019962 | 0.000229   |   0.0 | 68.78
Neigh   | 0          | 0          | 0          |   0.0 |  0.00
Comm    | 3.5e-05    | 6.35e-05   | 8.6e-05    |   0.0 | 21.88
Output  | 1.6e-05    | 1.8e-05    | 1.9e-05    |   0.0 |  6.20
Modify  | 0          | 2.5e-07    | 1e-06      |   0.0 |  0.09
Other   |            | 8.875e-06  |            |       |  3.06

Nlocal:            0.5 ave           1 max           0 min
Histogram: 4 0 0 0 0 0 0 0 0 4
Nghost:          467.5 ave         468 max         467 min
Histogram: 4 0 0 0 0 0 0 0 0 4
Neighs:           36.5 ave          80 max           0 min
Histogram: 4 0 0 0 0 0 0 0 2 2
FullNghs:           73 ave         146 max           0 min
Histogram: 4 0 0 0 0 0 0 0 0 4

Total # of neighbors = 584
Ave neighs/atom = 146
Neighbor list builds = 0
Dangerous builds = 0
variable  natoms equal "count(all)"
variable xlength equal "lx"
variable  volume equal "vol"
variable  etotal equal "etotal"
variable    ecoh equal "pe/v_natoms"
print "${xlength}, ${volume}, ${etotal}, ${ecoh}" append lattice_cohesive_energy.txt screen no

next i
jump SELF loop

change_box all x scale 1.0025 y scale 1.0025 z scale 1.0025 remap
Changing box ...
  triclinic box = (0.025136091 0.02464024 0.046221588) to (2.684574 2.3220376 4.3558124) with tilt (-1.3289923 0 0)
  triclinic box = (0.025136091 0.021768494 0.046221588) to (2.684574 2.3249093 4.3558124) with tilt (-1.3289923 0 0)
  triclinic box = (0.025136091 0.021768494 0.0408346) to (2.684574 2.3249093 4.3611994) with tilt (-1.3289923 0 0)

run 1
Per MPI rank memory allocation (min/avg/max) = 8.581 | 8.582 | 8.583 Mbytes
   Step         PotEng         TotEng           Lx             Ly             Lz           Volume         Press           Pxx            Pyy            Pzz      
        55  -15.19046      -15.19046       2.6594379      2.3031408      4.3203648      26.462494     -2706.3258      36194.459      36195.699     -80509.135    
        56  -15.19046      -15.19046       2.6594379      2.3031408      4.3203648      26.462494     -2706.3258      36194.459      36195.699     -80509.135    
Loop time of 0.000356 on 8 procs for 1 steps with 4 atoms

Performance: 242.697 ns/day, 0.099 hours/ns, 2808.989 timesteps/s, 11.236 katom-step/s
548.6% CPU use with 8 MPI tasks x 1 OpenMP threads

MPI task timing breakdown:
Section |  min time  |  avg time  |  max time  |%varavg| %total
---------------------------------------------------------------
Pair    | 0.000186   | 0.00023037 | 0.000297   |   0.0 | 64.71
Neigh   | 0          | 0          | 0          |   0.0 |  0.00
Comm    | 3.4e-05    | 0.00010088 | 0.000145   |   0.0 | 28.34
Output  | 1.5e-05    | 1.575e-05  | 1.8e-05    |   0.0 |  4.42
Modify  | 0          | 1.25e-07   | 1e-06      |   0.0 |  0.04
Other   |            | 8.875e-06  |            |       |  2.49

Nlocal:            0.5 ave           1 max           0 min
Histogram: 4 0 0 0 0 0 0 0 0 4
Nghost:          467.5 ave         468 max         467 min
Histogram: 4 0 0 0 0 0 0 0 0 4
Neighs:           36.5 ave          80 max           0 min
Histogram: 4 0 0 0 0 0 0 0 2 2
FullNghs:           73 ave         146 max           0 min
Histogram: 4 0 0 0 0 0 0 0 0 4

Total # of neighbors = 584
Ave neighs/atom = 146
Neighbor list builds = 0
Dangerous builds = 0
variable  natoms equal "count(all)"
variable xlength equal "lx"
variable  volume equal "vol"
variable  etotal equal "etotal"
variable    ecoh equal "pe/v_natoms"
print "${xlength}, ${volume}, ${etotal}, ${ecoh}" append lattice_cohesive_energy.txt screen no

next i
jump SELF loop

change_box all x scale 1.0025 y scale 1.0025 z scale 1.0025 remap
Changing box ...
[...]
Pair    | 0.000118   | 0.0001515  | 0.000237   |   0.0 | 44.01
Neigh   | 0          | 0          | 0          |   0.0 |  0.00
Comm    | 3.8e-05    | 0.00013475 | 0.000191   |   0.0 | 39.14
Output  | 2.3e-05    | 4.9375e-05 | 6.3e-05    |   0.0 | 14.34
Modify  | 0          | 1.25e-07   | 1e-06      |   0.0 |  0.04
Other   |            | 8.5e-06    |            |       |  2.47

Nlocal:            0.5 ave           1 max           0 min
Histogram: 4 0 0 0 0 0 0 0 0 4
Nghost:          362.5 ave         365 max         360 min
Histogram: 4 0 0 0 0 0 0 0 0 4
Neighs:             33 ave          70 max           0 min
Histogram: 4 0 0 0 0 0 0 0 2 2
FullNghs:           66 ave         132 max           0 min
Histogram: 4 0 0 0 0 0 0 0 0 4

Total # of neighbors = 528
Ave neighs/atom = 132
Neighbor list builds = 0
Dangerous builds = 0
variable  natoms equal "count(all)"
variable xlength equal "lx"
variable  volume equal "vol"
variable  etotal equal "etotal"
variable    ecoh equal "pe/v_natoms"
print "${xlength}, ${volume}, ${etotal}, ${ecoh}" append lattice_cohesive_energy.txt screen no

next i
jump SELF loop

change_box all x scale 1.0025 y scale 1.0025 z scale 1.0025 remap
Changing box ...
  triclinic box = (-0.03598992 -0.028164427 -0.052832461) to (2.7457001 2.3748422 4.4548665) with tilt (-1.3289923 0 0)
  triclinic box = (-0.03598992 -0.031168185 -0.052832461) to (2.7457001 2.377846 4.4548665) with tilt (-1.3289923 0 0)
  triclinic box = (-0.03598992 -0.031168185 -0.058467085) to (2.7457001 2.377846 4.4605011) with tilt (-1.3289923 0 0)

run 1
Per MPI rank memory allocation (min/avg/max) = 8.581 | 8.582 | 8.583 Mbytes
   Step         PotEng         TotEng           Lx             Ly             Lz           Volume         Press           Pxx            Pyy            Pzz      
        73  -14.956507     -14.956507      2.78169        2.4090142      4.5189682      30.282196     -171365.46     -124328.51     -107952.71     -281815.16    
        74  -14.956507     -14.956507      2.78169        2.4090142      4.5189682      30.282196     -171365.46     -124328.51     -107952.71     -281815.16    
Loop time of 0.000261375 on 8 procs for 1 steps with 4 atoms

Performance: 330.560 ns/day, 0.073 hours/ns, 3825.921 timesteps/s, 15.304 katom-step/s
0.0% CPU use with 8 MPI tasks x 1 OpenMP threads

MPI task timing breakdown:
Section |  min time  |  avg time  |  max time  |%varavg| %total
---------------------------------------------------------------
Pair    | 0.000158   | 0.00017613 | 0.000206   |   0.0 | 67.38
Neigh   | 0          | 0          | 0          |   0.0 |  0.00
Comm    | 3e-05      | 5.9e-05    | 7.8e-05    |   0.0 | 22.57
Output  | 1.4e-05    | 1.725e-05  | 1.9e-05    |   0.0 |  6.60
Modify  | 0          | 1.25e-07   | 1e-06      |   0.0 |  0.05
Other   |            | 8.875e-06  |            |       |  3.40

Nlocal:            0.5 ave           1 max           0 min
Histogram: 4 0 0 0 0 0 0 0 0 4
Nghost:          362.5 ave         365 max         360 min
Histogram: 4 0 0 0 0 0 0 0 0 4
Neighs:             33 ave          70 max           0 min
Histogram: 4 0 0 0 0 0 0 0 2 2
FullNghs:           66 ave         132 max           0 min
Histogram: 4 0 0 0 0 0 0 0 0 4

Total # of neighbors = 528
Ave neighs/atom = 132
Neighbor list builds = 0
Dangerous builds = 0
variable  natoms equal "count(all)"
variable xlength equal "lx"
variable  volume equal "vol"
variable  etotal equal "etotal"
variable    ecoh equal "pe/v_natoms"
print "${xlength}, ${volume}, ${etotal}, ${ecoh}" append lattice_cohesive_energy.txt screen no

next i
jump SELF loop

change_box all x scale 1.0025 y scale 1.0025 z scale 1.0025 remap
Changing box ...
  triclinic box = (-0.039467033 -0.031168185 -0.058467085) to (2.7491772 2.377846 4.4605011) with tilt (-1.3289923 0 0)
  triclinic box = (-0.039467033 -0.034179453 -0.058467085) to (2.7491772 2.3808573 4.4605011) with tilt (-1.3289923 0 0)
  triclinic box = (-0.039467033 -0.034179453 -0.064115795) to (2.7491772 2.3808573 4.4661498) with tilt (-1.3289923 0 0)

run 1
Per MPI rank memory allocation (min/avg/max) = 8.581 | 8.582 | 8.583 Mbytes
   Step         PotEng         TotEng           Lx             Ly             Lz           Volume         Press           Pxx            Pyy            Pzz      
        74  -14.931503     -14.931503      2.7886442      2.4150367      4.5302656      30.509881     -177983.99     -131060.8      -112956.62     -289934.56    
        75  -14.931503     -14.931503      2.7886442      2.4150367      4.5302656      30.509881     -177983.99     -131060.8      -112956.62     -289934.56    
Loop time of 0.00027 on 8 procs for 1 steps with 4 atoms

Performance: 320.000 ns/day, 0.075 hours/ns, 3703.704 timesteps/s, 14.815 katom-step/s
0.0% CPU use with 8 MPI tasks x 1 OpenMP threads

MPI task timing breakdown:
Section |  min time  |  avg time  |  max time  |%varavg| %total
---------------------------------------------------------------
Pair    | 0.00016    | 0.0001805  | 0.00021    |   0.0 | 66.85
Neigh   | 0          | 0          | 0          |   0.0 |  0.00
Comm    | 3.3e-05    | 6.0625e-05 | 8e-05      |   0.0 | 22.45
Output  | 1.6e-05    | 1.8875e-05 | 2.1e-05    |   0.0 |  6.99
Modify  | 0          | 0          | 0          |   0.0 |  0.00
Other   |            | 1e-05      |            |       |  3.70

Nlocal:            0.5 ave           1 max           0 min
Histogram: 4 0 0 0 0 0 0 0 0 4
Nghost:          362.5 ave         365 max         360 min
Histogram: 4 0 0 0 0 0 0 0 0 4
Neighs:             33 ave          70 max           0 min
Histogram: 4 0 0 0 0 0 0 0 2 2
FullNghs:           66 ave         132 max           0 min
Histogram: 4 0 0 0 0 0 0 0 0 4

Total # of neighbors = 528
Ave neighs/atom = 132
Neighbor list builds = 0
Dangerous builds = 0
variable  natoms equal "count(all)"
variable xlength equal "lx"
variable  volume equal "vol"
variable  etotal equal "etotal"
variable    ecoh equal "pe/v_natoms"
print "${xlength}, ${volume}, ${etotal}, ${ecoh}" append lattice_cohesive_energy.txt screen no

next i
jump SELF loop

change_box all x scale 1.0025 y scale 1.0025 z scale 1.0025 remap
Changing box ...
  triclinic box = (-0.042952838 -0.034179453 -0.064115795) to (2.752663 2.3808573 4.4661498) with tilt (-1.3289923 0 0)
  triclinic box = (-0.042952838 -0.037198249 -0.064115795) to (2.752663 2.3838761 4.4661498) with tilt (-1.3289923 0 0)
  triclinic box = (-0.042952838 -0.037198249 -0.069778627) to (2.752663 2.3838761 4.4718126) with tilt (-1.3289923 0 0)

run 1
Per MPI rank memory allocation (min/avg/max) = 8.581 | 8.582 | 8.583 Mbytes
   Step         PotEng         TotEng           Lx             Ly             Lz           Volume         Press           Pxx            Pyy            Pzz      
        75  -14.905389     -14.905389      2.7956158      2.4210743      4.5415913      30.739277     -184351.26     -137563.17     -117745.43     -297745.18    
        76  -14.905389     -14.905389      2.7956158      2.4210743      4.5415913      30.739277     -184351.26     -137563.17     -117745.43     -297745.18    
Loop time of 0.00025375 on 8 procs for 1 steps with 4 atoms

Performance: 340.493 ns/day, 0.070 hours/ns, 3940.887 timesteps/s, 15.764 katom-step/s
0.0% CPU use with 8 MPI tasks x 1 OpenMP threads

MPI task timing breakdown:
Section |  min time  |  avg time  |  max time  |%varavg| %total
---------------------------------------------------------------
Pair    | 0.00015    | 0.000169   | 0.000197   |   0.0 | 66.60
Neigh   | 0          | 0          | 0          |   0.0 |  0.00
Comm    | 3.1e-05    | 5.8125e-05 | 7.8e-05    |   0.0 | 22.91
Output  | 1.5e-05    | 1.7875e-05 | 2e-05      |   0.0 |  7.04
Modify  | 0          | 3.75e-07   | 1e-06      |   0.0 |  0.15
Other   |            | 8.375e-06  |            |       |  3.30

Nlocal:            0.5 ave           1 max           0 min
Histogram: 4 0 0 0 0 0 0 0 0 4
Nghost:          362.5 ave         365 max         360 min
Histogram: 4 0 0 0 0 0 0 0 0 4
Neighs:           31.5 ave          66 max           0 min
Histogram: 4 0 0 0 0 0 0 0 0 4
FullNghs:           63 ave         126 max           0 min
Histogram: 4 0 0 0 0 0 0 0 0 4

Total # of neighbors = 504
Ave neighs/atom = 126
Neighbor list builds = 0
Dangerous builds = 0
variable  natoms equal "count(all)"
variable xlength equal "lx"
variable  volume equal "vol"
variable  etotal equal "etotal"
variable    ecoh equal "pe/v_natoms"
print "${xlength}, ${volume}, ${etotal}, ${ecoh}" append lattice_cohesive_energy.txt screen no

next i
jump SELF loop

change_box all x scale 1.0025 y scale 1.0025 z scale 1.0025 remap
Changing box ...
  triclinic box = (-0.046447358 -0.037198249 -0.069778627) to (2.7561575 2.3838761 4.4718126) with tilt (-1.3289923 0 0)
  triclinic box = (-0.046447358 -0.040224592 -0.069778627) to (2.7561575 2.3869024 4.4718126) with tilt (-1.3289923 0 0)
  triclinic box = (-0.046447358 -0.040224592 -0.075455616) to (2.7561575 2.3869024 4.4774896) with tilt (-1.3289923 0 0)

run 1
Per MPI rank memory allocation (min/avg/max) = 8.581 | 8.582 | 8.583 Mbytes
   Step         PotEng         TotEng           Lx             Ly             Lz           Volume         Press           Pxx            Pyy            Pzz      
        76  -14.878186     -14.878186      2.8026048      2.427127       4.5529452      30.970399     -190472.69     -143839.67     -122324.78     -305253.6     
        77  -14.878186     -14.878186      2.8026048      2.427127       4.5529452      30.970399     -190472.69     -143839.67     -122324.78     -305253.6     
Loop time of 0.00025275 on 8 procs for 1 steps with 4 atoms

Performance: 341.840 ns/day, 0.070 hours/ns, 3956.479 timesteps/s, 15.826 katom-step/s
0.0% CPU use with 8 MPI tasks x 1 OpenMP threads

MPI task timing breakdown:
Section |  min time  |  avg time  |  max time  |%varavg| %total
---------------------------------------------------------------
Pair    | 0.000148   | 0.00016775 | 0.000195   |   0.0 | 66.37
Neigh   | 0          | 0          | 0          |   0.0 |  0.00
Comm    | 3e-05      | 5.775e-05  | 7.7e-05    |   0.0 | 22.85
Output  | 1.5e-05    | 1.8375e-05 | 2.1e-05    |   0.0 |  7.27
Modify  | 0          | 2.5e-07    | 1e-06      |   0.0 |  0.10
Other   |            | 8.625e-06  |            |       |  3.41

Nlocal:            0.5 ave           1 max           0 min
Histogram: 4 0 0 0 0 0 0 0 0 4
Nghost:          362.5 ave         365 max         360 min
Histogram: 4 0 0 0 0 0 0 0 0 4
Neighs:           31.5 ave          66 max           0 min
Histogram: 4 0 0 0 0 0 0 0 0 4
FullNghs:           63 ave         126 max           0 min
Histogram: 4 0 0 0 0 0 0 0 0 4

Total # of neighbors = 504
Ave neighs/atom = 126
Neighbor list builds = 0
Dangerous builds = 0
variable  natoms equal "count(all)"
variable xlength equal "lx"
variable  volume equal "vol"
variable  etotal equal "etotal"
variable    ecoh equal "pe/v_natoms"
print "${xlength}, ${volume}, ${etotal}, ${ecoh}" append lattice_cohesive_energy.txt screen no

next i
jump SELF loop

change_box all x scale 1.0025 y scale 1.0025 z scale 1.0025 remap
Changing box ...
  triclinic box = (-0.049950614 -0.040224592 -0.075455616) to (2.7596607 2.3869024 4.4774896) with tilt (-1.3289923 0 0)
  triclinic box = (-0.049950614 -0.0432585 -0.075455616) to (2.7596607 2.3899363 4.4774896) with tilt (-1.3289923 0 0)
  triclinic box = (-0.049950614 -0.0432585 -0.081146798) to (2.7596607 2.3899363 4.4831808) with tilt (-1.3289923 0 0)

run 1
Per MPI rank memory allocation (min/avg/max) = 8.581 | 8.582 | 8.583 Mbytes
   Step         PotEng         TotEng           Lx             Ly             Lz           Volume         Press           Pxx            Pyy            Pzz      
        77  -14.849917     -14.849917      2.8096114      2.4331948      4.5643276      31.203258     -196353.59     -149894.25     -126700.23     -312466.3     
        78  -14.849917     -14.849917      2.8096114      2.4331948      4.5643276      31.203258     -196353.59     -149894.25     -126700.23     -312466.3     
Loop time of 0.00024975 on 8 procs for 1 steps with 4 atoms

Performance: 345.946 ns/day, 0.069 hours/ns, 4004.004 timesteps/s, 16.016 katom-step/s
0.0% CPU use with 8 MPI tasks x 1 OpenMP threads

MPI task timing breakdown:
Section |  min time  |  avg time  |  max time  |%varavg| %total
---------------------------------------------------------------
Pair    | 0.000147   | 0.0001655  | 0.000192   |   0.0 | 66.27
Neigh   | 0          | 0          | 0          |   0.0 |  0.00
Comm    | 3e-05      | 5.6625e-05 | 7.5e-05    |   0.0 | 22.67
Output  | 1.6e-05    | 1.8875e-05 | 2.1e-05    |   0.0 |  7.56
Modify  | 0          | 2.5e-07    | 1e-06      |   0.0 |  0.10
Other   |            | 8.5e-06    |            |       |  3.40

Nlocal:            0.5 ave           1 max           0 min
Histogram: 4 0 0 0 0 0 0 0 0 4
Nghost:          362.5 ave         365 max         360 min
Histogram: 4 0 0 0 0 0 0 0 0 4
Neighs:           31.5 ave          66 max           0 min
Histogram: 4 0 0 0 0 0 0 0 0 4
FullNghs:           63 ave         126 max           0 min
Histogram: 4 0 0 0 0 0 0 0 0 4

Total # of neighbors = 504
Ave neighs/atom = 126
Neighbor list builds = 0
Dangerous builds = 0
variable  natoms equal "count(all)"
variable xlength equal "lx"
variable  volume equal "vol"
variable  etotal equal "etotal"
variable    ecoh equal "pe/v_natoms"
print "${xlength}, ${volume}, ${etotal}, ${ecoh}" append lattice_cohesive_energy.txt screen no

next i
jump SELF loop

change_box all x scale 1.0025 y scale 1.0025 z scale 1.0025 remap
Changing box ...
  triclinic box = (-0.053462628 -0.0432585 -0.081146798) to (2.7631728 2.3899363 4.4831808) with tilt (-1.3289923 0 0)
  triclinic box = (-0.053462628 -0.046299994 -0.081146798) to (2.7631728 2.3929778 4.4831808) with tilt (-1.3289923 0 0)
  triclinic box = (-0.053462628 -0.046299994 -0.086852207) to (2.7631728 2.3929778 4.4888862) with tilt (-1.3289923 0 0)

run 1
Per MPI rank memory allocation (min/avg/max) = 8.581 | 8.582 | 8.583 Mbytes
   Step         PotEng         TotEng           Lx             Ly             Lz           Volume         Press           Pxx            Pyy            Pzz      
        78  -14.820606     -14.820606      2.8166354      2.4392778      4.5757384      31.437868     -201999.26     -155730.87     -130877.27     -319389.63    
        79  -14.820606     -14.820606      2.8166354      2.4392778      4.5757384      31.437868     -201999.26     -155730.87     -130877.27     -319389.63    
Loop time of 0.00024625 on 8 procs for 1 steps with 4 atoms

Performance: 350.863 ns/day, 0.068 hours/ns, 4060.914 timesteps/s, 16.244 katom-step/s
0.0% CPU use with 8 MPI tasks x 1 OpenMP threads

MPI task timing breakdown:
Section |  min time  |  avg time  |  max time  |%varavg| %total
---------------------------------------------------------------
Pair    | 0.000146   | 0.00016438 | 0.00019    |   0.0 | 66.75
Neigh   | 0          | 0          | 0          |   0.0 |  0.00
Comm    | 3e-05      | 5.5625e-05 | 7.4e-05    |   0.0 | 22.59
Output  | 1.5e-05    | 1.825e-05  | 2.1e-05    |   0.0 |  7.41
Modify  | 0          | 1.25e-07   | 1e-06      |   0.0 |  0.05
Other   |            | 7.875e-06  |            |       |  3.20

Nlocal:            0.5 ave           1 max           0 min
Histogram: 4 0 0 0 0 0 0 0 0 4
Nghost:          362.5 ave         365 max         360 min
Histogram: 4 0 0 0 0 0 0 0 0 4
Neighs:             31 ave          65 max           0 min
Histogram: 4 0 0 0 0 0 0 0 0 4
FullNghs:           62 ave         124 max           0 min
Histogram: 4 0 0 0 0 0 0 0 0 4

Total # of neighbors = 496
Ave neighs/atom = 124
Neighbor list builds = 0
Dangerous builds = 0
variable  natoms equal "count(all)"
variable xlength equal "lx"
variable  volume equal "vol"
variable  etotal equal "etotal"
variable    ecoh equal "pe/v_natoms"
print "${xlength}, ${volume}, ${etotal}, ${ecoh}" append lattice_cohesive_energy.txt screen no

next i
jump SELF loop

change_box all x scale 1.0025 y scale 1.0025 z scale 1.0025 remap
Changing box ...
  triclinic box = (-0.056983422 -0.046299994 -0.086852207) to (2.7666936 2.3929778 4.4888862) with tilt (-1.3289923 0 0)
  triclinic box = (-0.056983422 -0.049349091 -0.086852207) to (2.7666936 2.3960269 4.4888862) with tilt (-1.3289923 0 0)
  triclinic box = (-0.056983422 -0.049349091 -0.09257188) to (2.7666936 2.3960269 4.4946059) with tilt (-1.3289923 0 0)

run 1
Per MPI rank memory allocation (min/avg/max) = 8.574 | 8.574 | 8.575 Mbytes
   Step         PotEng         TotEng           Lx             Ly             Lz           Volume         Press           Pxx            Pyy            Pzz      
        79  -14.790275     -14.790275      2.823677       2.445376       4.5871778      31.674242     -207414.87     -161353.47     -134861.33     -326029.82    
        80  -14.790275     -14.790275      2.823677       2.445376       4.5871778      31.674242     -207414.87     -161353.47     -134861.33     -326029.82    
Loop time of 0.00024925 on 8 procs for 1 steps with 4 atoms

Performance: 346.640 ns/day, 0.069 hours/ns, 4012.036 timesteps/s, 16.048 katom-step/s
0.0% CPU use with 8 MPI tasks x 1 OpenMP threads

MPI task timing breakdown:
Section |  min time  |  avg time  |  max time  |%varavg| %total
---------------------------------------------------------------
Pair    | 0.000148   | 0.00016575 | 0.000192   |   0.0 | 66.50
Neigh   | 0          | 0          | 0          |   0.0 |  0.00
Comm    | 3.1e-05    | 5.675e-05  | 7.5e-05    |   0.0 | 22.77
Output  | 1.5e-05    | 1.8875e-05 | 2.2e-05    |   0.0 |  7.57
Modify  | 0          | 1.25e-07   | 1e-06      |   0.0 |  0.05
Other   |            | 7.75e-06   |            |       |  3.11

Nlocal:            0.5 ave           1 max           0 min
Histogram: 4 0 0 0 0 0 0 0 0 4
Nghost:          362.5 ave         365 max         360 min
Histogram: 4 0 0 0 0 0 0 0 0 4
Neighs:             31 ave          65 max           0 min
Histogram: 4 0 0 0 0 0 0 0 0 4
FullNghs:           62 ave         124 max           0 min
Histogram: 4 0 0 0 0 0 0 0 0 4

Total # of neighbors = 496
Ave neighs/atom = 124
Neighbor list builds = 0
Dangerous builds = 0
variable  natoms equal "count(all)"
variable xlength equal "lx"
variable  volume equal "vol"
variable  etotal equal "etotal"
variable    ecoh equal "pe/v_natoms"
print "${xlength}, ${volume}, ${etotal}, ${ecoh}" append lattice_cohesive_energy.txt screen no

next i
jump SELF loop

print "-------------------------------------------------------------"
-------------------------------------------------------------
print "Show results of 1st step (Running Minimization)"
Show results of 1st step (Running Minimization)
print "The number of atoms = ${natoms};"
The number of atoms = 4;
print "The lattice constant, x (Angstoms) = ${x0};"
The lattice constant, x (Angstoms) = 2.82367697440438;
print "The lattice constant, y (Angstoms) = ${y0};"
The lattice constant, y (Angstoms) = 2.44537599194452;
print "The lattice constant, z (Angstoms) = ${z0};"
The lattice constant, z (Angstoms) = 4.58717776072425;
print "The volume (Angstoms^3) = ${v0};"
The volume (Angstoms^3) = 31.6742417129677;
print "The total energy (eV) = ${etot0};"
The total energy (eV) = -14.7902746641211;
print "The cohesive energy (eV/atom) = ${ecoh0};"
The cohesive energy (eV/atom) = -3.69756866603028;
print "-------------------------------------------------------------"
-------------------------------------------------------------
print "Simulations completed !"
Simulations completed !
Total wall time: 0:00:00
