LAMMPS data file via write_data, version 18 Jun 2019, timestep = 30000

320 atoms
5 atom types

-9.1142500000000002e+00 9.1142500000000002e+00 xlo xhi
-7.2914000000000003e+00 7.2914000000000003e+00 ylo yhi
-7.2914000000000003e+00 7.2914000000000003e+00 zlo zhi

Masses

1 58.933
2 58.69
3 51.96
4 55.847
5 54.94

Atoms # atomic

1 5 8.8964011794108462e+00 -5.3911717489084001e+00 -5.3697998384921091e+00 -1 0 0
2 5 -9.0257344238348445e+00 -7.2563890766570145e+00 7.2838626434712292e+00 0 0 -1
3 5 -7.2530222408331273e+00 -7.2317385481972201e+00 -5.4728920605259628e+00 0 0 0
4 5 -7.3223706436242324e+00 -5.3336384461407835e+00 -7.1465898092945492e+00 0 0 0
82 4 -9.0951869778730696e+00 7.2865211226615596e+00 -3.7478354703962733e+00 0 -1 0
84 3 -7.3592694148396856e+00 -5.4129610971212925e+00 -3.7630198979765330e+00 0 0 0
22 4 -9.0957348897742349e+00 -3.6870397175613201e+00 -7.1999763249955704e+00 0 0 0
23 2 -7.3134496548639412e+00 -3.5497151821415867e+00 -5.4603883211615605e+00 0 0 0
102 4 8.9932382118555516e+00 -3.6064631982598545e+00 -3.5656432926773238e+00 -1 0 0
5 1 -5.4323484101377018e+00 -5.3590471853999064e+00 -5.5709610407991947e+00 0 0 0
6 4 -5.4726750457737774e+00 -7.2248438978567115e+00 -7.2222827995974805e+00 0 0 0
86 4 -5.4103145816231208e+00 7.2623508011474920e+00 -3.7903414259043045e+00 0 -1 0
26 4 -5.4946049169720048e+00 -3.4972869686468973e+00 -7.2323451758338662e+00 0 0 0
106 4 -5.4517324894229429e+00 -3.6442283200605443e+00 -3.7058778159542221e+00 0 0 0
7 2 -3.6663280619839349e+00 7.2844389959749538e+00 -5.5125915872909115e+00 0 -1 0
8 3 -3.6027302236173373e+00 -5.3719773998811604e+00 -7.2471139601237180e+00 0 0 0
88 3 -3.6118899282169696e+00 -5.3161706412536063e+00 -3.5173032286747019e+00 0 0 0
27 2 -3.6973319576277626e+00 -3.5168810578006395e+00 -5.4193334800556565e+00 0 0 0
9 5 -1.8913178187907840e+00 -5.5784222517278295e+00 -5.3219036887869331e+00 0 0 0
10 4 -1.7560655780216436e+00 -7.0999197382939920e+00 -7.2232941294806565e+00 0 0 0
11 5 -2.1721281703583617e-02 -7.2198616081479114e+00 -5.2660382892686375e+00 0 0 0
12 5 5.1361117864350436e-02 -5.5353656378828351e+00 -7.0813345452384073e+00 0 0 0
90 5 -1.8787927889343972e+00 7.2097963382700536e+00 -3.5736668206633171e+00 0 -1 0
92 3 -9.7092307187357049e-02 -5.4641432798872307e+00 -3.5289635969028725e+00 0 0 0
30 4 -1.8870331926442090e+00 -3.6553617654142450e+00 -7.2439681724561096e+00 0 0 0
31 2 2.6498953270586816e-02 -3.6165863188492380e+00 -5.2580432617680293e+00 0 0 0
110 4 -1.8677803989645061e+00 -3.5787787652466507e+00 -3.5767447014499480e+00 0 0 0
13 1 1.8230146210998341e+00 -5.5564536080345555e+00 -5.4040268677387857e+00 0 0 0
14 4 1.7490058055717186e+00 7.0374564618591142e+00 -7.1530237668942878e+00 0 -1 0
15 2 3.7545898234970383e+00 7.2192095264094309e+00 -5.3902278918734012e+00 0 -1 0
16 3 3.4435481111617192e+00 -5.4657242100954360e+00 -7.2370390626348557e+00 0 0 0
94 4 1.9091836944939882e+00 -7.2893913012644713e+00 -3.6354332974504233e+00 0 0 0
96 3 3.7108112574251075e+00 -5.3618458905560837e+00 -3.6208311340985464e+00 0 0 0
34 4 1.8449196454960344e+00 -3.5772594686151971e+00 -7.1030486390583727e+00 0 0 0
35 2 3.6825501904584526e+00 -3.5639806562904845e+00 -5.3442629523030387e+00 0 0 0
114 4 1.7699632757000618e+00 -3.6310341332847345e+00 -3.6052947754870890e+00 0 0 0
17 5 5.4628001236398873e+00 -5.3958272629023192e+00 -5.5231480878884209e+00 0 0 0
18 5 5.3200390991697910e+00 -7.1523331959242444e+00 -7.2518706223854563e+00 0 0 0
19 5 7.3146316681283379e+00 -7.2752679782467995e+00 -5.5570818473182868e+00 0 0 0
20 5 7.3408272515927644e+00 -5.3122646116878300e+00 7.1504183978503182e+00 0 0 -1
98 4 5.7110682502849137e+00 7.2708602798893702e+00 -3.6078852866891080e+00 0 -1 0
100 3 7.2994201206619396e+00 -5.4028207747871271e+00 -3.4406134514934781e+00 0 0 0
38 4 5.4931168690445471e+00 -3.5979874095997659e+00 7.1876070986680443e+00 0 0 -1
39 2 7.3120919944162557e+00 -3.6420940574151479e+00 -5.4317834615796947e+00 0 0 0
118 4 5.5241564328285309e+00 -3.6055180775095210e+00 -3.6320878773400831e+00 0 0 0
21 1 9.0390333891187087e+00 -1.8885899534809414e+00 -5.2238201227853720e+00 -1 0 0
24 3 -7.4254555780321967e+00 -1.8138501539685048e+00 -7.1154712620807050e+00 0 0 0
104 3 -7.2987149471475252e+00 -1.6868184383056981e+00 -3.6142790616990665e+00 0 0 0
41 1 9.0839184134856783e+00 1.7496675521025014e+00 -5.4553490429316254e+00 -1 0 0
42 4 9.0738570019418461e+00 2.3311000087558376e-02 7.1790159138726688e+00 -1 0 -1
43 2 -7.4045489408312752e+00 2.2736082860141723e-02 -5.5158561874370369e+00 0 0 0
44 3 -7.3412587275529111e+00 1.7798633021325652e+00 -7.2711156658374376e+00 0 0 0
122 4 9.0657831012573524e+00 -8.2715130507483164e-02 -3.8401930304591771e+00 -1 0 0
124 3 -7.3234740142597019e+00 1.7361159444664247e+00 -3.5157250382069969e+00 0 0 0
25 1 -5.4568526569253208e+00 -1.8026479444619321e+00 -5.4784719732484124e+00 0 0 0
45 1 -5.4384087081948937e+00 1.7566182520799680e+00 -5.5088752150332594e+00 0 0 0
46 4 -5.5276229777645316e+00 -1.7890015116257197e-02 -7.2639333674742170e+00 0 0 0
126 4 -5.4226017223596710e+00 1.0667861717880224e-01 -3.6929682945578306e+00 0 0 0
28 3 -3.6297867725990649e+00 -1.8834157665909037e+00 -7.2472027860264774e+00 0 0 0
108 3 -3.7009280546058614e+00 -1.8193466707617967e+00 -3.4175164907332931e+00 0 0 0
47 2 -3.5939429186716643e+00 -7.7436437334377065e-02 -5.4518712649205003e+00 0 0 0
48 3 -3.7801093933844108e+00 1.6974310082546702e+00 -7.2724276465194446e+00 0 0 0
128 3 -3.7696447572040386e+00 1.8043112083993535e+00 -3.5290589420619782e+00 0 0 0
29 1 -1.8490095417946077e+00 -1.8141500156540344e+00 -5.5027211010264843e+00 0 0 0
32 3 -3.4681786825704761e-02 -1.9074802558538100e+00 -7.2613485490892913e+00 0 0 0
112 5 1.7000221688509193e-02 -1.8333321504522577e+00 -3.5316093797426653e+00 0 0 0
49 5 -1.7960842491539137e+00 1.8041099698484386e+00 -5.6047014659417496e+00 0 0 0
50 5 -1.6757801570347315e+00 -1.4074510825829828e-01 7.2551060478253691e+00 0 0 -1
51 5 -6.7797069270086011e-02 2.7974551357172420e-02 -5.4614518416948545e+00 0 0 0
52 3 5.5826482415647694e-02 1.8517915318081728e+00 7.2197801300513422e+00 0 0 -1
130 4 -1.9493173128665000e+00 6.6638394194439773e-02 -3.6318695417589368e+00 0 0 0
132 3 -5.4189399017356199e-02 1.8150680751222994e+00 -3.5388839791529101e+00 0 0 0
33 1 1.7574133937333374e+00 -1.7200654415383079e+00 -5.3819961605174047e+00 0 0 0
36 3 3.5456141837501161e+00 -1.8052054155276476e+00 7.1403625417770691e+00 0 0 -1
116 3 3.5265051632983173e+00 -1.8900789112529870e+00 -3.6961433490536715e+00 0 0 0
53 1 1.9609259428676737e+00 2.0984186629201393e+00 -5.5445611466501425e+00 0 0 0
54 4 1.8534585479425714e+00 -1.1055514905796178e-01 -7.2490291435533747e+00 0 0 0
55 2 3.6601296374115666e+00 6.2801690366194429e-02 -5.5401942373651014e+00 0 0 0
56 3 3.6897477327799986e+00 1.7870334247930242e+00 -7.1238607083142140e+00 0 0 0
134 4 1.8564417993104030e+00 1.5953808252078844e-01 -3.5520926817662928e+00 0 0 0
136 3 3.7716782477787576e+00 1.9411453504606466e+00 -3.7121826975361985e+00 0 0 0
37 1 5.4619925460034597e+00 -1.7393524105506926e+00 -5.5128778669370009e+00 0 0 0
40 3 7.1827135521551346e+00 -1.9330477349088764e+00 -7.1869739059940025e+00 0 0 0
120 3 7.2051137635694067e+00 -1.7557848173561876e+00 -3.8467952542259760e+00 0 0 0
57 1 5.5814025650791690e+00 1.8290485452962630e+00 -5.4838062905688920e+00 0 0 0
58 4 5.4596817012420562e+00 -8.7252881175623881e-02 7.2603134126056554e+00 0 0 -1
59 2 7.1936126595773384e+00 3.8120798607822901e-02 -5.5244836706505023e+00 0 0 0
60 3 7.4148836501887558e+00 1.7174145482818046e+00 -7.2714104516844209e+00 0 0 0
138 4 5.1816394777214407e+00 5.6063936803824183e-02 -3.7117617439255333e+00 0 0 0
140 3 7.2803090016762253e+00 1.6627412171807099e+00 -3.7764891307933728e+00 0 0 0
61 1 -9.0661255468625015e+00 5.3809451189333100e+00 -5.4603698011226616e+00 0 0 0
62 4 -9.0749404475170419e+00 3.6483394901563808e+00 -7.2810012970037841e+00 0 0 0
63 2 -7.3037924368363250e+00 3.5799493363660631e+00 -5.5888213102321549e+00 0 0 0
64 3 -7.0959683213487796e+00 5.6098716538512994e+00 7.2288193166057271e+00 0 0 -1
142 4 9.0908832574528073e+00 3.5589315505577281e+00 -3.6119748879061642e+00 -1 0 0
144 3 -7.2713131015806916e+00 5.4476726704916461e+00 -3.6708746452529764e+00 0 0 0
65 1 -5.3973439948478878e+00 5.4433204511264401e+00 -5.4637541564842227e+00 0 0 0
66 4 -5.5717852024784653e+00 3.6417739880286950e+00 7.2314638612470583e+00 0 0 -1
146 4 -5.6142639251807731e+00 3.5180061872857857e+00 -3.7081791332198932e+00 0 0 0
67 2 -3.7532670483200361e+00 3.6340411371659127e+00 -5.5089197539657215e+00 0 0 0
68 3 -3.5838773997844631e+00 5.3328629436957975e+00 7.2206620080101542e+00 0 0 -1
148 5 -3.5568859924743190e+00 5.4871317666987984e+00 -3.6037420246833189e+00 0 0 0
69 5 -1.8280809748982214e+00 5.3366114159579405e+00 -5.4005675877515502e+00 0 0 0
70 5 -1.8521584347136570e+00 3.6854679922246310e+00 7.2187902860449205e+00 0 0 -1
71 5 1.7236803043988466e-01 3.6341330466520629e+00 -5.5373905063729474e+00 0 0 0
72 3 -7.5226683810764985e-02 5.4494465285519587e+00 7.2349491174596139e+00 0 0 -1
150 4 -1.8482507117246523e+00 3.5041135268724886e+00 -3.6724654128084784e+00 0 0 0
152 3 6.2760860803362475e-02 5.4275927053504436e+00 -3.6468597481012051e+00 0 0 0
73 5 1.8366729168024363e+00 5.4504557136159875e+00 -5.3100041535519722e+00 0 0 0
74 5 1.8481110269242280e+00 3.7789505009408759e+00 7.1968893524792650e+00 0 0 -1
75 5 3.7904090056211523e+00 3.7176081918332575e+00 -5.5586952728328756e+00 0 0 0
76 5 3.7634734929006459e+00 5.4678530929135096e+00 -7.1795753629176513e+00 0 0 0
154 4 1.7811246626024020e+00 3.5604552598007531e+00 -3.5059123041805305e+00 0 0 0
156 3 3.7796359162135880e+00 5.3724624775312853e+00 -3.4229669358930117e+00 0 0 0
77 1 5.4227259127708836e+00 5.4111530219080981e+00 -5.4134394881378158e+00 0 0 0
78 4 5.5260556081210899e+00 3.6592456490265524e+00 -7.2819255378833274e+00 0 0 0
79 2 7.2965561984488128e+00 3.6314418793112728e+00 -5.5425541009237191e+00 0 0 0
80 3 7.2328115146205665e+00 5.5602934622143012e+00 -7.2212073492005748e+00 0 0 0
158 4 5.5934689009445924e+00 3.7634980660014370e+00 -3.5456493872322121e+00 0 0 0
160 3 7.5554739330763931e+00 5.4524305291264561e+00 -3.7288416664465678e+00 0 0 0
81 1 9.0703668898655270e+00 -5.4625529961794159e+00 -1.8462666055992334e+00 -1 0 0
83 2 -7.2461687177808347e+00 7.2726802886929880e+00 -1.9081007025431442e+00 0 -1 0
161 1 9.0529802965735833e+00 -5.4284436257969224e+00 1.6958728957839333e+00 -1 0 0
162 4 -9.0853820654957840e+00 7.2477241743135101e+00 6.5810737395990901e-02 0 -1 0
163 2 -7.2628367597561674e+00 7.1726259949282234e+00 1.7665038093669450e+00 0 -1 0
164 5 -7.3082408459554813e+00 -5.5547545091199213e+00 -1.8209008944854291e-02 0 0 0
103 2 -7.3298733368992925e+00 -3.6365119470941960e+00 -1.7788778341182039e+00 0 0 0
182 5 9.0162357424090285e+00 -3.6327745489154526e+00 3.4505690260798208e-02 -1 0 0
183 5 -7.2354343652687003e+00 -3.5789702084394670e+00 1.6474262053520432e+00 0 0 0
85 5 -5.5256337495520107e+00 -5.4603411775875186e+00 -1.8813603917710835e+00 0 0 0
165 1 -5.4373407371162736e+00 -5.4563080277124572e+00 1.9015764474349615e+00 0 0 0
166 4 -5.4010301238708482e+00 7.1397910511251812e+00 -2.1884374480280831e-02 0 -1 0
186 4 -5.4613436294879536e+00 -3.6494462609819762e+00 7.0935169968006334e-02 0 0 0
87 2 -3.6141551769653044e+00 -7.2860189885309499e+00 -1.8302399845289876e+00 0 0 0
167 2 -3.6668490950856749e+00 7.2354992497012658e+00 1.7629439609577324e+00 0 -1 0
168 3 -3.7096572727158659e+00 -5.5761934250728871e+00 -2.4610678039775263e-02 0 0 0
107 2 -3.6551695826162782e+00 -3.5895293319239063e+00 -1.7885489316920926e+00 0 0 0
187 2 -3.6359842798397408e+00 -3.6296041505587939e+00 1.7718837771205376e+00 0 0 0
89 1 -1.8542473460483413e+00 -5.4239823858391496e+00 -1.8466187509280194e+00 0 0 0
91 2 -1.7433588993346297e-02 7.2603862505114565e+00 -1.8858557453612785e+00 0 -1 0
169 5 -1.7824790889645745e+00 -5.4860650884534365e+00 1.7530841537135096e+00 0 0 0
170 5 -1.8086900677715001e+00 7.2303548223758822e+00 -1.9713878136632099e-01 0 -1 0
171 5 -6.7908289906529196e-02 -7.1941284686641120e+00 1.7940069469926088e+00 0 0 0
172 5 9.8940667530529366e-02 -5.4462183834234610e+00 -3.8804685859416488e-02 0 0 0
111 2 -3.8973870028926938e-02 -3.6353259707721222e+00 -1.7563968373477830e+00 0 0 0
190 4 -1.7734498153291074e+00 -3.6026524715871768e+00 4.8688699885822632e-02 0 0 0
191 2 1.5115067093663409e-01 -3.5804853203816633e+00 1.7713190816662201e+00 0 0 0
93 1 1.7679925379514321e+00 -5.4348191736791760e+00 -1.7550499205450860e+00 0 0 0
95 2 3.7610628085437301e+00 -7.2834126160474328e+00 -1.7719879378063823e+00 0 0 0
173 5 1.8854289047517301e+00 -5.4906236741847678e+00 1.8124262837432812e+00 0 0 0
174 5 1.8003074191244728e+00 -7.2889596990735290e+00 -1.2801432940029533e-01 0 0 0
175 5 3.7261053203508276e+00 7.0890226613424172e+00 1.7351092850718897e+00 0 -1 0
176 5 3.7768191080138860e+00 -5.5144722318592461e+00 -1.3205241021217937e-01 0 0 0
115 2 3.6503790929845952e+00 -3.6357296351809261e+00 -1.9076493879620660e+00 0 0 0
194 4 1.9177045311309135e+00 -3.7080946152393359e+00 6.1691174608695151e-02 0 0 0
195 2 3.6555886030652625e+00 -3.5841669471596371e+00 1.8674451903740967e+00 0 0 0
97 1 5.6520836774570036e+00 -5.3775109795516469e+00 -1.8550511917861570e+00 0 0 0
99 2 7.4319083746801162e+00 7.2886051268952636e+00 -1.8045026851097321e+00 0 -1 0
177 1 5.3935951488484584e+00 -5.4757819514841692e+00 1.8464606021776524e+00 0 0 0
178 4 5.5830576794484630e+00 7.2147681082847024e+00 1.2488383126914138e-02 0 -1 0
179 2 7.3066662840780650e+00 -7.2268718513199515e+00 1.8328179078380040e+00 0 0 0
180 3 7.1082933595875391e+00 -5.4270260525920779e+00 -4.8763713856482920e-02 0 0 0
119 2 7.2361580193833657e+00 -3.5853919160291969e+00 -1.7831593393895708e+00 0 0 0
198 4 5.5715978121042005e+00 -3.5575453720949923e+00 1.0556415192389079e-01 0 0 0
199 2 7.1538826195864944e+00 -3.6575368304634912e+00 1.8608215176356899e+00 0 0 0
101 1 9.0664181404787829e+00 -1.7922038911212208e+00 -1.7265067593464274e+00 -1 0 0
181 1 -8.9792269320095688e+00 -1.6747955160138264e+00 1.7597718804597451e+00 0 0 0
184 3 -7.1360774656841590e+00 -1.8983870879243934e+00 -8.8825112571413012e-02 0 0 0
121 1 9.0343558897705609e+00 1.8334395573370317e+00 -1.7676498176362916e+00 -1 0 0
123 2 -7.3807342264173288e+00 8.5296305585816995e-02 -1.8786530599809217e+00 0 0 0
201 5 -9.0855444952145525e+00 1.9020469259770330e+00 1.7562381204000059e+00 0 0 0
202 5 9.0308937966877654e+00 1.3239901842984604e-02 1.9275503577709946e-03 -1 0 0
203 5 -7.0766909093814716e+00 -3.9521807383917446e-02 1.7736689266129229e+00 0 0 0
204 5 -7.1919145920956442e+00 1.8816169978335091e+00 -3.8528004922402694e-02 0 0 0
105 1 -5.4761305096082582e+00 -1.7073778125783969e+00 -1.8083722231086123e+00 0 0 0
185 1 -5.3084771843377432e+00 -1.7931244558561603e+00 1.8064687902495784e+00 0 0 0
125 1 -5.4917510054567309e+00 1.9040050743567760e+00 -1.7135102204233432e+00 0 0 0
205 1 -5.3270319661944550e+00 1.7889670228888925e+00 1.8052553692852227e+00 0 0 0
206 4 -5.4489136471877018e+00 -7.4404579664591325e-02 -1.9564480831049200e-02 0 0 0
188 3 -3.6211162587929584e+00 -1.8326402727433075e+00 2.3009548122018531e-01 0 0 0
127 2 -3.6300674972012548e+00 1.0947110745521584e-01 -1.7386751626533026e+00 0 0 0
207 2 -3.6570337677962690e+00 -7.7783110952730578e-02 1.8915009745032809e+00 0 0 0
208 3 -3.7111038175883926e+00 1.8631656818191260e+00 1.9464860727016128e-01 0 0 0
109 1 -1.8911735463339328e+00 -1.7211127056419002e+00 -1.8195378664386823e+00 0 0 0
189 1 -1.7443117700483328e+00 -1.9233204571838325e+00 2.0195088728098471e+00 0 0 0
192 3 -1.2486105733120711e-01 -1.9332580643096382e+00 -8.3177126391034945e-02 0 0 0
129 1 -1.9634059989485051e+00 1.9227448697200964e+00 -1.6462952858716515e+00 0 0 0
131 2 -6.4301336182756186e-02 9.3211224099163340e-02 -1.9119390067634139e+00 0 0 0
209 1 -1.8496419549713312e+00 1.7455448189505380e+00 1.8053866885682099e+00 0 0 0
210 4 -1.8984637987845563e+00 -5.4379594996560233e-02 1.3047265899605739e-01 0 0 0
211 2 -4.8895864447913030e-02 -5.1291000787719532e-02 1.7278819974931525e+00 0 0 0
212 3 -3.1293492056913397e-02 1.7927944135601399e+00 -6.5489416284180021e-02 0 0 0
113 1 1.6863178681233488e+00 -1.6976074157741612e+00 -1.8968911634937211e+00 0 0 0
193 1 1.9726928676040947e+00 -1.7815323702312587e+00 1.7654976404073075e+00 0 0 0
196 3 3.7372451027716149e+00 -1.9008054477477994e+00 -5.9059121543796465e-02 0 0 0
133 1 1.7662477238310936e+00 1.7649004312114822e+00 -1.7445175386923395e+00 0 0 0
135 2 3.6254803583082129e+00 1.0891577482456264e-02 -1.8043999856722381e+00 0 0 0
213 5 1.6458101036054942e+00 1.9016233315314206e+00 1.8397239431903736e+00 0 0 0
214 5 1.7741565150368390e+00 -4.8596619414599890e-02 1.5702052591530607e-02 0 0 0
215 5 3.6741187682818222e+00 1.3702449190404958e-02 1.6280231821475404e+00 0 0 0
216 5 3.6987230434997507e+00 1.8877718753029722e+00 7.2844514919319564e-02 0 0 0
117 1 5.4236245402213585e+00 -1.8706854009369582e+00 -1.8321200068567554e+00 0 0 0
197 1 5.6204465652475379e+00 -1.7191996198591635e+00 1.8761518279372222e+00 0 0 0
200 3 7.2189065267211028e+00 -1.7256239546358791e+00 -6.3060981684574108e-02 0 0 0
137 1 5.5155112615648170e+00 1.7848870120421405e+00 -1.8425944129201395e+00 0 0 0
139 2 7.2713533138606357e+00 -1.1868662965932369e-01 -2.0603136496484855e+00 0 0 0
217 1 5.5422886827451476e+00 1.7978608295941996e+00 1.9129848355582193e+00 0 0 0
218 4 5.3478534768933983e+00 -7.9272436955283047e-04 -7.1214725812567464e-02 0 0 0
219 2 7.2307006131731901e+00 -4.8475892208594142e-02 1.7650959660259680e+00 0 0 0
220 3 7.4116574447838861e+00 1.8089166580182048e+00 1.1709292742756251e-01 0 0 0
141 1 -8.9237745425523300e+00 5.4983627256464827e+00 -1.9657627772850443e+00 0 0 0
143 2 -7.3311069857777085e+00 3.6230500162608990e+00 -1.7993725255777369e+00 0 0 0
221 1 9.0204810273427096e+00 5.4074667675374233e+00 1.9123796475799166e+00 -1 0 0
222 4 -8.9862008651030845e+00 3.7195886882711471e+00 -2.7417422097944850e-02 0 0 0
223 2 -7.3226982187800038e+00 3.7102295316626543e+00 1.8547564259609119e+00 0 0 0
224 3 -7.2277063299021247e+00 5.5030473325626756e+00 4.3151857871423831e-02 0 0 0
145 1 -5.5653005924258991e+00 5.5204714019346346e+00 -1.9240531458081702e+00 0 0 0
225 1 -5.4916536732062911e+00 5.4782119128826432e+00 1.9825775077560768e+00 0 0 0
226 4 -5.4772642266963079e+00 3.7797913907413907e+00 3.3785021992411381e-02 0 0 0
147 2 -3.7781240950065822e+00 3.6549391015960158e+00 -1.8658931400368026e+00 0 0 0
227 2 -3.6591403981315040e+00 3.7116397557568903e+00 1.8697004253716694e+00 0 0 0
228 3 -3.6343770024222302e+00 5.4193232267989879e+00 -4.6833967951821619e-02 0 0 0
149 1 -1.9156613247328413e+00 5.3105315418764958e+00 -1.9362401218229561e+00 0 0 0
151 2 -8.9895603686718409e-02 3.5908696444532771e+00 -1.8923277452052221e+00 0 0 0
229 1 -1.8221913214641112e+00 5.4699508168335509e+00 1.8133501961653897e+00 0 0 0
230 4 -1.7515051093084995e+00 3.6774271534155152e+00 -9.3862042559658097e-03 0 0 0
231 2 9.4736922148106473e-02 3.7375374647441659e+00 1.8485883440422715e+00 0 0 0
232 3 -1.4815825455937717e-01 5.4280825012594835e+00 4.5392655171176015e-02 0 0 0
153 1 1.8389367823427654e+00 5.4785325721365332e+00 -1.8226749119833077e+00 0 0 0
155 2 3.7831719072657730e+00 3.5717182027431731e+00 -1.8931810021967057e+00 0 0 0
233 1 2.0057474268115789e+00 5.4766495908353505e+00 1.6985787847714837e+00 0 0 0
234 4 1.7585135484479206e+00 3.7034368970137126e+00 -2.4761399420646899e-02 0 0 0
235 2 3.5829259766020289e+00 3.6568019605555482e+00 1.7109886512116468e+00 0 0 0
236 3 3.8189950828711599e+00 5.4285223703374657e+00 -1.3034979013476447e-01 0 0 0
157 1 5.6263545149530030e+00 5.4361668901140776e+00 -1.6774318121862097e+00 0 0 0
159 2 7.3577198839522993e+00 3.6861979078085705e+00 -1.8740134650635287e+00 0 0 0
237 1 5.5793603067447481e+00 5.4759541178948057e+00 1.8581240289726861e+00 0 0 0
238 4 5.6332541129840310e+00 3.5617156910936134e+00 -6.4302507834652300e-02 0 0 0
239 2 7.2943568147759876e+00 3.6268824457388176e+00 1.8144095697166402e+00 0 0 0
240 3 7.4800109184683361e+00 5.4679963347507687e+00 1.2296182504041424e-02 0 0 0
241 1 -9.0943270003709795e+00 -5.4672534781707283e+00 5.4958504242076724e+00 0 0 0
242 4 -9.0283012048008295e+00 7.2255000771970543e+00 3.5408671073144258e+00 0 -1 0
243 2 -7.2971186197381037e+00 7.2586171462988069e+00 5.4292546878504115e+00 0 -1 0
244 5 -7.3191489480149619e+00 -5.6610955347797898e+00 3.5462927568862299e+00 0 0 0
262 5 9.0719384561661904e+00 -3.6478262718363630e+00 3.5587605507110904e+00 -1 0 0
263 5 -7.3210672640670023e+00 -3.6885400590237936e+00 5.4402130947276346e+00 0 0 0
245 5 -5.4371265828127155e+00 -5.4748315958083884e+00 5.4931052635054547e+00 0 0 0
246 4 -5.3764570177342863e+00 -7.2524374588617428e+00 3.6780209202021390e+00 0 0 0
266 4 -5.4587542430848828e+00 -3.5499340122336611e+00 3.5137316604271716e+00 0 0 0
247 2 -3.5412735564793598e+00 -7.2316007828634232e+00 5.5318169380211275e+00 0 0 0
248 3 -3.6474553861535020e+00 -5.4034071127793331e+00 3.6252694704021908e+00 0 0 0
267 2 -3.6232973942250069e+00 -3.6338342566424524e+00 5.4625397384020111e+00 0 0 0
249 1 -1.6001616820372029e+00 -5.4430324041449509e+00 5.4842193901937675e+00 0 0 0
250 4 -1.9046997013146973e+00 7.2586810222958063e+00 3.6277449717870236e+00 0 -1 0
251 2 -3.2815592528816696e-02 7.2165929277320187e+00 5.4318810367271038e+00 0 -1 0
252 5 -1.3571578336855083e-02 -5.4645996887462340e+00 3.6525594314767087e+00 0 0 0
270 5 -1.8039143825365254e+00 -3.7024741815594462e+00 3.5733694657034518e+00 0 0 0
271 5 -2.8195651638480382e-02 -3.5072091195903723e+00 5.2574832199694628e+00 0 0 0
253 5 1.7216591152887963e+00 -5.2836560258271490e+00 5.5087110874810294e+00 0 0 0
254 4 1.9453354416950577e+00 -7.2216547967082114e+00 3.5733768001914115e+00 0 0 0
255 2 3.6878300267639967e+00 -7.2584331035688399e+00 5.5407042582306225e+00 0 0 0
256 3 3.7242209749844823e+00 -5.4852861856479924e+00 3.6314662728780212e+00 0 0 0
274 4 1.9214297497744077e+00 -3.5855327014034186e+00 3.6514587791255857e+00 0 0 0
275 2 3.6655547442174203e+00 -3.6383139695399174e+00 5.4829650099286757e+00 0 0 0
257 1 5.5391714295290129e+00 -5.4970732124813111e+00 5.5661239895063384e+00 0 0 0
258 4 5.4567637279019472e+00 -7.2563078786840718e+00 3.6413971775151497e+00 0 0 0
259 2 7.3301692772782552e+00 -7.2608060101105787e+00 5.4734761071276239e+00 0 0 0
260 3 7.1963455505763667e+00 -5.5466399149629613e+00 3.6078184036147398e+00 0 0 0
278 4 5.4393989848553010e+00 -3.5786969446596721e+00 3.6234547777824799e+00 0 0 0
279 2 7.3356898653305844e+00 -3.7239222039355950e+00 5.2926529159652196e+00 0 0 0
261 1 -9.0499756689371154e+00 -1.8711109344217458e+00 5.5399540889341763e+00 0 0 0
264 3 -7.3441765840888058e+00 -1.7204802607742185e+00 3.7953955758668139e+00 0 0 0
281 1 9.0431140563357957e+00 1.7134436411259844e+00 5.2668290709299690e+00 -1 0 0
282 4 8.8961870501313616e+00 -1.6941144176157488e-01 3.6625863361731392e+00 -1 0 0
283 2 -7.2848450409966006e+00 8.7691091398630711e-02 5.5893698939383514e+00 0 0 0
284 3 -7.2929431461470164e+00 1.7065508726215073e+00 3.6926728042906443e+00 0 0 0
265 1 -5.5551322015518956e+00 -1.9349311853542996e+00 5.5472239327226758e+00 0 0 0
285 1 -5.4263652827477751e+00 1.7226326662333549e+00 5.3912734694287270e+00 0 0 0
286 4 -5.5218667606131335e+00 -2.5587271045105048e-01 3.6376815994191185e+00 0 0 0
268 3 -3.6239980020111129e+00 -1.8505137060564805e+00 3.5832408447918205e+00 0 0 0
287 2 -3.5689869231871905e+00 -9.0769441883043075e-02 5.4341832811348105e+00 0 0 0
288 3 -3.7275669798676296e+00 1.7714752631955193e+00 3.7279293312898609e+00 0 0 0
269 1 -1.8578807558246142e+00 -1.8691496567726484e+00 5.6375856970406915e+00 0 0 0
272 3 1.3500423392167293e-01 -1.7630098751086249e+00 3.6457897046304919e+00 0 0 0
289 1 -1.8812171503597712e+00 1.8217897395969818e+00 5.4350613108784227e+00 0 0 0
290 4 -1.9529361852149498e+00 -3.7127919085171421e-02 3.6826408297428666e+00 0 0 0
291 2 5.8939295900558075e-02 -3.3238242113493659e-03 5.3234506792218950e+00 0 0 0
292 3 -2.0635796420236754e-01 1.9170298398669878e+00 3.7420210107249861e+00 0 0 0
273 1 1.7186475303202757e+00 -1.8030266276754956e+00 5.3108809083022841e+00 0 0 0
276 5 3.6884392650574740e+00 -1.8752359622715760e+00 3.6648298095991914e+00 0 0 0
293 5 1.7953031056371249e+00 1.8896985636528529e+00 5.2888311110318620e+00 0 0 0
294 5 1.6937551254054928e+00 -1.1001539546306346e-01 3.6414250749463650e+00 0 0 0
295 5 3.5459882295611980e+00 -6.1062895552491211e-02 5.3636058731528049e+00 0 0 0
296 3 3.6798954653897895e+00 1.9299715368075334e+00 3.3964110997031276e+00 0 0 0
277 1 5.4897853116220645e+00 -1.8155295279839836e+00 5.4612464296780097e+00 0 0 0
280 3 7.1262159178221145e+00 -1.8951652908519654e+00 3.6094620038789653e+00 0 0 0
297 1 5.4584603097820077e+00 1.7734951534792509e+00 5.3964332841050568e+00 0 0 0
298 4 5.4529375377408202e+00 2.1542703442184018e-03 3.7095675489066897e+00 0 0 0
299 2 7.1918985230279313e+00 -2.0898790663828368e-01 5.4991717482846640e+00 0 0 0
300 3 7.2399996975177920e+00 1.7259580680306468e+00 3.6947788252420133e+00 0 0 0
301 5 9.0691336197856867e+00 5.5145100861791088e+00 5.3398546485387719e+00 -1 0 0
302 5 8.9917149033856418e+00 3.5764500614955512e+00 3.6837590662741682e+00 -1 0 0
303 5 -7.2890780396028232e+00 3.4858857962567740e+00 5.4518710984635570e+00 0 0 0
304 5 -7.1407168202749194e+00 5.4564098139681159e+00 3.6963045501941734e+00 0 0 0
305 1 -5.5315196361530257e+00 5.5160897894920318e+00 5.4725470578382875e+00 0 0 0
306 4 -5.4964743023636027e+00 3.5772726180966865e+00 3.6811990978207700e+00 0 0 0
307 2 -3.7699626726998456e+00 3.7177032173679256e+00 5.3723404300559103e+00 0 0 0
308 3 -3.7077278358119661e+00 5.4984473543507102e+00 3.6570057955766502e+00 0 0 0
309 1 -1.9026403141413188e+00 5.5024054690491138e+00 5.3596172347655466e+00 0 0 0
310 4 -1.9040655223135319e+00 3.7517761315210700e+00 3.5721274482197947e+00 0 0 0
311 2 -1.6809350022261965e-01 3.6839473332838453e+00 5.5105558430001738e+00 0 0 0
312 3 5.7426059347731581e-02 5.5276676235605660e+00 3.6203491916089710e+00 0 0 0
313 1 1.8291939054080737e+00 5.5019579473610571e+00 5.4886794522953775e+00 0 0 0
314 4 1.7948794587679893e+00 3.7233901581842659e+00 3.6924888250750203e+00 0 0 0
315 2 3.7376140361723045e+00 3.5204312331265193e+00 5.4625492546081622e+00 0 0 0
316 3 3.5997667489424283e+00 5.3950953792691978e+00 3.6425783074651723e+00 0 0 0
317 5 5.4721813892287701e+00 5.5255103934330281e+00 5.5703037237210555e+00 0 0 0
318 5 5.5320245042997875e+00 3.4827275126967625e+00 3.6696071735322877e+00 0 0 0
319 5 7.0926085480456607e+00 3.5028861068360513e+00 5.5557810294249723e+00 0 0 0
320 5 7.1974031370901077e+00 5.4834200448205062e+00 3.6685392455994701e+00 0 0 0

Velocities

1 3.4384627616516888e-01 3.5726870642594553e+00 3.2044788804521813e+00
2 -1.0728073927976277e-01 1.3785191386202875e+00 1.3997491358237271e+00
3 2.1227750967690802e+00 2.3167608744193080e+00 -7.6743245751654976e-01
4 -2.8317541928730603e+00 -7.7756739270801581e-02 -3.4614252894872655e+00
82 2.5145766564269305e+00 2.9812429057227101e+00 1.1036846055407956e+00
84 8.5503157278198298e-03 2.1126250854570401e+00 -1.7815484095941758e+00
22 3.3611098258520857e+00 -1.8399095984278926e+00 -2.0974109939558909e+00
23 -1.4629610374388244e-01 6.1888205823814557e-01 2.7893208322800369e+00
102 -2.4347347646158388e+00 1.1462488894542913e+00 -1.1305837364160337e-01
5 -2.6747478689375875e-01 -3.2969690646839478e+00 2.1720617008524726e-01
6 -1.8027527996996286e+00 -3.6746970097131415e-01 -9.4558411674881704e-01
86 -1.7107742900084293e+00 -3.4019446818321013e+00 3.3106911697257244e+00
26 -2.8005619933900281e+00 -2.7863310123198506e+00 -2.9750643488607227e+00
106 -1.7249851793393278e+00 -1.1393122185648092e+00 2.5326111463244274e+00
7 -2.7915673274377046e+00 1.2733510654962610e-01 1.6188306561717676e+00
8 -3.9670303385164124e-01 5.5386339263113438e-01 5.3236073241220805e-01
88 2.9720611038246680e+00 -5.0355727513209847e-01 -1.6063998272030771e+00
27 3.6618356719019218e-01 -2.7472681602609490e+00 2.4815018465462386e+00
9 1.2121555989262054e+00 -2.7107418729416510e+00 5.4116934284325924e-01
10 2.4847742191234077e+00 -1.0857947199665126e+00 3.3369348738228508e+00
11 -7.2493422281953046e-02 -3.2530911662513069e+00 -2.6405002288596675e+00
12 -1.9921530398418447e-02 -3.6303749102765051e+00 -1.2851042858559005e+00
90 -5.1481419829958464e-01 2.5999707795600124e+00 5.2741301428007037e-01
92 1.9769068922279587e+00 -1.4200127226380295e+00 2.1928951172278501e+00
30 1.9447342716776561e+00 -3.2198758643964949e+00 2.0377991863977676e+00
31 -3.5923335605318423e+00 -2.4670244909627752e+00 1.5521383244569127e+00
110 2.2778310268369983e+00 -1.4223445353529274e+00 1.9535292653816072e+00
13 -3.6443764741468918e+00 -2.3443076968497536e+00 1.7008244898026745e+00
14 -2.5423677701696628e+00 -3.2069114058884796e+00 7.4504474180657720e-01
15 -2.2702138503217961e+00 3.3621042842735132e+00 3.1931844118312638e+00
16 -3.1591858053065933e+00 3.5917579704034805e+00 -1.7187577330763690e+00
94 1.0148340047653825e+00 3.2434841420801357e+00 2.9453314299106403e+00
96 -6.2112176165073651e-01 8.8186898314373796e-01 -9.6128269657890830e-01
34 2.9643793508079290e+00 8.8403105357181078e-01 -1.5614134156157522e+00
35 -1.9516158355604621e-01 -1.0516758090995235e+00 -7.9901550044328917e-01
114 5.4379581145410938e-01 -8.6608078482233597e-01 -8.7504868909028810e-01
17 1.6070577594638098e+00 -2.6044350354443901e+00 -2.7647808676395162e+00
18 3.2176496557462864e+00 2.9170533108300201e+00 -3.4500100686025967e+00
19 5.9214032709617496e-02 4.7142830059863955e-01 -3.2517727048894409e+00