ITEM: TIMESTEP
0
ITEM: NUMBER OF ATOMS
6000
ITEM: BOX BOUNDS pp pp pp
1.2878708891542523e-01 2.7212212911084478e+01
1.3647305970397738e-01 2.7204526940295935e+01
5.2134830910513585e-01 1.0884265169089667e+02
ITEM: ATOMS id type x y z c_peratom fx fy fz 
122 3 5.42919 5.6054 5.87009 -28.8201 -2.15768 1.07213 1.44989 
601 3 5.37569 2.8795 3.33494 -29.2263 2.92859 1.96102 -1.95346 
602 2 5.36279 2.94932 8.82614 -24.4852 1.10037 -1.28528 0.335771 
1021 3 2.57677 5.64749 3.32065 -29.0292 2.25492 0.0298929 0.796522 
1022 2 2.77169 5.49632 8.80174 -25.1725 0.162707 2.47502 -1.06117 
1502 2 2.91432 3.16725 5.99379 -24.8855 -1.75495 -0.638287 -1.49857 
2001 1 1.67464 1.34198 2.09843 -8.09501 1.01445 1.52797 -2.22613 
2002 1 1.27817 1.60439 7.26621 -7.61971 1.41316 -1.33974 0.296031 
2501 1 4.43701 4.39797 4.5633 -6.97679 0.703238 -0.470067 3.41929 
3001 1 3.60601 3.7583 2.50744 -6.99943 -0.575958 0.920443 -1.79871 
3002 1 4.15549 4.41545 7.39795 -8.52175 2.127 -1.38586 0.166552 
3501 1 1.20527 1.87128 4.57587 -6.9517 1.75436 0.977031 0.964218 
4001 1 4.33306 1.90715 4.54928 -8.05685 -3.21399 -3.56292 2.11366 
4501 1 1.16059 4.21335 2.14416 -8.42327 0.948058 1.69342 -3.52064 
4502 1 1.60541 4.09083 7.55631 -6.78698 -0.618367 -0.585685 -0.467805 
5001 1 1.54984 4.64744 4.79695 -7.41553 0.803572 -0.823702 0.0385997 
5501 1 4.53487 1.42257 1.82203 -7.83492 -1.33816 1.70355 0.423195 
5502 1 4.26648 1.48622 7.36651 -8.26261 -3.43456 2.68836 1.0412 
3601 1 6.84965 1.78413 4.76632 -7.01467 -0.421461 0.195223 -0.88032 
2022 1 1.20999 6.5814 7.04855 -7.05056 -1.42422 1.85339 2.2322 
2102 1 6.77668 1.72442 7.29602 -8.00879 0.922661 0.702252 2.07234 
4021 1 3.90479 6.83552 4.56908 -6.61839 -2.27982 -0.962628 -0.937331 
1501 2 2.8961 2.86641 0.748511 -24.2986 -0.572522 -0.866362 -2.59114 
4602 1 6.89903 4.49519 6.99939 -7.96145 -0.56513 -0.818365 -0.520987 
4601 1 6.45894 3.8046 1.62336 -7.75601 -1.15614 0.541683 -2.54113 
1 2 0.219655 0.316123 0.724121 -24.7475 -0.885867 -0.171492 -0.15267 
5521 1 4.24281 6.66352 1.73714 -7.43019 0.63294 -0.445068 -0.89292 
1002 3 2.63505 0.28764 8.55913 -28.7784 1.48678 0.265567 -0.0626088 
501 3 0.217095 3.06277 3.26874 -28.6801 -1.58486 -1.44327 2.81486 
3621 1 6.44311 6.36471 4.5628 -7.01997 3.31084 2.2875 -2.1606 
102 2 5.44424 0.397579 6.01181 -24.8202 2.63178 -0.674438 -1.71773 
1001 3 3.11943 0.137055 3.172 -29.0891 -0.94123 -0.578964 0.419294 
2 2 0.14939 0.307708 5.87512 -25.6055 1.48601 0.484774 0.366519 
21 2 0.473651 5.86493 0.523806 -23.8144 -0.94719 -2.94053 1.45624 
1221 2 13.5838 5.76604 2.99487 -24.4539 -0.604028 0.195327 2.00224 
2121 1 6.92757 6.59366 2.04528 -7.95039 -0.459672 2.67858 -1.72678 
2101 1 7.08907 1.17838 1.80563 -7.69039 1.09404 0.893672 -0.0082953 
1202 2 13.5063 0.421361 8.67939 -25.6484 0.644426 0.919679 -1.27439 
5101 1 7.47335 4.03522 3.96329 -6.85075 -2.74055 -0.268577 0.889959 
222 2 10.9918 5.92571 5.76804 -24.2672 0.534681 -2.6905 1.63816 
701 3 10.843 2.92616 3.23693 -29.1147 2.19323 0.0321864 0.43344 
702 2 10.6906 3.10421 8.49942 -24.9039 3.3531 -1.72122 2.06519 
1121 3 8.10827 5.60647 3.04242 -28.7151 2.30964 -0.993055 2.54322 
1122 2 8.12255 5.65677 8.54425 -24.9158 -0.169152 -2.09162 -0.516607 
1602 3 8.18346 3.24423 5.66797 -29.0737 0.789733 -1.72796 -0.362044 
2201 1 12.2679 1.50556 1.86402 -8.16655 -0.375483 0.826452 0.563458 
2202 1 12.4899 1.89462 7.46788 -7.00694 -1.29309 1.4234 -0.511676 
2601 1 9.83748 4.17502 4.31782 -6.96397 2.17822 3.57443 1.27879 
3101 1 8.95105 4.65936 1.502 -7.18646 0.872481 0.215343 -0.371843 
3102 1 9.45902 4.13508 7.16795 -8.14039 -0.708797 1.37151 -1.20786 
3701 1 12.1939 1.39563 4.75529 -7.02738 -1.00757 -0.676914 -1.56646 
4101 1 9.547 1.81908 4.47203 -7.12058 -0.340678 -3.52228 1.18129 
4701 1 11.8557 4.2998 1.6533 -7.78738 -0.0082762 0.424155 1.35878 
4702 1 12.221 4.49717 7.25671 -7.16973 -2.39292 1.38889 -1.31421 
5201 1 12.6867 3.93848 4.13293 -7.18432 -0.379556 2.23464 1.18421 
5601 1 9.60417 2.09753 1.95877 -7.75426 -0.054312 -2.03373 -1.51001 
5602 1 9.57369 1.41508 7.21298 -7.72629 0.921437 2.09731 -1.03032 
4121 1 9.41347 6.75555 4.64631 -7.84371 -2.14513 1.98937 -2.82655 
1102 3 8.16085 0.560546 8.30023 -28.9695 0.2187 -2.7406 1.96152 
1701 2 13.6537 2.88365 0.643313 -25.2774 0.185432 2.08266 -0.995658 
1601 3 8.39644 3.11425 0.659287 -28.2263 -1.42697 -2.05851 -1.41754 
1222 3 13.5043 5.74921 8.66541 -29.4744 -0.0318588 0.06881 0.669147 
1101 3 8.15341 0.282447 3.31377 -28.5908 1.41718 2.30439 -0.53558 
202 3 10.9575 0.276793 5.81571 -29.7275 -0.448588 -1.14611 1.36669 
2021 1 1.66994 7.00218 1.88025 -8.42687 -0.00276322 0.070289 0.574325 
3521 1 1.16799 7.26718 4.54777 -7.96844 -1.4814 -0.467522 -0.725554 
2122 1 6.60145 7.10007 7.03058 -8.02097 1.41353 0.7108 1.16904 
5522 1 3.75826 7.02747 7.38248 -7.24236 1.6816 0.404344 1.23175 
142 2 5.5399 10.9239 5.60944 -24.0682 -1.26635 -1.52703 5.20373 
621 2 5.42046 8.08307 3.24046 -25.1974 1.18759 -3.0237 0.572802 
622 2 5.50141 8.18363 8.58054 -24.9167 -3.6031 0.910188 -1.27947 
1041 3 2.8948 11.0868 3.10429 -27.4553 -2.06392 -0.594569 -0.780303 
1042 3 2.56702 10.8494 8.90714 -28.5623 1.62469 0.6019 -2.1298 
1522 2 2.63168 8.35675 5.87913 -25.5461 3.16498 -3.48942 0.621507 
2041 1 1.61485 12.2717 1.84326 -7.32216 1.65933 -0.408095 0.848604 
2042 1 1.3109 12.0254 7.4849 -7.10334 -0.0325031 -0.225338 1.11429 
2521 1 4.63533 9.00561 5.08966 -6.97759 -0.311438 3.10433 -0.31946 
3021 1 3.83587 9.18175 2.41708 -8.24321 -0.496853 2.95813 -2.07989 
3022 1 4.15899 9.79853 7.53003 -6.69963 -1.35596 -0.234814 0.372237 
3541 1 1.44507 12.509 4.53034 -7.92504 1.93186 -0.813613 0.908938 
4041 1 4.22762 12.2126 4.36059 -9.03281 -0.90616 -1.13795 0.648024 
4521 1 1.21335 9.70286 1.73397 -7.45123 1.63068 -1.66704 0.741165 
4522 1 1.16562 9.32981 7.05582 -8.13984 -0.248099 0.245106 1.32837 
5021 1 1.82551 9.80949 4.46625 -8.51526 -0.177347 1.31805 -0.676322 
5541 1 4.23235 12.3373 1.82471 -8.5015 0.765428 -1.21914 -0.293306 
5542 1 3.8981 12.5132 7.14749 -6.4992 1.78908 -0.231071 -0.152705 
2142 1 6.83685 12.8081 7.13077 -7.79608 0.139618 -1.91244 -0.0645548 
3641 1 6.84381 12.2537 4.57086 -9.28365 1.55167 1.38127 -0.960669 
4621 1 6.77566 9.71876 1.83445 -8.0968 -2.09863 -2.384 -1.75909 
641 2 5.59975 13.5584 3.26662 -23.8149 -0.300819 2.49513 -2.93052 
42 2 0.228651 10.9446 5.80325 -25.4838 -0.408752 2.1565 0.990786 
521 3 0.221263 8.50727 3.32471 -28.1224 -0.623226 0.650666 -2.73451 
541 2 0.202927 13.6158 3.13971 -25.7831 -0.429265 1.82563 -1.71721 
2222 1 12.1681 7.2943 7.28545 -7.87395 -0.0296997 -1.13426 -0.724903 
3721 1 12.2125 7.14926 4.49068 -7.98762 -0.252784 -1.17032 -1.50089 
2221 1 12.3706 7.30104 1.74963 -8.81308 -0.285853 -0.645998 0.0620737 
5622 1 9.40247 6.93157 7.06974 -8.71376 -0.0603017 1.83077 1.9609 
4622 1 6.97445 9.87935 7.03096 -8.0078 1.07699 -0.103279 -0.0317601 
5121 1 7.03115 9.53494 4.33779 -8.40691 1.14198 -1.6144 1.39849 
2141 1 7.02709 12.2119 1.5897 -7.94695 0.995648 1.48621 1.7145 
5621 1 9.89076 6.90528 1.83615 -8.24984 -0.129564 2.01382 0.918296 
242 2 10.8429 11.1819 5.95184 -23.9424 -0.526986 0.0897616 0.00346363 
721 3 11.0191 8.36687 2.85555 -27.6081 0.463998 1.27848 3.76267 
722 2 10.6483 8.45449 8.41766 -23.9201 4.41008 -0.106905 2.2286 
1141 2 7.94344 11.0301 3.10278 -23.5229 5.64233 -0.392904 -0.412561 
1142 2 8.05331 11.2267 8.55339 -24.1639 -0.595816 1.17919 0.990707 
1622 3 8.30337 8.36028 5.98909 -26.9658 -1.31686 -0.0489718 -1.86652 
2241 1 12.6152 12.8373 2.32068 -7.47947 -0.401167 -0.629764 -0.887982 
2242 1 12.2785 12.5487 7.70114 -8.66421 0.379491 -0.486542 -1.70733 
2621 1 10.0735 9.56817 4.67228 -7.96023 -1.24926 -0.404286 -0.254529 
3121 1 9.42661 9.51502 1.9225 -8.51074 -0.0876557 0.173197 0.807184 
3122 1 9.57211 9.96424 7.3214 -9.21404 -1.31678 0.187031 -0.540242 
3741 1 12.1723 12.4419 4.86604 -8.67795 1.12198 -1.80797 -0.600248 
4141 1 9.62191 12.5179 4.31586 -7.89352 -2.3393 -0.971172 1.03345 
4721 1 11.9103 10.0238 1.80763 -8.37907 0.830134 -0.31988 -0.436828 
4722 1 12.2949 9.8955 7.11305 -7.99167 0.470545 0.571546 -1.19304 
5221 1 12.8987 9.72769 4.41722 -7.21822 -1.16188 -0.212007 1.70947 
5641 1 10.0088 12.2131 1.81183 -7.25908 -1.07533 0.910166 -0.53294 
5642 1 9.65842 12.9938 6.96058 -7.51221 0.41464 -3.74972 1.01394 
1242 3 13.5269 11.1454 8.45108 -29.1512 2.03277 -1.51228 2.14302 
1241 3 13.4366 11.1734 3.37797 -28.6889 1.52095 1.49093 -1.90101 
1621 3 8.52495 8.32345 0.755232 -27.5392 -2.61993 -1.14644 -2.05018 
1721 3 13.5518 8.79052 0.539652 -27.9138 1.19667 -1.17554 0.389945 
742 3 11.163 13.6684 8.71021 -29.0302 -3.68885 4.54816 2.58532 
741 3 10.9584 13.6229 3.33291 -28.0872 -0.533366 -0.388825 -1.72704 
5504 1 4.31788 2.09267 18.2095 -7.77769 -0.343595 -1.03323 -1.0704 
3602 1 6.67958 1.68999 10.6162 -6.35652 -1.55698 2.8659 -1.22864 
4002 1 4.05693 1.38634 10.0833 -7.48962 -0.510142 1.39758 -0.810731 
123 2 5.45016 5.42242 11.5853 -24.8632 0.94894 1.84377 -1.76574 
124 3 5.64817 5.32398 16.8757 -28.4541 1.07546 2.5748 -1.44949 
603 2 5.42011 2.72627 14.2475 -24.2835 1.32253 1.02932 -0.395282 
1023 2 2.70588 5.35431 14.4012 -24.5069 -0.188099 2.20384 0.280354 
1503 2 2.66739 2.77574 11.5414 -24.5759 -0.102099 0.932219 -1.29627 
1504 3 2.63253 2.91983 16.9254 -27.6209 1.33501 -2.15978 1.32748 
2003 1 1.09936 1.89726 12.7718 -7.69961 2.38225 -4.1234 0.536355 
2502 1 4.02738 4.11107 10.335 -8.53853 0.197006 0.0222358 -0.742298 
3003 1 4.20702 4.409 13.134 -8.33786 -0.610726 -0.847426 -1.27365 
3502 1 1.48809 1.70541 9.96442 -7.29479 -0.804735 0.810831 -0.122782 
3503 1 1.54596 0.900215 15.5713 -7.78678 3.88927 1.28306 -2.21997 
4003 1 4.21236 1.26728 15.5819 -8.61075 -1.77329 -0.102942 -2.28732 
4503 1 1.31234 4.28918 12.6958 -7.25178 2.12217 2.13844 1.00855 
5002 1 1.28414 4.55412 10.0729 -7.31466 1.19647 -1.07522 -0.172708 
5003 1 3.97971 3.85355 15.5697 -8.62915 1.06779 0.916991 2.05605 
5503 1 4.20915 1.47212 12.7339 -8.85904 -1.36329 0.90685 1.55666 
2903 1 1.38549 3.8847 15.4498 -9.17608 -1.26991 -1.38498 2.04964 
23 2 0.287741 5.90071 11.387 -23.8961 -0.683176 -0.885719 1.36432 
4023 1 4.24135 6.76835 15.5593 -7.13515 -1.6213 -1.38868 0.0374462 
4022 1 4.00883 6.83544 10.3308 -7.54065 1.10996 -0.914007 -1.81583 
5102 1 6.79276 4.3074 9.88124 -7.40853 -1.07813 -0.0774852 -0.408253 
4603 1 6.81052 4.10598 12.6733 -8.00537 0.902462 0.35638 1.08405 
2004 1 1.23885 1.58386 17.9891 -7.7375 -0.239743 -4.03693 -1.02064 
2124 1 6.84721 6.77918 17.9683 -7.66426 0.678063 1.64739 3.26576 
4504 1 1.7833 3.72013 18.5517 -6.80096 -0.647173 5.16832 -3.9156 
3523 1 1.30923 6.42883 15.7154 -7.24892 -0.732209 -0.301831 1.04636 
104 2 5.41812 0.454851 17.0949 -24.4769 2.51683 0.321398 -0.011309 
3004 1 4.45438 4.65921 18.2966 -7.74121 -0.271589 -1.63282 -0.116703 
1003 3 2.95432 0.137646 14.0714 -27.1853 -0.457891 -1.43373 -0.0950093 
4102 1 9.25267 1.32938 9.84729 -7.15199 1.70909 2.06748 0.0478265 
4604 1 7.20704 4.24348 18.1115 -7.62555 -1.81858 -1.26276 -0.486992 
1223 3 13.3736 5.74521 14.2293 -27.0155 0.473997 0.613862 -3.98649 
4704 1 12.3558 3.93209 17.9768 -8.20176 0.484702 1.29571 -0.93838 
1103 3 7.96825 0.295602 14.2319 -28.1118 0.498503 -1.69165 -0.0635394 
3603 1 6.93638 1.72393 15.7395 -7.70798 -1.56985 -0.233331 -1.07421 
5624 1 9.67906 6.78277 18.2338 -7.04244 -0.727518 0.40657 0.612734 
2224 1 12.3237 6.65148 18.216 -7.75975 0.571546 0.441136 3.49659 
3104 1 9.77755 4.16592 18.3523 -6.98373 0.0325593 0.505956 -2.01127 
4122 1 9.59258 6.85613 9.73044 -8.5527 0.999419 3.4539 1.57186 
2503 1 7.15456 4.23255 15.3947 -7.96472 -1.1242 0.789689 -1.03326 
2103 1 7.00486 1.58911 13.0836 -8.05231 -0.431212 -0.965257 1.72931 
5103 1 10.0988 4.37365 15.3156 -7.52889 -1.05127 -1.9394 1.40804 
223 2 10.7548 5.57272 11.4349 -24.7586 4.55672 1.4689 -3.11259 
224 3 11.2869 5.32714 16.9937 -28.7809 -3.32581 2.11374 -1.75452 
703 3 10.98 2.91154 13.9064 -28.6972 0.486418 1.92226 0.433536 
1123 3 8.21663 5.77038 13.8826 -28.1033 2.23859 -1.08682 3.38625 
1603 3 8.10535 2.63836 11.8263 -28.6269 0.414926 1.32075 -3.82158 
1604 2 8.46984 2.91419 16.581 -24.7408 1.45893 2.20262 2.53297 
2203 1 12.3638 1.82877 12.7409 -7.61003 -0.783028 -4.69495 3.46461 
2602 1 9.48658 4.41653 10.004 -7.19261 0.223678 -2.41864 -1.26419 
2603 1 12.6266 4.46243 15.1412 -7.99547 -0.766848 -3.36444 3.91077 
3103 1 9.65859 4.39787 12.6366 -7.60881 -4.56142 -0.695084 3.8156 
3702 1 12.3161 1.63119 10.1819 -7.23002 -1.01922 -0.409183 -0.338252 
3703 1 12.3642 1.3331 15.4219 -7.69929 -1.9047 0.261688 -1.12318 
4103 1 9.51022 1.64646 14.9896 -8.73611 0.517184 -0.296688 0.290355 
4703 1 12.2944 4.34627 12.6654 -7.15886 -0.727142 1.78692 1.04734 
5202 1 12.3181 4.52972 10.0968 -6.90496 -0.85638 0.490877 -1.14846 
5603 1 9.95794 2.0209 12.3431 -7.37964 -1.82997 -1.88506 0.385168 
5604 1 10.1203 1.62832 17.6772 -7.93534 -3.11107 -1.0171 -2.03642 
203 2 10.7555 0.233742 11.3103 -24.8815 -0.207719 1.10761 -1.77663 
2123 1 7.14285 6.78346 12.5928 -8.6975 0.999599 1.09568 0.464883 
2204 1 12.6213 1.4816 18.0157 -6.68906 0.670669 -1.47844 1.02332 
204 3 10.8286 0.155345 16.5945 -27.9184 2.3932 -0.672849 -0.036447 
2104 1 6.9652 1.48165 18.2925 -7.52167 1.14692 1.8086 1.95814 
1544 2 2.80259 13.6505 16.7719 -25.4235 -1.92108 -0.142283 -1.87637 
2024 1 1.4904 7.38639 18.2422 -7.41836 2.42121 -1.96934 0.381175 
3623 1 6.86742 6.90504 15.5733 -7.04025 -0.737792 0.860395 -3.72717 
5524 1 4.263 7.03513 18.3825 -7.48418 -2.4476 1.28187 -1.51231 
43 3 0.155586 10.8787 11.3263 -28.1704 -1.39114 0.0806617 0.213909 
4524 1 1.47151 10.0207 17.8699 -6.90295 -1.24503 -2.90622 -1.19028 
5523 1 4.6149 7.31653 12.651 -7.49982 -0.302737 -1.33646 1.92322 
3522 1 1.58835 7.35215 9.94655 -8.54027 -1.87783 -1.13749 1.24196 
3622 1 6.87285 6.96534 9.8271 -8.05697 0.166414 1.30307 0.495368 
2144 1 6.60738 12.6007 17.836 -7.26168 -0.570681 2.28552 3.21841 
2023 1 1.73682 7.0061 13.1822 -8.27901 -0.0536681 -0.422305 -2.2103 
4042 1 3.69867 12.2586 9.963 -7.7575 -0.0916702 2.92981 0.34829 
5022 1 0.766519 9.99394 9.62488 -8.00347 1.75227 1.08306 -0.181288 
3542 1 0.861359 12.6461 10.2812 -7.87436 2.09576 1.0913 -0.67794 
143 2 5.49041 11.1344 11.2474 -25.5101 -0.976738 0.161162 0.00578938 
144 2 5.68073 10.9977 16.9327 -25.1389 -2.34418 -0.378771 -3.3398 
623 3 5.91941 8.45029 13.8486 -28.0295 -0.428142 -0.401406 0.96204 
1043 2 3.34795 11.0676 14.1795 -24.4655 -4.81824 -0.295485 -0.142918 
1523 3 2.98096 8.08345 11.7209 -27.934 0.343658 2.01637 -1.08979 
1524 3 2.96213 8.40024 16.8214 -29.141 -1.64562 -0.893125 -0.30206 
2043 1 1.58273 12.1881 12.6638 -7.41011 0.103612 0.0932715 -0.923847 
2522 1 3.82705 9.83944 10.3418 -6.98565 -2.60757 -2.37825 0.873479 
2523 1 4.19848 9.53239 15.7212 -7.41398 1.99256 0.477708 -1.3178 
3023 1 4.56327 9.83119 12.9754 -7.90077 -1.3614 -0.166293 0.2333 
3543 1 1.47918 12.1006 15.1463 -7.22301 -0.478062 0.734602 1.74036 
4043 1 4.32917 12.2323 15.6108 -7.96235 0.492181 1.95925 -0.487762 
4523 1 1.25688 9.3324 12.1532 -7.6494 -0.0554294 0.0691587 0.74499 
5023 1 1.64278 9.33221 15.4173 -6.39025 -1.14749 -0.60902 -2.20821 
5543 1 4.36779 12.489 12.7075 -8.02551 0.356089 0.873175 0.185336 
5122 1 6.26258 9.82614 9.65222 -7.15366 3.67852 1.27346 -0.789525 
3642 1 6.57768 12.6533 9.73357 -8.20169 0.784468 -1.4262 2.06703 
2044 1 1.09594 12.4705 17.9836 -7.28129 0.710696 0.475988 -0.309491 
5544 1 3.94045 12.3479 18.1116 -7.40125 -0.20323 0.530275 2.55542 
3024 1 4.25196 9.80224 18.2683 -7.93425 0.359905 -1.61949 0.159493 
643 3 5.81915 13.5977 14.3132 -28.7719 -0.723559 -0.592558 -1.88208 
1744 3 13.6346 13.587 16.8755 -29.2871 0.679832 0.598978 -1.05707 
1623 2 8.41927 8.28296 11.2253 -23.8152 -1.18623 -0.939974 1.2543 
1644 2 8.27406 13.6568 17.0723 -25.247 0.749773 0.703433 -2.82351 
3123 1 9.42071 9.42617 12.9558 -7.5535 0.106292 1.58251 -2.06668 
3643 1 6.97044 12.3339 15.288 -6.57214 1.25806 -1.44729 0.948148 
3743 1 12.2235 12.1466 15.843 -8.22608 0.196552 0.924948 -0.819298 
2623 1 9.36652 9.51527 15.4584 -7.25513 2.26204 1.6912 1.92264 
243 3 10.912 11.0717 11.4143 -28.1347 0.170326 -0.118126 -2.99154 
4724 1 12.6012 9.54565 17.8705 -7.33433 -0.386609 -0.450065 -1.55618 
723 3 11.1163 8.38323 14.094 -28.0696 -6.27078 -5.5169 -3.25462 
1724 3 13.5701 8.35852 16.5559 -27.8128 -1.40667 -2.217 3.00612 
4143 1 9.77138 12.1634 15.5551 -7.52873 -0.785676 0.870193 -0.624222 
5644 1 9.26215 12.057 18.3026 -7.85038 1.40966 0.19699 0.389837 
5643 1 9.98282 12.0766 12.7828 -7.9981 0.816525 0.13033 1.75644 
4123 1 9.41522 6.9995 15.3719 -5.95185 -0.526543 -0.726027 -0.429545 
5623 1 10.0227 7.08425 12.838 -7.58285 -2.59699 -1.67654 -2.20165 
3722 1 12.5898 7.36062 9.97896 -6.63801 -1.77686 -1.26291 0.529574 
3124 1 9.83948 9.38654 18.3599 -8.30898 -1.10312 0.16115 -0.201389 
4624 1 7.01454 9.74406 18.0475 -8.82018 1.4963 -1.23939 0.167516 
1243 2 13.3335 11.0322 14.3555 -23.2218 2.6016 1.3492 -2.99927 
2244 1 12.1075 12.1692 18.5438 -6.54585 -1.48564 -0.211198 -1.02186 
4623 1 6.89978 9.60137 12.1273 -7.52535 1.41482 -0.149099 1.76844 
5123 1 6.94277 9.76583 15.213 -7.63177 -1.58507 -1.45395 -0.557518 
2143 1 7.22951 12.4901 12.7868 -7.43382 -0.34614 -1.33081 -1.50384 
2243 1 12.8239 12.9413 13.0469 -7.8478 -0.558613 -1.48207 0.419883 
244 2 10.8882 10.6583 16.8967 -24.8836 -0.0383733 1.9054 1.08632 
2622 1 9.34435 9.82284 9.98882 -8.70859 0.487242 -1.45495 -0.212892 
5223 1 11.9603 9.44175 15.0698 -8.89469 4.49216 4.51476 4.09262 
3723 1 12.0252 7.06855 15.9496 -7.4157 1.44219 -0.590854 -3.78536 
5222 1 12.2986 9.90227 9.6796 -6.55761 -2.20827 -0.0125334 0.304098 
4723 1 12.0667 9.82468 12.4879 -8.39213 1.06965 0.8385 0.712603 
1624 2 8.12494 8.27888 16.8012 -25.2412 2.39398 -2.67939 -1.9817 
3742 1 12.2101 12.3097 10.506 -7.1538 0.255166 1.14214 -0.734331 
4142 1 9.52554 12.3911 10.1046 -7.48293 -0.986302 0.861436 -1.65088 
1143 3 8.64529 10.9546 14.0823 -28.7902 -2.58887 1.22565 0.780472 
2223 1 12.4637 7.17869 12.8573 -7.9192 2.14294 -0.328064 1.16626 
125 2 5.42918 5.42185 22.3962 -25.7259 -1.59742 -1.49714 -1.32439 
604 3 5.76283 3.15731 19.4487 -28.7557 -1.46096 -1.37168 0.978854 
605 2 5.43411 2.63388 25.1683 -25.8623 0.606869 0.690781 -0.92438 
1024 3 2.87089 5.68418 19.4542 -28.773 -0.295479 -1.23499 1.75321 
1025 3 2.67256 5.78033 25.0369 -27.7842 -0.993801 -2.77378 -1.27619 
1505 2 2.85058 2.88435 22.2962 -26.2802 1.72967 0.965037 -1.29902 
2005 1 1.57376 1.69105 23.4194 -7.62596 -1.10494 -0.456739 1.52374 
2504 1 4.39818 3.8606 21.1199 -6.89556 1.90986 1.47141 -0.826745 
2505 1 4.38612 3.77271 26.7931 -7.7421 -0.843068 0.745164 -1.13721 
3005 1 4.09795 4.31375 23.952 -7.02319 -0.309684 0.54362 0.716051 
3504 1 1.31166 1.32921 20.7437 -7.95146 -0.720348 -1.7184 -0.0210277 
3505 1 1.51473 1.409 26.2219 -8.45779 -2.49175 -0.534166 -0.74376 
4004 1 3.94646 1.43601 20.7859 -6.38677 0.457067 0.443905 1.1086 
4005 1 4.03574 1.10526 26.4449 -7.25008 0.884807 -0.634292 -2.58298 
4505 1 1.58003 4.52574 23.4678 -7.1867 -0.96007 -1.60348 0.441302 
5004 1 1.68845 3.96727 20.8517 -5.91285 -1.36457 2.29742 1.72189 
5005 1 1.48309 4.19587 26.1255 -8.09657 -0.221584 0.367268 -0.189798 
5505 1 4.43784 1.65871 23.5302 -7.00218 -3.23723 -0.732397 -0.926738 
2105 1 6.71735 1.07146 23.9872 -6.59812 2.18388 2.02982 -1.2675 
3604 1 6.89585 1.4398 21.1716 -7.69517 -0.668292 1.61492 -0.757906 
1506 2 2.69601 2.71657 27.5893 -25.4543 -0.0907023 0.66686 0.968726 
4605 1 6.68657 3.84163 23.5875 -7.25851 2.09883 -0.999474 -0.784321 
5105 1 6.86208 4.18672 26.227 -7.86425 1.21964 0.251553 0.815532 
1004 3 2.75288 0.183694 19.5958 -28.535 0.172684 1.59546 -0.993862 
505 2 0.160473 2.97771 24.8345 -24.449 2.51765 -2.7351 1.28311 
105 3 5.19405 0.183193 22.2239 -29.9199 0.983064 0.22233 0.31188 
4024 1 3.88122 6.44252 21.0262 -6.7948 0.249511 0.83902 0.538074 
4025 1 4.04843 6.73418 26.305 -8.89878 0.116834 1.05912 -0.463946 
2025 1 0.793622 6.85939 23.5926 -7.04141 2.51049 2.76475 2.89608 
3624 1 6.65587 6.79967 20.9743 -7.87687 1.58437 0.0464118 -0.503626 
2125 1 6.5703 6.4109 23.8349 -7.17785 0.454598 2.17764 0.704834 
3605 1 6.98871 1.34131 26.4707 -7.53791 -1.3304 0.778051 -1.42937 
5104 1 7.07241 4.15955 20.757 -7.65514 -1.10405 -0.736837 1.31527 
225 3 10.9147 5.20951 22.4015 -29.2645 -0.0346646 -0.775341 -2.77031 
704 2 11.0318 2.64926 19.3112 -25.9408 2.26925 2.41117 1.07896 
705 3 10.7249 2.53414 24.6062 -28.6505 4.46198 -0.849453 0.987276 
1124 2 8.27074 5.611 19.6909 -25.4455 1.3869 -1.62226 -2.62145 
1125 3 8.28067 5.38528 25.0641 -28.6554 -2.1346 0.176361 0.885058 
1605 2 8.22984 2.69281 22.3516 -24.5418 -0.692372 1.46628 -2.2315 
2205 1 12.3519 1.0995 23.4719 -7.55414 0.907931 -0.820549 -1.96651 
2604 1 9.6735 4.22575 21.0394 -6.53146 -1.11341 -0.357245 1.84832 
2605 1 9.59687 4.37297 26.6035 -7.09827 -0.162989 -1.09423 -4.96993 
3105 1 9.53084 3.88155 23.8741 -8.78239 -2.19541 0.966952 -0.577476 
3704 1 12.2204 1.28805 20.6579 -7.82429 0.968224 -0.974206 1.06805 
3705 1 11.8131 1.15908 25.8809 -6.75056 0.368136 -1.23211 2.08772 
4104 1 9.67033 1.67453 20.4987 -7.12081 -3.70197 -2.67497 2.08197 
4105 1 9.36603 1.69632 25.9405 -8.15546 0.395722 -0.0421601 -0.138446 
4705 1 11.9744 3.67279 23.1597 -6.71307 0.960081 -0.837944 -0.558879 
5204 1 12.274 3.98222 20.6664 -6.47995 0.770811 -0.570847 -1.16906 
5205 1 12.5098 3.61605 25.5037 -7.3772 -1.4566 -0.121663 2.18593 
5605 1 9.51557 1.15558 23.2819 -8.52233 0.508918 2.8833 -0.750935 
5625 1 9.25012 6.63982 23.8037 -8.60697 1.14439 0.967661 -1.56155 
2225 1 11.9468 6.22343 23.6891 -7.29795 -2.4308 3.32332 1.18816 
4124 1 9.63928 6.75184 21.0081 -8.16551 -0.280823 1.26178 0.494372 
3725 1 11.8262 6.40428 26.2512 -7.87196 0.254191 1.16124 -0.486416 
3724 1 12.2098 6.43286 21.0927 -7.86792 -0.298766 3.64802 -1.37031 
1606 2 8.19615 2.76151 27.5587 -25.541 0.108764 1.97061 1.6901 
1225 3 13.2661 5.25692 24.8793 -29.2555 1.58039 0.853446 -0.08225 
1706 2 13.6177 2.85215 27.2477 -25.3173 -0.758406 -2.63491 3.14394 
1224 3 13.3747 5.41812 19.4923 -28.9416 0.971869 -0.994463 1.5567 
1105 3 8.33534 0.336847 24.7916 -28.6392 -1.9846 -3.6809 1.2956 
3524 1 1.24852 6.90366 20.9792 -7.19249 0.525345 0.238343 -1.13434 
5525 1 3.57384 7.0581 23.6197 -8.4872 1.41904 1.01222 1.80804 
3525 1 1.31145 6.94151 26.6269 -8.91828 -0.418284 0.982218 -1.27633 
3625 1 6.74963 7.20848 26.327 -7.31031 -1.3243 -0.304284 2.00496 
145 2 5.39831 10.6108 21.9687 -24.9223 0.230633 2.95254 1.14933 
624 2 5.69214 8.32212 19.2218 -23.5094 -4.09238 -4.2314 -1.54698 
625 2 5.33829 8.29199 25.0094 -23.9378 1.11611 -0.17507 -0.653238 
1044 2 2.58441 10.8261 19.3353 -24.9336 1.87779 3.11395 3.89917 
1045 3 2.83862 11.1715 25.1062 -29.313 -0.114472 1.37543 -0.698934 
1525 3 2.69779 8.32638 22.4241 -28.1203 -2.10699 -0.375856 -2.64198 
2045 1 1.52176 12.4712 23.6681 -7.24662 -0.246088 -4.23248 0.112101 
2524 1 3.86411 9.37285 20.8964 -8.18977 0.106186 0.227299 0.83197 
2525 1 3.84065 9.83053 26.4925 -8.16953 2.75029 -2.04919 -0.864976 
3025 1 3.7806 9.86099 23.857 -7.9309 2.77661 -2.60334 -1.40615 
3544 1 1.37855 12.2988 20.7556 -7.43502 -0.0321027 0.160367 0.258316 
3545 1 1.91579 12.8024 26.0937 -7.19433 -0.318533 -0.463878 1.42795 
4044 1 4.0731 12.3713 21.022 -7.45115 0.207895 -0.948469 -0.76585 
4045 1 4.63475 12.2686 26.4048 -7.48559 -0.232384 -0.217075 1.67207 
4525 1 1.31133 9.53472 23.3526 -7.40523 -0.572355 -0.347864 1.43938 
5024 1 1.08346 9.71733 20.7995 -7.63434 0.993094 -1.90415 -2.41756 
5025 1 1.41309 10.0118 26.124 -7.93459 -2.69862 -1.56423 -0.680352 
5545 1 4.21243 12.3915 23.7429 -7.12399 0.000449651 -0.0743491 -0.827705 
645 3 5.67168 13.3487 24.8492 -29.2673 -0.788994 0.400068 0.803695 
5125 1 6.70921 9.93403 26.2137 -7.70227 -3.0881 -1.7319 0.900481 
4625 1 6.7116 9.13412 23.2352 -8.11988 -1.54877 0.335759 1.78984 
5124 1 6.67141 9.35803 20.5573 -7.88801 4.10575 2.33571 4.46726 
3644 1 6.88092 11.923 20.6278 -6.60021 -0.495134 -0.82895 -0.560457 
1526 2 2.87771 8.26413 27.584 -23.7704 -1.32808 -0.988697 1.25173 
1545 2 2.63631 13.5415 22.3939 -25.0518 3.37755 2.59238 -3.56389 
1245 3 13.4627 10.8903 25.0428 -27.2916 2.28355 -3.40172 0.817124 
1645 2 8.13186 13.4332 22.1315 -25.3872 -0.428298 -0.729869 0.994729 
3645 1 7.34974 12.4073 26.2037 -7.27744 -2.18696 1.03886 -2.00107 
2145 1 6.99884 11.8774 23.2288 -7.58156 -0.941101 -0.173403 2.59507 
4125 1 9.26332 6.92267 26.439 -7.2117 1.00342 -2.39481 0.206662 
3745 1 12.4431 12.304 26.5056 -9.03849 -1.53446 -1.4686 -1.30128 
245 3 10.9102 10.7679 22.2412 -28.7359 -0.373814 0.0109533 0.386879 
724 2 11.0935 8.01044 19.607 -24.3312 -0.0154896 -0.376413 -1.07242 
725 2 10.6376 8.00833 24.9989 -24.5189 1.11047 0.0557413 -0.431198 
1144 2 8.43918 10.6035 19.7583 -24.3736 -1.2636 2.19542 -1.27165 
1145 2 8.28135 10.8346 25.0397 -24.9412 0.126663 0.916156 -2.34952 
1625 2 8.30873 8.06349 22.2337 -23.9168 -1.73682 -0.941478 1.44281 
2245 1 12.2984 11.5292 23.733 -8.83367 -0.396948 3.08414 -0.051947 
2624 1 9.60856 9.3338 21.0611 -8.63702 1.72983 -0.379156 -0.94471 
2625 1 9.16933 9.24232 26.1483 -7.11971 1.45186 1.21942 0.286878 
3125 1 9.63313 9.71608 23.6062 -7.75869 -0.80893 -2.54454 0.67626 
3744 1 12.1383 12.1121 21.0506 -8.00309 1.90441 -0.2583 1.81259 
4144 1 9.56561 11.97 21.2185 -7.79356 0.034587 0.624728 -2.36482 
4145 1 9.69801 11.9649 26.5708 -8.40847 3.0696 -0.460345 -0.268295 
4725 1 12.0994 9.14759 22.9581 -7.4382 -2.56643 -0.802463 0.298621 
5224 1 12.5251 9.63737 20.3543 -7.94865 -1.04604 -2.94405 2.499 
5225 1 11.9786 9.51646 26.0605 -8.81951 0.01398 0.0821586 -0.319585 
5645 1 9.63116 12.2372 23.7212 -7.70889 0.0678938 0.897744 1.2391 
745 3 10.8064 13.1999 24.9626 -27.5693 0.465097 1.91892 0.0801522 
1726 3 13.5027 8.01492 27.2781 -28.2919 -0.32297 0.424866 1.05479 
744 3 11.0073 13.4325 19.6234 -28.7526 -0.396898 -0.616516 -0.296646 
1745 2 13.5243 13.1591 22.3851 -23.6673 1.45747 2.30781 -0.809364 
1725 3 13.3048 8.08289 22.076 -28.2279 3.0856 -2.34586 0.534539 
126 2 5.40258 5.36707 27.852 -24.9764 0.409333 1.59135 -0.0949867 
127 2 5.45644 5.28139 33.1686 -25.4591 2.15538 1.00977 0.434356 
606 2 5.25695 2.90579 30.4098 -25.7341 1.33287 -3.18829 1.59227 
607 2 5.56226 2.67951 35.83 -25.06 -3.69369 -0.349072 -1.1932 
1026 3 2.64977 5.47644 30.7288 -29.7218 0.0270489 0.176854 -0.382593 
1027 3 2.95184 5.17136 35.6348 -29.4813 -2.49413 2.52423 0.996903 
1507 2 2.43755 2.61973 33.3995 -25.152 2.6322 2.27917 -3.34393 
2006 1 1.2628 1.68798 28.9064 -7.85477 1.30204 -2.4601 -0.583217 
2007 1 1.04112 1.36477 34.3559 -8.16005 -1.20431 -1.75671 -1.22958 
2506 1 4.04685 4.00458 32.2042 -6.89609 -0.728792 -1.54321 -2.38384 
3006 1 4.02845 4.35668 29.4591 -7.46206 -1.12957 0.161756 -0.202326 
3007 1 4.00262 3.95247 34.6385 -7.22904 0.927694 -0.949742 -1.33935 
3506 1 1.27241 1.3611 31.5639 -7.70057 0.197236 -1.44719 1.04962 
4006 1 4.0543 1.38159 31.6477 -6.54043 -0.703398 0.0431692 -0.0688766 
4506 1 1.33199 4.29976 28.7389 -6.65129 0.849346 -0.93096 0.531251 
4507 1 1.27548 4.35274 34.6474 -7.10516 0.562319 -2.00043 -1.78685 
5006 1 1.35564 3.9128 31.905 -7.49536 -0.355295 -0.172362 -1.47914 
5506 1 4.20686 1.61226 28.8778 -6.9351 -0.732468 0.1322 1.60402 
5507 1 3.79897 1.20772 34.4031 -7.80206 -0.269212 -0.770065 0.253009 
5526 1 3.82421 6.8725 28.9723 -7.74011 1.40639 1.22971 0.431543 
3526 1 1.59631 6.36237 32.3387 -6.13262 1.77483 1.17067 -1.46662 
5527 1 4.38989 6.7212 34.3555 -7.80186 -1.2387 1.59534 0.65202 
3606 1 6.69947 0.920445 31.7695 -6.73632 0.551301 0.913198 0.0571082 
4606 1 6.70372 4.06376 29.1071 -7.32179 0.641624 0.374877 -0.768084 
4607 1 6.7731 3.88082 34.4117 -7.91838 -0.0797332 1.97906 0.119423 
2107 1 6.3856 1.25251 34.3224 -7.84916 2.15104 -0.365099 1.16471 
2027 1 1.75047 6.84846 34.7666 -5.88507 1.52878 0.727001 2.008 
4026 1 4.38811 6.44012 31.6851 -7.31081 -0.327451 2.25725 -1.99484 
2026 1 1.0138 6.54723 29.7976 -6.78629 1.43562 1.06281 -0.066412 
2126 1 6.77489 6.70103 29.2639 -7.98937 -1.89724 0.166224 -0.846982 
1227 3 13.3533 5.46264 35.856 -26.9947 2.65423 3.98783 -2.60198 
226 3 10.6037 5.59994 27.7317 -29.0728 -0.504955 -0.165589 0.850047 
1707 3 13.6159 2.96357 32.8729 -29.5624 1.60702 -0.874671 0.125127 
1226 2 13.6325 5.56824 30.1214 -25.17 -1.98837 -1.26357 0.47433 
2106 1 6.93777 1.4238 28.9353 -6.90716 -0.152188 -0.430701 1.67194 
5106 1 6.95814 3.89799 31.7174 -7.93461 -0.571141 0.805463 0.974179 
227 2 10.7096 5.91185 33.1354 -25.3828 -0.0341996 -1.42957 -2.69775 
706 2 10.7507 2.76143 30.3021 -26.0002 1.05504 -0.60691 -1.96352 
707 2 10.8069 3.0377 35.722 -24.318 0.648971 -1.91722 -1.51403 
1126 2 8.20046 5.44402 30.5881 -25.8105 -1.40253 1.67165 -2.59947 
1127 2 8.1587 5.48291 35.8154 -24.9354 -0.0811647 0.507008 -0.325154 
1607 2 8.0289 2.54923 33.4063 -23.823 -1.76526 0.953484 -2.49177 
2206 1 12.0439 1.19139 28.774 -6.00381 1.67213 1.96514 -2.38479 
2207 1 12.2059 1.79834 34.1404 -7.8108 -1.20056 -0.904955 -0.156904 
2606 1 9.90615 4.57815 31.4679 -7.01857 2.07363 -2.65199 0.499099 
3106 1 9.45755 4.15753 28.8375 -6.98807 0.0521519 -0.0823518 4.17558 
3107 1 9.52713 4.44994 34.3332 -8.03291 -1.13118 -1.91444 1.06991 
3706 1 12.1709 1.09736 31.3245 -6.68508 -2.83991 -0.962091 4.05709 
4106 1 9.37603 1.86888 32.0298 -7.99923 3.01057 -2.20959 -2.89759 
4706 1 12.4606 4.02176 28.6845 -6.91156 -2.27482 1.52012 -1.41178 
4707 1 12.1361 4.41284 33.9877 -7.70536 1.79649 0.00115335 0.881337 
5206 1 12.6145 3.36028 31.1626 -6.24982 0.947096 4.82596 1.59314 
5606 1 9.62324 1.47944 28.7205 -7.45961 -1.71233 -0.848421 0.943925 
5607 1 9.38964 1.52104 34.7426 -8.43727 0.939466 0.154317 -1.94212 
2127 1 6.94749 6.66389 34.4748 -6.74108 -0.461789 0.626817 1.09484 
3726 1 12.1414 6.80023 31.5987 -7.32408 -0.483193 -1.37537 -0.881436 
2226 1 11.7533 6.6754 28.8366 -7.26464 3.37757 -0.37529 1.44754 
1207 3 13.5978 0.177863 35.5034 -28.0347 2.05228 0.24718 -0.303638 
207 2 10.9327 0.252308 32.9912 -24.8212 -1.21827 -1.59153 -0.16545 
3127 1 6.8434 9.73498 31.6189 -6.29201 0.96724 -1.60475 1.33354 