molecular system: Li7PS6
56 atoms
16 bonds
24 angles
0 dihedrals
0 impropers
4 atom types
1 bond types
1 angle types
0 dihedral types
0 improper types

  0.000000   9.992600 xlo xhi
  0.000000   9.992600 ylo yhi
  0.000000   9.992600 zlo zhi

Masses

     1   6.941000 # Li   Li  
     2  30.973762 # P4   PS4 
     3  32.066000 # S4   PS4 
     4  32.066000 # S    S   

Atoms

     1      1      1   1.000000   8.168950   4.756478   6.819949 0 0 0  # Li Li
     2      2      1   1.000000   1.823650   5.236122   6.819949 0 0 0  # Li Li
     3      3      1   1.000000   1.823650   4.756478   3.172651 0 0 0  # Li Li
     4      4      1   1.000000   8.168950   5.236122   3.172651 0 0 0  # Li Li
     5      5      1   1.000000   4.756478   8.168950   6.819949 0 0 0  # Li Li
     6      6      1   1.000000   5.236122   1.823650   6.819949 0 0 0  # Li Li
     7      7      1   1.000000   4.756478   1.823650   3.172651 0 0 0  # Li Li
     8      8      1   1.000000   5.236122   8.168950   3.172651 0 0 0  # Li Li
     9      9      1   1.000000   8.168950   6.819949   4.756478 0 0 0  # Li Li
    10     10      1   1.000000   1.823650   6.819949   5.236122 0 0 0  # Li Li
    11     11      1   1.000000   1.823650   3.172651   4.756478 0 0 0  # Li Li
    12     12      1   1.000000   8.168950   3.172651   5.236122 0 0 0  # Li Li
    13     13      1   1.000000   6.819950   4.756478   8.168950 0 0 0  # Li Li
    14     14      1   1.000000   6.819949   5.236122   1.823649 0 0 0  # Li Li
    15     15      1   1.000000   3.172651   4.756478   1.823649 0 0 0  # Li Li
    16     16      1   1.000000   3.172651   5.236122   8.168950 0 0 0  # Li Li
    17     17      1   1.000000   8.168950   1.823650   9.752778 0 0 0  # Li Li
    18     18      1   1.000000   1.823650   1.823649   0.239822 0 0 0  # Li Li
    19     19      1   1.000000   1.823650   8.168950   9.752778 0 0 0  # Li Li
    20     20      1   1.000000   8.168950   8.168950   0.239822 0 0 0  # Li Li
    21     21      1   1.000000   6.819950   9.752778   3.172651 0 0 0  # Li Li
    22     22      1   1.000000   6.819949   0.239822   6.819949 0 0 0  # Li Li
    23     23      1   1.000000   3.172651   9.752778   6.819949 0 0 0  # Li Li
    24     24      1   1.000000   3.172651   0.239822   3.172651 0 0 0  # Li Li
    25     25      1   1.000000   9.752778   8.168950   1.823649 0 0 0  # Li Li
    26     26      1   1.000000   0.239822   1.823650   1.823649 0 0 0  # Li Li
    27     27      1   1.000000   9.752778   1.823650   8.168950 0 0 0  # Li Li
    28     28      1   1.000000   0.239822   8.168950   8.168950 0 0 0  # Li Li
    29     37      2   5.000000   4.996300   4.996300   4.996300 0 0 0  # P4 PS4
    30     38      2   5.000000   4.996300   0.000000   0.000000 0 0 0  # P4 PS4
    31     39      2   5.000000   0.000000   4.996300   0.000000 0 0 0  # P4 PS4
    32     40      2   5.000000   0.000000   0.000000   4.996300 0 0 0  # P4 PS4
    33     37      3  -2.000000   6.176226   6.176226   6.176226 0 0 0  # S4 PS4
    34     37      3  -2.000000   3.816374   3.816374   6.176226 0 0 0  # S4 PS4
    35     37      3  -2.000000   3.816374   6.176226   3.816374 0 0 0  # S4 PS4
    36     37      3  -2.000000   6.176226   3.816374   3.816374 0 0 0  # S4 PS4
    37     38      3  -2.000000   6.176226   1.179926   1.179926 0 0 0  # S4 PS4
    38     38      3  -2.000000   3.816374   8.812674   1.179926 0 -1 0  # S4 PS4
    39     38      3  -2.000000   3.816374   1.179926   8.812674 0 0 -1  # S4 PS4
    40     38      3  -2.000000   6.176226   8.812674   8.812674 0 -1 -1  # S4 PS4
    41     39      3  -2.000000   1.179926   6.176226   1.179926 0 0 0  # S4 PS4
    42     39      3  -2.000000   8.812674   3.816374   1.179926 -1 0 0  # S4 PS4
    43     39      3  -2.000000   8.812674   6.176226   8.812674 -1 0 -1  # S4 PS4
    44     39      3  -2.000000   1.179926   3.816374   8.812674 0 0 -1  # S4 PS4
    45     40      3  -2.000000   1.179926   1.179926   6.176226 0 0 0  # S4 PS4
    46     40      3  -2.000000   8.812674   8.812674   6.176226 -1 -1 0  # S4 PS4
    47     40      3  -2.000000   8.812674   1.179926   3.816374 -1 0 0  # S4 PS4
    48     40      3  -2.000000   1.179926   8.812674   3.816374 0 -1 0  # S4 PS4
    49     29      4  -2.000000   2.498150   2.498150   2.498150 0 0 0  # S S
    50     30      4  -2.000000   7.494450   7.494450   2.498150 0 0 0  # S S
    51     31      4  -2.000000   7.494450   2.498150   7.494450 0 0 0  # S S
    52     32      4  -2.000000   2.498150   7.494450   7.494450 0 0 0  # S S
    53     33      4  -2.000000   0.000000   0.000000   0.000000 0 0 0  # S S
    54     34      4  -2.000000   0.000000   4.996300   4.996300 0 0 0  # S S
    55     35      4  -2.000000   4.996300   0.000000   4.996300 0 0 0  # S S
    56     36      4  -2.000000   4.996300   4.996300   0.000000 0 0 0  # S S

Bonds

     1      1     29     33 # P4-S4
     2      1     29     34 # P4-S4
     3      1     29     35 # P4-S4
     4      1     29     36 # P4-S4
     5      1     30     37 # P4-S4
     6      1     30     38 # P4-S4
     7      1     30     39 # P4-S4
     8      1     30     40 # P4-S4
     9      1     31     41 # P4-S4
    10      1     31     42 # P4-S4
    11      1     31     43 # P4-S4
    12      1     31     44 # P4-S4
    13      1     32     45 # P4-S4
    14      1     32     46 # P4-S4
    15      1     32     47 # P4-S4
    16      1     32     48 # P4-S4

Angles

     1      1     33     29     34 # S4-P4-S4
     2      1     33     29     35 # S4-P4-S4
     3      1     33     29     36 # S4-P4-S4
     4      1     34     29     35 # S4-P4-S4
     5      1     34     29     36 # S4-P4-S4
     6      1     35     29     36 # S4-P4-S4
     7      1     37     30     38 # S4-P4-S4
     8      1     37     30     39 # S4-P4-S4
     9      1     37     30     40 # S4-P4-S4
    10      1     38     30     39 # S4-P4-S4
    11      1     38     30     40 # S4-P4-S4
    12      1     39     30     40 # S4-P4-S4
    13      1     41     31     42 # S4-P4-S4
    14      1     41     31     43 # S4-P4-S4
    15      1     41     31     44 # S4-P4-S4
    16      1     42     31     43 # S4-P4-S4
    17      1     42     31     44 # S4-P4-S4
    18      1     43     31     44 # S4-P4-S4
    19      1     45     32     46 # S4-P4-S4
    20      1     45     32     47 # S4-P4-S4
    21      1     45     32     48 # S4-P4-S4
    22      1     46     32     47 # S4-P4-S4
    23      1     46     32     48 # S4-P4-S4
    24      1     47     32     48 # S4-P4-S4
