ITEM: TIMESTEP
0
ITEM: NUMBER OF ATOMS
18000
ITEM: BOX BOUNDS xy xz yz pp pp pp
-3.0927265465803266e-01 2.6034272654657691e+01 0.0000000000000000e+00
-3.0308563072620487e-01 2.6028085630726018e+01 0.0000000000000000e+00
-3.3888800401270203e+00 3.1208888004012215e+02 0.0000000000000000e+00
ITEM: ATOMS id type x y z c_peratom fx fy fz 
1 1 0.971115 1.21487 0.709246 -7.62005 -3.24698 -1.53913 -1.19315 
2 1 0.716481 1.20286 5.89188 -7.6408 2.98737 -0.693345 0.00746781 
61 1 0.80072 6.3543 0.590716 -7.73506 0.877638 -1.18267 0.884039 
62 1 1.06771 6.49004 6.01064 -7.68093 -1.9565 -0.0479898 -1.46141 
121 1 0.991854 11.9573 0.627822 -8.22368 0.363636 -0.586274 0.545907 
122 1 1.12495 11.77 5.91386 -7.8077 -0.302641 0.245073 0.793322 
181 1 0.752295 17.3117 0.668417 -7.49409 0.195221 0.220757 -0.999696 
182 1 1.00235 17.1287 5.6865 -8.25985 -0.314934 -1.22228 1.21979 
241 1 0.851854 22.3525 0.632539 -7.96874 0.0675333 -1.44504 1.2026 
242 1 1.00093 22.2213 6.03646 -7.72657 -1.63724 -0.868656 -0.908702 
301 1 6.01727 0.884414 0.739718 -8.1869 0.320565 1.43575 -0.655712 
302 1 6.2765 1.03257 6.00411 -6.85328 0.726982 0.161147 0.35526 
361 1 5.91939 6.10942 0.672501 -7.48454 1.95165 0.45494 -2.01788 
362 1 6.0332 6.42617 5.73661 -8.57121 1.90576 -1.15567 0.365738 
421 1 6.14031 11.7435 0.211713 -7.13703 1.11833 -0.358967 1.57216 
422 1 6.21514 11.6588 5.81598 -8.34603 0.565323 -0.098579 -0.821365 
481 1 5.85179 16.9031 0.547502 -7.62622 -0.02306 0.157022 0.210703 
482 1 6.24467 16.7951 5.9751 -7.76914 -0.412274 1.30647 -0.360224 
541 1 6.0089 22.2468 0.442365 -7.64427 1.52673 -3.6583 0.443519 
542 1 6.37461 22.1069 5.71793 -8.10601 -1.56249 0.421754 -0.802405 
601 1 11.2321 1.11147 0.377678 -7.29479 -0.607345 -0.115616 -1.23305 
602 1 11.2231 1.29061 5.74591 -7.36846 2.79829 -1.02421 -0.233229 
661 1 11.6168 6.54889 0.401722 -8.37501 -1.40893 -0.869914 -0.57163 
662 1 11.5348 6.56197 5.89274 -7.36859 0.313059 -0.816069 -0.448552 
721 1 11.5148 11.7528 0.347097 -8.00219 -0.366934 0.61451 0.571717 
722 1 11.4168 11.5982 5.76824 -7.65357 0.888688 1.77771 2.25812 
781 1 11.0958 17.0691 0.469871 -8.40365 1.28455 0.13026 1.34369 
782 1 11.2771 16.9807 5.88409 -7.36822 0.619495 -1.39058 -1.07883 
841 1 11.231 22.3344 0.487042 -7.81051 -0.265713 -1.81514 0.302846 
842 1 11.4475 22.2785 5.78734 -7.85799 0.761038 -1.47266 -1.18488 
901 1 16.3015 0.987802 0.415742 -7.79464 2.87826 0.436748 -1.2202 
902 1 16.6967 1.19881 5.8055 -7.78488 -0.430486 0.046765 -0.336595 
961 1 16.7892 6.53611 0.555931 -7.97124 -0.288761 -0.166707 -0.611639 
962 1 16.7064 6.57542 5.71162 -7.49561 -0.35738 -1.55847 -0.359147 
1021 1 16.6358 11.7298 0.452254 -7.79283 0.64455 0.177994 2.29473 
1022 1 16.5792 11.7432 5.58757 -7.44312 3.52989 -0.392714 0.916014 
1081 1 16.4768 16.9521 0.518056 -7.67234 -0.477909 0.598973 0.94233 
1082 1 16.7493 16.9851 5.85988 -7.85156 -1.96908 0.165987 -0.17291 
1141 1 16.6305 22.0409 0.437805 -7.10751 -0.747401 0.292804 -1.06409 
1142 1 16.618 22.3828 5.66027 -7.78751 0.432387 -2.30892 2.61927 
1201 1 21.9123 1.0345 0.379748 -7.90002 -0.684218 -0.907885 -1.1319 
1202 1 21.8461 0.984296 5.5028 -7.98626 0.375447 -0.230094 0.539863 
1261 1 22.0299 6.27583 0.776578 -7.50022 -0.328182 -0.0330335 -0.682979 
1262 1 21.8654 6.1367 5.85849 -7.89489 0.769482 1.16581 -1.12965 
1321 1 21.9374 11.769 0.274606 -6.92527 -0.00313839 -1.74147 0.00637498 
1322 1 21.9969 11.3112 5.42167 -8.07917 0.877809 1.78357 0.988736 
1381 1 21.8194 16.8645 0.627836 -7.61236 0.373303 -0.106776 -0.813339 
1382 1 21.9757 16.912 5.7524 -7.61678 -0.467489 -0.312064 -0.137484 
1441 1 21.9807 21.9426 0.672489 -8.09338 -0.955524 1.60256 -0.0727638 
1442 1 21.7913 22.0485 5.68535 -7.31307 1.40229 -0.0274515 -0.0601642 
1501 1 0.670821 3.64605 -2.14813 -8.43232 1.04711 0.686649 -0.394676 
1502 1 0.834059 3.74344 2.9659 -7.07114 0.354416 -0.096569 0.541958 
1503 1 1.231 3.76438 8.47357 -8.29828 -0.291055 0.949293 0.312694 
1561 1 1.039 9.09502 -1.8627 -7.78285 0.954002 0.173259 -1.86312 
1562 1 1.04266 8.82559 3.1288 -7.20829 0.181813 0.0218251 2.9097 
1563 1 1.16021 9.14516 8.43248 -7.9318 -1.22641 0.926517 0.88381 
1621 1 0.717815 14.5359 -2.12778 -7.07033 -0.652225 -0.577946 1.03019 
1622 1 0.980908 14.3238 2.83324 -7.42105 0.628302 -0.520593 1.93503 
1623 1 0.865785 14.6874 8.50779 -7.89221 -0.612057 -1.45341 0.650675 
1681 1 0.838181 19.645 -2.10717 -6.96097 0.374777 0.667594 -0.193182 
1682 1 0.882418 19.443 3.08918 -8.83335 0.267985 3.56122 -0.4187 
1683 1 1.25839 19.8663 8.34262 -7.90934 -0.868941 -2.81497 -0.91798 
1741 1 0.952795 24.6162 -2.26231 -7.11644 -0.12938 2.45957 0.79219 
1742 1 0.728034 24.9816 3.07559 -7.11706 0.24015 0.0857691 0.674392 
1743 1 1.01567 24.8007 8.56147 -7.50437 -1.7442 -0.53444 -0.88733 
1801 1 5.84669 3.5946 -2.39203 -7.57152 0.454633 -0.429926 -0.425037 
1802 1 6.05133 3.8417 2.97595 -7.58587 -1.17454 0.605513 0.0730211 
1803 1 6.61982 4.00409 8.302 -7.98322 -2.32896 -0.260681 0.254395 
1861 1 6.39901 9.03376 -1.8503 -8.12014 -2.7676 -2.65503 -2.58753 
1862 1 6.1165 9.06076 3.40606 -7.77834 0.588021 -0.0609594 0.354302 
1863 1 6.29034 9.00865 8.69777 -7.47761 -0.409212 1.75193 -0.963024 
1921 1 6.07447 14.3544 -2.02651 -8.58497 0.522476 1.3068 -0.724611 
1922 1 6.15739 14.0886 3.36566 -7.48541 0.00540603 0.25859 -1.52091 
1923 1 6.13102 14.2388 8.4108 -7.90883 -1.5237 0.211107 -0.196096 
1981 1 5.93758 19.7446 -1.97081 -7.36466 0.119385 0.377376 0.903148 
1982 1 6.27665 19.5494 3.00181 -8.23015 -1.83873 -1.29487 1.61684 
1983 1 6.18258 19.5679 8.33802 -7.80823 2.8438 -0.156519 0.86919 
2041 1 6.4923 24.9159 -2.10998 -7.29546 -2.30278 -1.6648 -0.800369 
2042 1 6.07075 25.1631 3.11921 -7.67983 -1.39788 -1.6535 -0.574252 
2043 1 6.08995 24.9376 8.13774 -7.31707 -0.506485 -1.24034 1.16222 
2101 1 11.1768 3.77459 -1.8138 -7.958 0.502811 -0.751473 -0.34457 
2102 1 11.3815 3.78187 3.30875 -7.63434 -0.941418 1.11616 0.810243 
2103 1 11.5423 4.10638 8.59667 -7.23722 -0.0754993 -0.686147 -0.082711 
2161 1 11.5465 8.8673 -1.87006 -7.32338 -0.225213 -0.405293 0.285613 
2162 1 11.4911 9.19378 3.32228 -6.84648 0.235395 0.127677 -0.497846 
2163 1 11.6198 9.27496 8.51187 -7.61911 -0.277041 0.336794 -0.468596 
2221 1 11.3107 13.9951 -2.05447 -8.53907 1.9441 2.29576 -1.22023 
2222 1 11.5275 14.4833 3.3193 -8.36729 -0.721707 -0.90985 0.402812 
2223 1 11.2253 14.3616 8.57448 -6.43792 0.0811893 1.30688 0.140207 
2281 1 11.2597 19.4504 -1.96285 -8.31546 1.09953 -1.69824 -0.905395 
2282 1 11.4262 19.6246 3.10435 -7.72715 -2.15315 0.60029 1.56692 
2283 1 11.627 19.7316 8.56736 -7.47953 -2.88771 -0.758378 -0.711434 
2341 1 11.4519 24.4687 -2.15096 -7.77676 -0.135825 1.17759 -1.30836 
2342 1 11.4853 24.9105 2.84672 -8.12216 -1.38796 -0.809878 1.45027 
2343 1 11.4614 24.8856 8.47337 -7.42495 -1.86534 1.10995 0.199077 
2401 1 16.7527 3.64929 -1.91176 -7.37686 -1.68671 -0.195372 -2.37565 
2402 1 16.7069 3.89665 3.00754 -8.19077 0.271584 -0.204515 0.264395 
2403 1 16.724 3.84925 8.43815 -7.61065 0.451376 0.254177 0.513432 
2461 1 16.9888 8.75426 -2.09918 -8.07864 -1.60921 1.27856 0.498585 
2462 1 16.8692 9.11322 3.10922 -7.48376 -0.439094 0.295696 0.3373 
2463 1 16.8472 9.12184 8.30939 -7.44524 -2.50535 -0.658868 1.57107 
2521 1 16.8536 14.2953 -1.97341 -7.61167 -1.8579 -0.144872 -0.0129643 
2522 1 16.6956 14.4767 3.46448 -8.16553 1.13176 0.0706414 -0.521032 
2523 1 16.7535 14.25 8.59516 -7.25027 -1.3594 -0.38198 0.0814079 
2581 1 16.8342 19.5604 -1.89711 -7.89984 -3.16003 -0.996212 -1.18241 
2582 1 16.3402 19.7217 3.47213 -7.52539 1.62422 -0.274199 -0.225095 
2583 1 16.7546 19.4454 8.54745 -8.3322 -0.620949 0.995707 1.09386 
2641 1 16.7463 24.8197 -2.15392 -7.75773 0.0561507 0.702633 -0.542202 
2642 1 16.7529 24.8128 3.07103 -8.10214 1.8421 1.74536 -1.28656 
2643 1 16.7193 24.8495 8.37589 -8.84878 -0.864821 0.337666 0.731076 
2701 1 21.8262 3.83467 -2.04228 -7.68949 -0.375881 0.0192198 -0.692406 
2702 1 22.081 4.03526 3.1883 -7.19018 -0.586422 -0.341252 -0.179296 
2703 1 22.0753 4.12395 8.2364 -7.89573 0.161009 -1.45249 -0.553939 
2761 1 22.3195 9.15581 -1.99165 -8.03927 -1.55358 -0.571504 -0.245838 
2762 1 22.1278 9.2756 3.28113 -7.76947 0.0713717 -0.877579 0.746529 
2763 1 21.9614 9.19562 8.69477 -7.28717 -0.78296 1.4074 -1.60288 
2821 1 21.9007 14.5353 -2.02622 -7.1653 -0.67276 -1.53994 -0.449694 
2822 1 22.0566 14.5825 3.01183 -8.57557 0.148424 -1.38067 1.61707 
2823 1 21.6849 14.7851 8.68478 -6.93594 3.48812 -2.30678 1.87339 
2881 1 21.7953 19.5292 -2.19927 -7.67452 1.32722 0.0494875 0.193371 
2882 1 22.0504 19.8689 3.16476 -8.19854 -0.958887 0.255606 -0.80045 
2883 1 22.278 19.8909 8.45206 -7.77808 0.466776 -0.510818 -1.51625 
2941 1 21.9537 24.8024 -2.25183 -7.90706 1.9347 0.418349 0.815238 
2942 1 21.9439 25.2258 3.25027 -7.94052 0.295439 -0.0863888 -0.930744 
2943 1 22.214 25.1016 8.2146 -7.65106 -0.841103 0.255045 1.4954 
3001 1 3.83512 1.16206 -2.11695 -8.11924 -0.861433 0.187408 0.373718 
3002 1 3.84738 1.18537 3.18385 -7.83634 -0.269962 -0.898179 -0.643094 
3003 1 3.41779 0.882482 8.34294 -7.21586 1.1545 -1.36232 0.841251 
3061 1 3.66864 6.4956 -2.15085 -8.35465 0.926666 -1.25343 -1.19772 
3062 1 3.6408 6.68374 3.29852 -8.36972 -0.321722 -0.978616 -0.269388 
3063 1 3.74876 6.25055 8.43493 -7.64858 -1.96664 -0.452177 1.53138 
3121 1 3.65521 11.7649 -1.80258 -7.26581 1.18611 1.33595 -0.894328 
3122 1 3.63902 11.8931 3.30873 -7.24224 0.549845 0.18787 0.269453 
3123 1 3.98397 11.5507 8.72981 -7.82466 -0.82899 -1.62526 -2.10216 
3181 1 3.69371 17.1505 -2.05652 -7.83796 0.403645 -2.08406 -1.88253 
3182 1 3.76355 17.1063 2.9947 -8.57484 0.630368 0.0745983 0.629128 
3183 1 3.51778 16.5225 8.32679 -6.563 2.46754 0.11896 -0.118085 
3241 1 3.89049 22.3051 -2.1783 -7.95855 1.89283 -2.61364 1.33678 
3242 1 3.96196 22.1827 3.01672 -7.1353 0.181909 0.0690836 -1.40094 
3243 1 3.6207 21.771 8.32631 -8.03147 -0.520002 1.66483 -0.24388 
3301 1 9.11466 1.53125 -2.35028 -7.80243 0.352983 -2.23453 -1.20699 
3302 1 8.85328 1.00172 2.95743 -7.78597 0.607107 -0.0674693 -0.883645 
3303 1 8.63365 1.17256 8.16071 -8.02402 1.26389 -0.258112 2.63378 
3361 1 9.13241 6.40148 -1.96942 -7.45194 -1.07894 1.1367 -0.852205 
3362 1 8.90172 6.38044 3.19304 -7.65466 -0.774437 -1.95577 -0.691609 
3363 1 8.58889 6.50898 8.34767 -7.65097 1.54442 -0.216817 0.334295 
3421 1 8.76726 11.8645 -1.89889 -7.1032 1.02665 0.319259 -0.973532 
3422 1 8.99712 11.5891 2.97522 -6.74967 -0.166702 0.663547 3.71544 
3423 1 9.23945 11.7564 8.22078 -7.63491 -0.463735 -0.824622 1.44533 
3481 1 9.02943 17.1316 -1.97043 -7.93986 -0.233158 -0.807848 -0.360552 
3482 1 8.95656 16.9638 3.00855 -7.9672 1.14023 -0.0418713 2.46576 
3483 1 9.00347 16.8346 8.51301 -8.19585 -1.65262 0.527039 0.0845428 
3541 1 9.25868 22.1372 -2.31452 -8.10689 -0.50507 1.92725 0.800542 
3542 1 9.19893 22.2709 3.08497 -7.87381 -0.297121 -1.46327 -1.62073 
3543 1 8.87766 22.1596 8.50093 -7.7124 0.802286 -0.264398 -0.58218 
3601 1 14.2466 1.33763 -2.15052 -7.52155 -0.25503 -1.51887 -1.36444 
3602 1 14.1817 1.28888 2.9798 -7.54415 0.386615 -0.508316 1.60611 
3603 1 14.3937 0.919529 8.36727 -7.43367 -0.847899 0.41112 0.804028 
3661 1 14.5018 6.41296 -1.95632 -7.96262 -0.980832 -0.879852 0.251623 
3662 1 14.3766 6.4251 3.24928 -7.23876 0.321581 0.848231 0.593798 
3663 1 14.3247 6.43787 8.65238 -7.74769 -1.5463 -2.24717 -1.23673 
3721 1 14.3521 11.6436 -2.07761 -8.08491 -2.52853 -1.92854 -2.03682 
3722 1 14.2417 11.7111 3.37197 -7.60423 -0.0255228 -0.748143 -2.36798 
3723 1 14.5391 11.6331 8.54883 -8.76402 -1.15153 1.54335 1.08115 
3781 1 14.4334 16.9022 -1.86527 -8.2075 -2.72486 0.0417806 0.306318 
3782 1 14.4232 16.7363 3.44159 -7.57005 -0.635656 0.231237 -0.323502 
3783 1 14.1777 17.0998 8.38702 -6.76739 0.573106 -1.04642 -1.35091 
3841 1 14.3153 22.1825 -2.14983 -7.4066 0.234552 -0.303365 1.54186 
3842 1 14.4489 22.2193 3.15924 -8.10155 -1.57835 -1.81559 -0.470755 
3843 1 14.0345 22.1039 8.67787 -7.06766 3.08351 0.360665 -0.990095 
3901 1 19.4223 1.13311 -2.08289 -7.7065 0.0646052 -0.730858 0.995387 
3902 1 19.6164 1.04527 3.23557 -8.2065 -0.655178 0.650164 -0.670705 
3903 1 19.4956 0.92344 8.7482 -8.0547 0.928521 0.664725 -2.65317 
3961 1 19.5329 6.46435 -2.084 -7.693 1.66559 -2.15147 0.486362 
3962 1 19.6649 6.25106 3.15012 -6.83846 -0.779793 0.438177 0.466744 
3963 1 19.624 6.25544 8.27717 -7.53154 -0.0981286 1.02424 1.72132 
4021 1 19.6669 11.6881 -2.11653 -7.26194 0.239494 -0.923312 1.17544 
4022 1 19.5481 11.6816 3.166 -8.08739 1.6455 0.53077 -0.236177 
4023 1 19.6985 11.4411 8.48905 -7.22909 0.452639 0.993384 -0.239843 
4081 1 19.6887 16.6727 -2.01597 -7.55732 -0.181254 0.800407 -1.46479 
4082 1 19.6018 17.0726 2.92464 -7.67167 -0.960592 -0.0226999 0.600707 
4083 1 19.4846 16.7871 8.5734 -7.68885 -0.959425 1.53626 -1.1807 
4141 1 19.4208 22.0041 -1.96299 -8.07544 2.1685 0.94806 -1.46616 
4142 1 19.834 22.314 3.41525 -7.55487 -0.422664 -1.45846 -1.1378 
4143 1 19.4543 22.1604 8.85594 -7.1763 -0.37172 0.495617 -1.26327 
4201 1 24.7835 1.38001 -2.16841 -8.51608 -0.349635 -2.99592 0.484685 
4202 1 24.791 1.12593 3.20453 -8.67851 0.446379 -0.0549951 -0.216893 
4203 1 24.7751 1.04107 8.65423 -6.75788 -1.2196 -1.5483 0.524362 
4261 1 24.8536 6.45089 -1.96295 -8.38557 -0.320951 -0.318972 -1.45807 
4262 1 24.8348 6.47767 3.19448 -7.83778 -0.0905348 -0.263594 0.843212 
4263 1 24.8333 6.3038 8.35359 -7.82733 0.423778 0.20837 0.827636 
4321 1 24.8205 11.7148 -2.0643 -7.6402 0.734563 1.567 0.0320629 
4322 1 24.9812 11.7228 3.29635 -7.57656 -3.07484 1.09238 -0.11333 
4323 1 24.8199 11.7917 8.46766 -7.77494 0.779136 -1.97837 0.590197 
4381 1 24.9989 16.9789 -2.01771 -6.34763 -0.782927 -2.70934 1.30442 
4382 1 24.7991 17.085 3.04309 -7.62858 1.14879 -0.391192 0.661407 
4383 1 24.8648 16.8689 8.47752 -7.73998 -0.114218 -0.901763 -1.08618 
4441 1 24.9228 22.115 -2.10147 -7.38806 0.192252 0.282494 1.63165 
4442 1 25.0751 22.1771 3.31478 -8.39685 2.08713 -0.255247 -0.177675 
4443 1 24.7969 21.959 8.66567 -7.63738 -0.989732 -1.16809 -0.419037 
4501 1 3.91544 3.6161 0.860136 -7.78703 2.02166 -0.625178 -1.70396 
4502 1 3.56105 3.73068 5.93233 -8.2956 -0.170655 1.09375 -0.929494 
4561 1 3.6205 8.89915 0.690427 -7.84244 1.02733 0.397009 -0.590058 
4562 1 3.41512 9.26597 5.75437 -7.81186 2.05418 -0.801506 1.29149 
4621 1 3.76463 14.4453 0.399708 -7.57207 0.214064 -0.715289 0.869535 
4622 1 3.76646 14.2887 5.85971 -7.19648 -1.17853 1.21298 0.640584 
4681 1 3.91705 19.7072 0.512098 -8.08879 0.00567738 -2.96157 -0.669165 
4682 1 3.75613 19.6314 5.54216 -7.52722 -0.329474 -0.585127 -0.226909 
4741 1 4.03007 24.6327 0.500848 -7.54685 -2.30394 1.19133 2.14717 
4742 1 3.65902 24.7583 5.96353 -8.28173 -0.406499 0.358151 -0.633558 
4801 1 9.13249 3.97177 0.357384 -7.67655 -0.0938492 -0.673056 -0.252075 
4802 1 8.65858 3.88087 5.76667 -7.7237 0.982577 0.0957365 -0.198085 
4861 1 9.07467 9.24902 0.534126 -7.60969 0.528744 -1.67388 -1.20108 
4862 1 8.54088 9.13859 5.85348 -8.18424 1.11674 -0.71449 1.5904 
4921 1 8.91143 14.4022 0.484573 -7.32504 3.0333 0.876566 1.30525 
4922 1 8.90531 14.462 6.02227 -7.42686 0.475424 -1.51349 -2.23856 
4981 1 9.14536 19.8596 0.360363 -8.01252 -0.0579662 0.316616 0.597647 
4982 1 8.96039 19.373 5.69236 -7.78482 0.862611 -0.074039 -1.33015 
5041 1 8.80382 25.0414 0.51131 -7.88403 3.54181 -0.594634 1.06644 
5042 1 9.01619 24.6756 5.69445 -7.80856 0.886301 0.882794 0.115487 
5101 1 14.1816 3.41542 0.424589 -7.55426 0.774675 0.407714 -0.741341 
5102 1 14.193 3.75972 5.79992 -8.30605 -0.132831 1.14418 0.202569 
5161 1 14.3052 8.84523 0.520521 -8.18299 0.328654 0.063468 -0.12338 
5162 1 14.2427 9.04552 5.74075 -7.63176 -0.905751 1.2247 1.32852 
5221 1 14.4505 14.3325 0.645611 -7.63179 -0.296826 -0.550483 -0.950913 
5222 1 14.0866 14.1501 5.66847 -8.04567 1.15444 1.76096 1.68181 
5281 1 14.3638 19.4193 0.561054 -7.85584 -0.571186 -0.538956 1.24149 
5282 1 14.3354 19.3287 6.01495 -7.19745 0.868193 -1.4207 -1.07149 
5341 1 14.4521 24.5886 0.331229 -7.3565 -1.41685 -0.201083 0.751214 
5342 1 14.2691 24.5178 5.66065 -7.8919 1.0276 0.71673 0.13525 
5401 1 19.4067 3.95579 0.656863 -8.24539 1.00743 -1.03994 -0.598221 
5402 1 19.3912 3.97394 5.69963 -7.50047 -0.511344 -1.38119 1.56004 
5461 1 19.5143 9.22966 0.614129 -8.08251 0.339346 0.676883 -1.02122 
5462 1 19.6038 9.12746 5.87217 -7.61612 -1.16953 0.140691 -2.12289 
5521 1 19.7333 14.4646 0.321464 -7.1466 -0.228381 1.25315 -0.226109 
5522 1 19.5258 14.5184 5.53724 -8.6569 -1.42863 0.529807 0.989336 
5581 1 19.6405 19.7133 0.582948 -7.67334 0.7433 0.038971 -0.103461 
5582 1 19.6306 19.6997 5.90865 -7.4602 0.403141 -1.18382 -2.37987 
5641 1 19.5753 24.9922 0.635392 -7.94089 0.831912 0.410628 -0.656447 
5642 1 19.3954 24.852 5.70575 -7.38964 -0.581115 0.770051 1.22612 
5701 1 25.0683 3.89877 0.520014 -7.80863 -0.527232 1.06362 0.0622335 
5702 1 24.3572 3.77562 5.63905 -7.61694 1.26147 0.988071 -0.538176 
5761 1 24.6996 9.25563 0.799424 -7.48707 0.126742 -0.890442 -2.06841 
5762 1 24.7183 8.98416 5.82143 -7.67547 -0.504008 0.20894 -0.960492 
5821 1 24.8466 14.4064 0.518899 -8.00312 0.818897 0.861976 -1.46732 
5822 1 24.8445 14.2893 5.734 -8.23366 -0.457889 -0.742584 -1.03922 
5881 1 24.9526 19.8483 0.32723 -7.26848 1.71315 -0.291735 2.79888 
5882 1 24.9677 19.6581 5.86366 -8.41423 0.597592 0.121272 -0.0911068 
5941 1 24.8421 25.0459 0.551696 -8.05419 1.67569 0.615644 1.16612 
5942 1 24.475 24.9543 5.86318 -8.43467 -0.338315 -2.41154 -1.41742 
6001 1 3.37244 3.74933 -1.89338 -8.74283 0.243575 0.220496 -0.137223 
6002 1 3.43827 3.89544 3.31048 -7.89807 1.09103 0.074301 0.533287 
6003 1 3.88193 3.61786 8.42913 -8.17473 0.161488 -0.474737 1.35151 
6061 1 3.67234 9.18644 -2.00054 -8.18507 0.832643 -0.824047 -0.442298 
6062 1 3.64193 9.37029 3.22075 -7.13748 -0.61118 -0.740644 0.112184 
6063 1 3.66765 8.8002 8.42905 -8.01268 0.768277 1.88367 -0.277415 
6121 1 3.41701 14.44 -2.27038 -7.82177 0.602568 0.837895 0.198781 
6122 1 3.51553 14.4381 3.24164 -8.13325 1.66174 -0.159609 -2.18567 
6123 1 3.28127 14.0523 8.58734 -7.06315 2.32168 -0.564594 -0.223838 
6181 1 3.43872 19.5567 -2.12957 -7.85585 -0.436663 1.73571 -0.318552 
6182 1 3.62752 19.712 3.01345 -7.74243 -1.23534 -1.35988 0.147259 
6183 1 3.87445 19.0929 8.10831 -7.26631 -1.41814 0.421879 1.01221 
6241 1 3.71763 24.8201 -1.94039 -7.14545 -0.494684 1.47289 -0.168251 
6242 1 3.33887 24.7508 3.12235 -8.43068 2.14159 0.572711 -0.0264251 
6243 1 3.43691 24.4979 8.62732 -7.7907 1.36526 -0.209314 -0.73212 
6301 1 8.44645 3.99415 -2.3338 -7.25264 -0.133609 -0.22035 0.652573 
6302 1 8.45176 3.66017 2.98217 -7.94747 2.89111 1.23815 0.784516 
6303 1 9.01467 3.91726 8.4085 -6.88249 1.5304 -1.06525 -0.249171 
6361 1 8.93596 9.21881 -2.19379 -7.85866 -0.144313 -1.63344 0.374689 
6362 1 8.92503 8.92289 3.11275 -6.90036 -0.998666 0.911004 0.879784 
6363 1 8.95787 9.04265 8.61199 -8.04708 -0.55895 0.979146 -2.07991 
6421 1 8.71501 14.3852 -1.99845 -7.92475 0.348064 1.21138 -2.44294 
6422 1 8.77753 14.2978 3.22924 -8.01448 1.06742 -0.142529 0.672229 
6423 1 8.69224 14.1614 8.53956 -6.99479 -0.162444 2.16578 2.59337 
6481 1 8.62681 19.6619 -2.16919 -7.62688 -0.245291 0.080536 0.451576 
6482 1 8.73276 19.5538 2.92487 -8.03815 2.20905 0.133187 0.507373 
6483 1 8.83737 19.4585 8.20351 -7.94733 0.297817 0.106036 1.99661 
6541 1 8.87751 25.0174 -2.1022 -7.95875 2.16734 -0.206056 0.137388 
6542 1 8.58571 24.6989 3.20295 -7.4982 1.56298 0.566513 -1.02536 
6543 1 8.61338 24.9232 8.238 -7.54954 1.87148 0.108751 1.52437 
6601 1 13.8559 3.7831 -2.25625 -8.15885 1.00085 1.16647 0.119549 
6602 1 13.9901 3.94546 3.09873 -7.43853 1.14689 -1.208 0.11096 
6603 1 14.0834 3.67531 8.45245 -7.21349 0.399459 0.0608531 -0.720927 
6661 1 14.2352 8.92302 -2.09459 -8.23903 0.704097 0.454663 -0.868555 
6662 1 14.1576 9.05336 3.13292 -7.24134 0.0971433 0.536782 -0.674176 
6663 1 14.1822 8.81002 8.52288 -7.88364 -0.0179966 3.37642 -0.652527 
6721 1 14.138 14.3057 -2.01984 -8.47504 -3.04068 -0.315207 -0.277582 
6722 1 14.2123 14.2182 3.1978 -7.39177 -1.31764 0.312898 -0.971763 
6723 1 13.9184 14.511 8.3932 -8.64775 0.654577 -1.99368 0.841361 
6781 1 14.0576 19.5203 -1.94103 -8.26685 -0.331607 -0.859426 -1.21698 
6782 1 13.8545 19.3458 3.35152 -7.37238 0.0097171 0.107345 -0.58341 
6783 1 13.9889 19.5552 8.4739 -6.62144 2.80482 0.482486 1.60151 
6841 1 14.123 24.7919 -2.12133 -7.64307 -0.639611 1.34925 -1.95836 
6842 1 14.131 24.8985 2.89889 -7.87215 -0.231464 -0.175749 0.783381 
6843 1 13.932 24.6876 8.43204 -7.5993 2.41261 0.129066 -0.304242 
6901 1 19.2648 3.64101 -2.04015 -7.50292 1.08774 1.31678 -0.508548 
6902 1 19.4449 3.76356 3.257 -7.88883 -1.04222 -1.89058 -1.19503 
6903 1 19.4172 3.68519 8.42831 -8.17012 0.455235 -0.200255 0.184217 
6961 1 19.5289 9.01064 -2.11925 -7.51897 0.883118 0.739826 1.21701 
6962 1 19.5428 8.8915 3.16517 -8.05039 -0.428519 1.10004 0.735867 
6963 1 19.2838 8.93448 8.35558 -6.75701 1.05147 -1.59446 -0.410357 
7021 1 19.262 14.1611 -2.27534 -6.5831 1.32155 0.861838 0.47392 
7022 1 19.4017 14.4083 2.93473 -7.98452 -0.783786 -0.578925 0.85425 
7023 1 19.3828 14.1322 8.25974 -7.55821 -1.5563 -0.306153 -0.7163 
7081 1 19.3089 19.2882 -2.03589 -7.19684 0.588977 0.448809 0.834295 
7082 1 19.3076 19.7408 3.15385 -8.4093 -0.84021 -0.999767 0.578038 
7083 1 19.5275 19.5968 8.3554 -6.83235 -0.179484 -1.32107 0.113019 
7141 1 19.4155 24.7927 -2.05646 -7.66785 -1.05818 -0.606067 -0.219543 
7142 1 19.3815 24.7625 3.13848 -7.62193 -0.434216 0.918572 -0.0177559 
7143 1 19.3474 24.712 8.46592 -7.98397 0.101914 0.0633562 -0.755806 
7201 1 24.3504 3.78582 -1.96108 -7.24015 0.954741 0.393912 -0.719266 
7202 1 24.6248 3.84767 3.00022 -7.62424 0.0653278 -0.289483 1.20166 
7203 1 24.8961 3.68163 8.21791 -7.66374 -0.575088 0.634902 0.588282 
7261 1 24.9059 9.23711 -1.8746 -7.31729 -1.09007 -1.42617 -0.209883 
7262 1 24.8232 9.03224 3.23658 -7.77833 -1.29624 -0.0874424 1.65593 
7263 1 24.557 8.95127 8.38259 -7.60089 1.18061 0.738652 0.64267 
7321 1 24.3891 14.4358 -2.27986 -7.96447 1.43641 -1.30668 0.135999 
7322 1 24.8235 14.4737 3.01091 -7.45356 -1.67655 -0.490363 1.82111 
7323 1 24.5858 14.2646 8.40486 -7.50068 -1.28781 1.24421 0.13317 
7381 1 24.5481 19.295 -1.98429 -6.2314 -2.16062 2.41352 -1.15664 
7382 1 24.584 19.6379 3.00157 -8.21545 2.27955 0.177109 0.0943043 
7383 1 24.931 19.2867 8.61799 -8.13407 -0.0639141 2.02025 -1.22075 
7441 1 24.7498 24.8563 -1.95884 -8.47361 -0.61054 1.37544 -0.625888 
7442 1 24.5703 24.784 3.27016 -7.55425 -0.601759 0.478411 -0.0875983 
7443 1 24.6424 24.473 8.50038 -7.58652 0.963224 1.0946 -1.24339 
7501 1 3.32787 1.04946 0.570322 -8.18495 2.86052 -0.864772 -1.1063 
7502 1 3.7895 1.11512 5.83514 -7.88388 -2.30359 -0.570756 -0.979074 
7561 1 3.41955 6.15753 0.428488 -7.49634 -0.412679 0.924348 1.1852 
7562 1 3.56272 6.62201 5.96481 -8.13914 0.729822 -0.918311 -0.958086 
7621 1 3.73969 11.8153 0.797572 -7.32168 -1.80406 -0.937078 0.142652 
7622 1 3.74447 11.7817 5.88752 -7.2029 -0.817227 -0.858076 1.58925 
7681 1 3.27418 16.9489 0.370333 -7.50326 0.363286 2.16669 1.79623 
7682 1 3.69093 17.0429 5.82358 -7.63012 -0.385218 -0.253536 -1.98647 
7741 1 3.53116 22.0246 0.523808 -7.37432 -1.20829 1.78806 -0.526879 
7742 1 3.55301 22.1764 5.52858 -7.37628 0.497683 0.463151 1.80039 
7801 1 8.67798 1.28434 0.192301 -7.85466 -0.638194 0.277448 1.75784 
7802 1 8.84609 1.24969 5.58477 -7.00611 -2.88754 -2.34989 0.999357 
7861 1 8.61921 6.51327 0.455458 -8.0311 1.1262 0.313726 0.751987 
7862 1 8.86956 6.45077 5.71717 -7.66971 -2.22654 -1.04862 2.46281 
7921 1 8.87365 11.8403 0.693046 -6.5606 -0.06309 0.144355 -2.31999 
7922 1 8.92076 11.7755 5.66927 -7.98063 -1.55283 0.265493 -0.574053 
7981 1 8.50249 17.0587 0.616291 -7.60448 1.09496 1.04741 -0.899206 
7982 1 8.71692 16.8169 5.84396 -7.42981 0.242177 1.65952 -1.16448 
8041 1 8.6165 22.3963 0.427679 -8.0107 0.568096 -0.586499 -1.34016 
8042 1 8.9475 21.9769 5.53971 -7.98627 0.528198 1.66223 2.08259 
8101 1 13.8199 0.839309 0.358318 -6.77562 -0.718983 -0.231567 0.895277 
8102 1 13.9812 0.986858 5.82136 -8.12363 0.874116 -0.572622 -1.57888 
8161 1 14.1906 5.9454 0.783617 -7.64734 -1.44911 2.23531 -2.93101 
8162 1 14.092 6.59493 5.92675 -7.45331 0.403032 -1.67116 0.712047 
8221 1 14.077 11.6556 0.673594 -8.27624 0.076333 -1.38245 -0.530009 
8222 1 14.1835 11.6979 5.79798 -7.5485 -2.90708 0.584887 2.69269 
8281 1 13.8394 16.7954 1.03644 -8.02913 -1.73147 1.02751 -2.31039 
8282 1 13.9807 16.7634 5.7934 -8.28119 -0.1188 0.068891 1.2199 
8341 1 13.9598 21.9429 0.539844 -7.79766 -0.0790454 -0.273834 -0.285209 
8342 1 13.9539 21.7575 5.97858 -7.42613 0.631455 1.17299 -0.464633 
8401 1 19.2106 1.26627 0.585621 -8.18768 0.233326 -0.323828 -0.669605 
8402 1 19.2602 1.17119 5.72572 -8.40105 0.963622 0.41908 1.71558 
8461 1 19.4226 6.6321 0.614228 -7.52917 -0.34341 -0.770686 -1.18907 
8462 1 19.2989 6.48422 5.71509 -7.51015 0.111081 1.28311 -0.411418 
8521 1 19.313 12.0043 0.563647 -7.28276 -0.505446 -1.90821 0.0145598 
8522 1 19.5072 11.8893 5.85531 -8.22663 -1.00292 -0.199769 -0.18804 
8581 1 19.1067 17.1092 0.381882 -7.32159 -0.14976 0.241126 0.765325 
8582 1 19.2067 17.1273 5.60526 -7.77712 1.4183 0.287159 1.06589 
8641 1 19.2952 22.4142 0.657916 -7.82606 1.25538 -1.04771 -0.0946956 
8642 1 19.1439 22.1976 6.05529 -7.00196 0.289307 0.965624 0.788758 
8701 1 24.5744 1.49058 0.485472 -8.59224 0.922608 -2.60332 -0.0350786 
8702 1 24.5637 1.19488 5.95558 -7.26075 -2.10613 0.465701 -1.23457 
8761 1 24.5527 6.54317 0.627836 -7.95885 0.88488 0.751213 0.803721 
8762 1 24.4203 6.45281 5.82278 -8.04981 1.86878 -0.975144 -1.31303 
8821 1 24.6699 11.8339 0.57454 -7.68056 -0.240956 0.0263215 -0.0830923 
8822 1 24.8274 11.6138 5.85489 -7.90376 -1.67839 0.537443 -0.613321 
8881 1 24.5593 17.1932 0.509413 -8.23463 0.301599 -0.177134 0.969988 
8882 1 24.6164 17.0071 5.66906 -8.09409 1.15792 0.225417 0.990474 
8941 1 24.5639 22.2235 0.654408 -7.81557 0.233267 2.34244 0.281176 
8942 1 24.5275 22.2369 5.96545 -8.5832 1.48468 0.0828499 -0.189814 
9001 1 1.35415 3.61163 0.457399 -7.30312 -0.203459 1.42555 -1.95751 
9002 1 0.793197 3.99142 5.76784 -8.06765 0.241736 -0.840051 0.107794 
9061 1 1.04635 9.0089 0.759185 -7.47459 0.125634 1.0733 -1.89866 
9062 1 1.02162 9.04156 5.88459 -7.24782 -1.51757 0.424386 -1.1428 
9121 1 1.06071 14.791 0.386766 -7.20729 0.125791 -1.41913 0.0780832 
9122 1 1.08559 14.4694 5.64803 -8.24385 0.218987 -0.891261 0.232775 
9181 1 1.32527 19.6509 0.403142 -7.99541 -0.341231 1.61422 1.67517 
9182 1 1.2498 19.5743 5.73197 -7.92581 -1.50927 0.719128 -0.242102 
9241 1 1.30627 24.8377 0.47999 -7.61764 -0.0992451 0.82593 -0.600397 
9242 1 0.955176 24.7104 5.72756 -8.30857 -0.372307 1.47712 0.756883 
9301 1 6.62529 3.37752 0.107233 -7.9216 -0.99122 0.523159 0.834292 
9302 1 6.12322 3.6631 5.63167 -8.08839 -0.301138 1.10217 0.586523 
9361 1 6.36844 8.98432 0.698764 -8.0257 -1.90224 1.09816 -0.561002 
9362 1 5.98368 8.9552 6.13476 -8.08709 -0.162208 0.329228 -0.769435 
9421 1 6.46432 14.3514 0.688435 -7.4407 -1.78593 -0.120437 0.19918 
9422 1 6.23399 14.3056 5.8044 -7.6846 1.44924 -0.371673 0.646891 
9481 1 6.52362 19.405 0.58582 -7.65732 0.0618007 1.58644 -1.54387 
9482 1 6.4028 19.4714 5.59256 -8.20103 -1.41145 -1.86396 0.887963 
9541 1 6.45272 24.6084 0.497593 -6.6463 0.338544 1.31037 0.387355 
9542 1 6.26333 24.825 5.6182 -7.72536 0.461848 -1.07829 -0.195103 
9601 1 11.7261 3.85203 0.865962 -7.43425 -0.203902 0.274307 -2.03616 
9602 1 11.566 3.96975 5.93208 -7.4559 -1.00531 -0.383171 -0.0263786 
9661 1 11.7944 9.12769 0.731845 -7.90895 -2.15887 1.48585 -0.798851 
9662 1 11.2958 9.12812 5.96934 -7.6119 0.553937 -0.689765 0.571926 
9721 1 11.7818 14.5046 0.728265 -8.71018 -1.73607 -0.185237 -0.83167 
9722 1 11.5962 14.2308 6.08733 -7.53425 -0.396792 0.626951 -2.04971 
9781 1 11.7481 19.6564 0.756093 -8.25954 -0.252851 -0.151617 -2.20071 
9782 1 11.631 19.4177 5.7096 -7.75768 0.093062 2.0341 0.353497 
9841 1 11.6471 24.7292 0.218183 -7.62255 -0.798151 2.17051 0.88836 
9842 1 11.8005 24.726 5.77513 -7.55956 -1.96647 1.96512 -1.17495 
9901 1 16.8961 3.87442 0.412292 -7.37239 -1.13944 -0.627071 2.53354 
9902 1 16.8176 3.93382 5.57243 -7.84076 0.287189 0.15554 1.50847 
9961 1 16.9441 9.146 0.590284 -7.9681 -1.68628 -0.378376 -0.397862 
9962 1 16.9452 9.049 5.73455 -7.17584 0.122396 1.28763 -0.511556 
10021 1 17.1926 14.5682 0.757335 -7.47427 -1.08081 -1.04025 0.648059 
10022 1 16.794 14.2498 6.09869 -7.86224 0.239531 0.866859 -1.25718 
10081 1 16.9567 19.5565 0.745847 -7.95409 0.140143 -1.319 1.01082 
10082 1 16.9941 19.7744 6.07351 -7.96276 -1.25386 -0.815152 -0.119122 
10141 1 16.9379 24.568 0.447426 -7.99987 0.201942 1.26136 0.508031 
10142 1 16.8692 24.8883 5.78812 -7.75241 -0.157644 0.80988 -0.107277 
10201 1 22.119 3.55056 0.536788 -7.99236 0.332015 1.23843 0.0780239 
10202 1 21.8262 3.56279 5.70244 -7.74983 0.740818 0.263326 1.07647 
10261 1 22.1668 9.1266 0.715755 -7.65033 -0.695774 -0.82994 -1.06386 
10262 1 22.0317 8.75914 6.06626 -7.91626 0.738326 0.0600215 -1.45218 
10321 1 22.3234 14.2133 0.458593 -7.19574 -0.0779204 0.829328 0.612318 
10322 1 22.273 14.2092 5.98575 -9.08531 -1.99468 -0.153845 -1.94947 
10381 1 22.4012 19.4155 0.465518 -7.56243 -0.918376 -0.59691 0.16714 
10382 1 22.37 19.5251 5.75141 -8.17392 -0.188948 -0.00321728 0.468726 
10441 1 22.3703 24.7045 0.566402 -8.35094 -2.10933 -0.126495 -0.347401 
10442 1 21.8474 24.5986 5.74233 -7.04166 2.27971 1.35506 1.08738 
10501 1 0.995575 0.989004 -1.98651 -8.58731 1.14762 0.489542 1.66734 
10502 1 1.3142 1.2754 3.25889 -7.70395 -1.31681 -0.682933 0.372402 
10503 1 0.913156 0.978016 8.64111 -6.63918 0.367183 1.67277 -1.29369 
10561 1 1.10567 6.30259 -2.08847 -7.97036 -0.0336722 0.209106 -0.590484 
10562 1 1.1121 6.24064 3.2668 -7.80812 -0.734154 0.966719 0.363435 
10563 1 1.05463 6.50496 8.48537 -7.86188 0.927226 -0.676084 1.6849 
10621 1 1.11934 11.9033 -2.00218 -7.68068 -0.813105 -0.555274 -0.534295 
10622 1 0.999173 11.5171 3.38015 -7.89791 2.65974 1.54721 -0.438368 
10623 1 1.26992 11.9165 8.57358 -7.79166 -1.03393 -1.14053 0.573663 