ITEM: TIMESTEP
0
ITEM: NUMBER OF ATOMS
6000
ITEM: BOX BOUNDS pp pp pp
2.1087699508855628e-01 2.7130123004911312e+01
2.2848588246545987e-01 2.7112514117534126e+01
8.6813678461005850e-01 1.0849586321539050e+02
ITEM: ATOMS id type x y z c_peratom fx fy fz 
122 3 5.66667 5.60588 6.03662 -29.07 0.321439 0.857595 1.11259 
601 3 5.48925 2.85306 3.33117 -28.6588 0.994665 -0.971274 1.08468 
602 2 5.5619 2.95089 8.99579 -25.7187 2.14637 -0.596754 -2.42871 
1021 3 2.79832 5.53581 3.46274 -27.9738 2.13765 -0.829789 1.1369 
1022 2 3.05561 5.65029 8.94869 -26.2219 -0.549447 1.4202 -0.533093 
1502 2 2.99809 3.04477 6.25949 -24.2982 0.157135 -0.89159 -0.263024 
2001 1 1.75647 1.63014 2.31206 -7.47077 0.818904 -2.105 0.220735 
2002 1 1.46846 1.2357 8.09254 -7.07992 1.45324 0.744399 -1.37136 
2501 1 4.45461 4.025 4.87429 -8.17063 -0.203059 1.09333 0.0248994 
3001 1 4.20767 4.18956 2.14379 -8.22172 0.424627 -0.325855 0.94511 
3002 1 4.66495 4.52231 7.69063 -7.83972 -1.85498 -0.208697 -2.33859 
3501 1 1.22868 1.75027 5.332 -7.40478 2.88168 3.24924 -0.496635 
4001 1 4.16389 1.45402 4.70127 -7.68159 -2.87659 0.487925 -1.96067 
4501 1 1.63826 4.05671 2.23647 -7.63075 -1.02424 0.935964 0.375766 
4502 1 1.63725 4.21787 7.66781 -7.88844 0.927727 -2.0955 -0.188855 
5001 1 1.66454 4.57533 5.04755 -8.61909 0.641959 -1.35498 -1.62871 
5501 1 4.46613 1.33157 1.83728 -7.9031 -0.661013 1.90237 2.15388 
5502 1 4.37464 1.61625 7.40088 -7.59292 -1.61119 1.34197 0.131011 
4601 1 6.90895 4.25888 2.29646 -8.05074 -0.282502 -0.896528 0.00102342 
3601 1 6.6415 1.96321 4.88791 -6.50947 0.551955 1.16642 -1.10996 
4021 1 4.03702 6.65101 4.81031 -7.72744 -0.122965 -0.443218 -1.46324 
2022 1 1.48268 6.74893 7.55896 -5.83616 2.41139 -0.337482 0.474983 
102 2 5.45747 0.286284 6.00527 -26.4447 3.34629 -0.0732451 1.34541 
21 2 0.318246 5.55063 0.923412 -24.6706 0.997807 -1.39221 -0.217915 
2021 1 1.66879 6.55621 2.41106 -7.84754 -1.67162 1.85533 -1.37262 
501 3 0.297083 3.02072 3.60124 -29.063 -0.15974 -1.873 0.286222 
121 2 5.58819 5.49628 0.92446 -24.7974 -0.700397 1.05525 -0.0630341 
4602 1 7.28771 4.00935 7.52212 -6.89113 -0.571432 1.28172 -0.199723 
1102 3 8.17551 0.228939 8.83521 -28.8732 -1.05802 0.0214384 -2.83824 
2102 1 7.10981 1.51623 7.34473 -6.30318 -0.104739 -1.03869 2.13047 
5101 1 7.29419 4.5794 4.79118 -7.63198 -0.337221 -0.0558452 1.17878 
2101 1 7.11507 1.42098 2.2656 -7.66325 -0.656013 1.0601 0.21543 
222 2 11.191 5.47941 5.99324 -24.9075 1.06101 -0.0198517 2.50663 
701 3 10.8416 2.71369 3.43665 -28.7683 1.4893 0.454488 0.463623 
702 2 11.0008 2.81901 8.88329 -24.1695 0.489004 1.41018 -1.7264 
1121 3 8.38141 5.61663 3.36916 -28.5897 -0.515448 -1.42179 0.0751887 
1122 2 8.45831 5.46288 8.88994 -25.3038 -2.37759 1.15591 -1.10213 
1602 3 8.26283 3.05155 6.01221 -29.5974 -0.345034 -2.07204 0.352471 
2201 1 12.306 1.3449 2.15021 -7.98039 -0.0890351 -0.0356514 0.379645 
2202 1 12.6072 1.43441 7.46443 -7.96138 0.13179 2.88959 0.659041 
2601 1 9.9854 4.32161 4.75523 -8.10911 -1.04763 -3.16581 -0.892211 
3101 1 9.585 3.8349 2.1681 -7.66775 -0.921892 1.50185 0.742466 
3102 1 9.85692 4.44959 7.55609 -7.70766 0.8355 -0.930216 -1.17722 
3701 1 12.0621 1.52831 4.92267 -7.54137 -0.739758 -0.321115 -1.05682 
4101 1 9.35653 1.48707 4.75164 -7.62054 0.60748 1.07643 -0.41461 
4701 1 12.1328 4.06522 2.28668 -7.30266 0.0106805 0.75815 -0.0594528 
4702 1 12.5136 4.24392 7.63346 -7.36562 -1.4721 -0.96613 -0.0211998 
5201 1 12.8445 4.0359 4.9463 -6.86008 -2.23635 1.16938 -0.302397 
5601 1 9.6559 1.27398 2.20563 -8.37421 0.857186 0.382084 -1.0881 
5602 1 9.79848 1.69422 7.30405 -7.97399 0.959146 0.670227 1.62717 
2122 1 7.05827 6.75699 7.60499 -7.55889 1.36441 -0.490554 -0.398863 
4121 1 9.49607 6.75842 4.57862 -8.09372 0.781961 1.42914 1.30459 
2222 1 12.5028 6.92261 7.24679 -8.19743 0.208162 0.289833 -0.360692 
2121 1 7.08249 6.93163 2.28699 -8.2781 -0.249046 -0.939834 -1.2913 
3721 1 12.3126 6.63017 4.51127 -8.25428 -2.96684 3.65669 1.50969 
1601 3 8.21047 2.71891 0.981462 -28.743 0.0667478 0.147846 0.121317 
2221 1 12.4063 6.77232 1.9823 -8.7069 -1.1688 1.38507 -0.254753 
5621 1 9.6736 6.76092 2.04787 -8.51545 1.16173 -1.65196 -1.50694 
202 3 11.0143 0.320179 6.43199 -28.6423 -0.549213 -0.641692 -2.43178 
5521 1 4.28087 7.00705 1.93283 -7.90876 0.752816 -0.616194 3.39824 
1542 2 2.91886 13.4679 6.21941 -24.1635 1.97714 0.964614 3.23158 
3521 1 1.29495 7.30359 4.90209 -7.00034 0.0675552 -2.37375 -0.15227 
5522 1 4.37031 7.25039 7.42073 -6.51829 -0.312424 -2.90985 0.494302 
3621 1 6.7519 7.13597 5.03632 -7.20347 0.531229 -0.940452 -0.695245 
142 2 5.83065 10.8807 6.29377 -26.1607 -1.68259 -1.91349 -0.272803 
621 2 5.63798 8.19344 3.39478 -25.3721 0.35072 0.528362 1.07354 
622 2 5.95444 8.2447 8.85544 -26.1574 -3.66601 -0.379327 0.934032 
1041 3 2.87564 10.9004 3.53311 -28.0789 -0.507324 -1.22242 -0.30417 
1042 3 3.03644 10.6593 9.249 -29.6502 1.81362 1.70258 -3.90316 
1522 2 2.90863 8.30678 6.09782 -26.6286 0.540406 -1.13652 2.51882 
2041 1 1.52278 11.9394 2.41796 -8.43469 0.401438 1.61503 -0.231704 
2042 1 1.50317 12.092 7.7381 -6.9839 1.36867 0.292741 -0.664374 
2521 1 4.78952 9.24563 5.12279 -7.10785 -0.700522 1.03695 -1.08366 
3021 1 4.08258 9.63665 2.43 -8.00348 -0.324387 -0.358118 -0.276261 
3022 1 4.35774 9.67782 7.67916 -6.28432 -0.343881 1.70002 0.676085 
3541 1 1.36523 12.674 5.15463 -7.46444 -0.75057 -2.04041 -1.92013 
4041 1 3.98329 11.9005 4.85243 -8.26226 1.27958 1.92486 0.4982 
4521 1 1.37421 9.14774 2.13896 -7.32403 -0.589795 0.560474 0.0807616 
4522 1 1.59007 9.35676 7.77208 -7.07393 1.09468 1.63999 -0.222497 
5021 1 1.89265 9.70516 4.79782 -7.45368 -0.472179 2.23781 0.213066 
5541 1 4.17487 12.2044 2.15529 -8.46203 -1.3251 0.574371 -0.307124 
5542 1 4.55403 12.3616 7.56226 -6.78261 -2.16717 2.19682 -1.67348 
2141 1 6.80249 12.114 2.3375 -7.15111 1.79293 -0.777712 -2.40556 
4621 1 6.7321 9.53302 1.94534 -7.29006 0.415017 -0.508593 0.283128 
3641 1 6.91559 12.2886 4.92745 -7.3624 -0.852257 0.71343 0.446631 
522 2 0.221523 8.42493 9.21678 -25.4178 1.66443 -0.97869 -2.90588 
641 2 5.46157 13.4589 3.6028 -25.1092 2.69198 0.341788 -1.57849 
642 3 5.87481 13.6611 8.8868 -29.195 -1.50245 -1.98574 -0.784934 
1521 3 2.9577 8.23564 0.943555 -29.55 0.0936242 -0.914862 -0.61964 
741 3 10.9428 13.6439 3.21713 -27.7248 1.78162 -1.16541 0.866821 
5622 1 9.83351 7.17007 7.29919 -7.92622 0.462138 -1.22161 -0.743023 
2142 1 7.01176 12.0977 7.54165 -6.79326 2.24519 2.35106 0.888208 
5121 1 7.6531 9.60382 4.75514 -6.40671 -3.31632 -0.475577 1.0309 
4622 1 7.16871 9.49904 7.61226 -7.76025 1.91854 -0.541974 -1.16997 
242 2 10.942 10.8955 6.08426 -24.9492 3.22326 2.04247 -2.26164 
721 3 10.8528 7.97882 3.30318 -27.9076 0.468618 1.02626 0.626354 
722 2 11.2929 8.1868 8.64459 -25.0543 -0.56849 0.165882 3.13863 
1141 2 8.65707 10.7305 3.26436 -24.3012 -4.73157 2.40761 1.21924 
1142 2 8.53406 10.9034 8.89608 -25.3709 -1.49376 0.970771 -0.280537 
1622 3 8.57543 8.05756 6.17766 -28.7653 -3.02809 2.13962 -2.07724 
2241 1 12.5497 12.304 1.79308 -7.6197 -0.989234 -0.279353 0.528398 
2242 1 12.3494 12.283 7.3678 -7.69893 -2.62601 -0.514353 0.501016 
2621 1 9.96978 9.39678 4.79464 -7.42462 2.72919 -1.53236 -0.351325 
3121 1 9.38376 9.25883 2.1421 -8.14658 2.13533 -2.21305 -2.29916 
3122 1 9.98967 9.84979 7.55614 -7.70225 -1.56456 -3.77998 2.06648 
3741 1 12.5458 12.1577 4.56264 -7.78661 -1.86873 -0.122962 -0.197499 
4141 1 9.59784 12.0389 4.56742 -8.36338 2.53086 2.91082 -0.104593 
4721 1 11.8694 9.6984 2.20236 -7.98522 1.11253 -1.53334 1.71968 
4722 1 12.5934 9.6619 7.74329 -7.65456 0.0455641 -0.797684 -1.9125 
5221 1 12.6048 9.50596 5.08643 -7.54493 -2.35099 0.676176 -2.11355 
5641 1 9.94345 12.0435 1.60179 -8.64267 -2.11475 0.408644 2.49634 
5642 1 9.52778 12.2484 7.22752 -7.75433 1.23149 2.32558 1.43168 
1642 3 8.38011 13.487 5.94672 -28.7252 -0.547788 0.0564258 0.461969 
1742 2 13.6528 13.4255 6.17706 -25.1455 1.30698 0.313506 -0.450926 
742 3 11.0196 13.5864 9.00954 -28.1296 0.0331155 -0.0583556 -0.969227 
1722 3 13.6365 8.39826 6.13109 -28.7141 2.30519 -1.27483 0.330274 
1242 3 13.5234 10.8697 9.02154 -29.14 1.81315 1.71405 -0.51314 
1721 3 13.6613 8.07564 0.899813 -28.6006 0.160942 -0.5237 -2.13496 
2024 1 1.49242 6.87538 18.4441 -6.77329 2.82442 -1.12122 -1.08549 
23 2 0.341085 5.70662 11.6221 -26.0861 2.09278 -1.06758 3.58312 
503 3 0.306955 2.67991 14.5211 -28.9979 1.2869 3.40677 -1.16075 
3004 1 4.46626 4.26895 18.4305 -7.99541 -0.704426 -1.95746 -1.47312 
123 2 5.70596 5.63549 11.7424 -25.307 1.19158 -2.3355 -2.07248 
124 3 5.66353 5.65681 17.188 -29.07 -0.553598 -1.15363 -1.71709 
603 2 5.82521 2.64715 14.143 -25.661 -2.8702 0.662965 1.2717 
1023 2 3.05761 5.6191 14.3607 -25.927 -2.01582 -1.14438 -1.59908 
1503 2 3.00988 2.81073 11.7165 -26.1717 0.0465551 1.17788 -0.422451 
1504 3 3.00141 2.96799 16.9523 -29.2487 -0.395555 0.0549881 0.53702 
2003 1 1.72502 1.45057 13.5274 -7.75893 0.610178 0.261335 0.680633 
2502 1 4.26614 4.23297 10.2038 -7.22317 0.552417 0.341697 2.32502 
2503 1 4.20085 4.24558 15.531 -6.90095 -0.72001 -0.56471 3.56848 
3003 1 4.38197 3.99569 13.058 -6.93896 0.674447 1.53246 -1.67015 
3502 1 1.76 1.37932 10.6975 -7.19386 -0.385023 0.236772 -0.0810436 
3503 1 1.34596 2.05286 16.2426 -7.31521 0.176468 -2.57741 -1.70355 
4002 1 4.19802 1.57266 10.003 -7.16242 0.357233 -1.16375 0.2599 
4003 1 4.20339 1.5679 15.6359 -8.16864 -0.276569 -1.50479 -1.93153 
4503 1 1.88457 4.3058 12.9141 -6.1435 -0.17397 -0.765787 1.6167 
5002 1 1.6983 4.39582 10.4518 -6.53656 -0.117857 -1.41845 -2.57442 
5003 1 1.35667 4.43044 15.6722 -6.74449 1.21675 0.111889 -0.931199 
5503 1 4.44128 1.3654 12.6176 -7.88598 0.766199 -0.617183 1.80498 
2104 1 6.70551 1.49934 18.273 -8.35848 0.766246 0.0582287 -0.0349176 
2023 1 1.57847 6.94073 12.9157 -7.37289 0.785894 1.21631 1.11603 
3603 1 6.86135 1.30346 15.5961 -7.55891 0.769882 -0.22985 0.55187 
3602 1 6.8378 1.58944 10.2889 -8.09736 -0.165676 -0.426715 0.0402144 
5103 1 6.8202 3.95479 15.5136 -6.84517 2.16956 1.0311 2.83032 
4504 1 1.66537 4.13117 18.2559 -7.34444 0.999565 -0.302355 1.42763 
5504 1 3.93913 1.47871 18.1379 -6.99571 1.71529 1.4348 1.55429 
5524 1 4.17158 6.6933 18.2411 -7.41025 0.507448 0.935132 0.534261 
4023 1 4.43703 6.91615 15.4051 -7.57004 0.514294 1.09125 0.425723 
2004 1 1.49159 1.2521 18.6175 -6.73197 -0.709042 0.197175 2.21189 
4704 1 12.2277 4.30624 18.2518 -7.71121 1.69493 0.690508 0.741348 
4604 1 7.04044 4.25246 18.5188 -7.48371 -1.15494 -2.52104 -3.95458 
2103 1 7.20769 1.39508 13.0229 -7.86169 -0.145082 0.213916 -2.5198 
3623 1 7.00446 6.56316 15.995 -7.33697 1.81748 1.47954 -1.72034 
2204 1 12.3189 1.59255 18.3912 -7.64043 0.566367 -0.871242 -0.543141 
4603 1 6.95111 4.05919 12.9834 -7.45378 2.03935 1.88243 -2.80985 
5102 1 7.04219 4.15863 10.2007 -7.47196 0.111035 0.195398 1.44074 
2123 1 7.31502 6.82687 13.0556 -7.56598 -2.29548 -0.556321 0.243713 
5202 1 12.4604 4.05651 10.2943 -7.85744 -0.745465 1.25649 0.27878 
3104 1 9.65247 4.04086 18.3116 -7.73648 -0.228092 0.69176 0.161373 
5604 1 9.64696 1.35559 17.8098 -7.32105 -1.12269 0.826791 1.27306 
223 2 10.9986 5.3692 11.5976 -24.1896 1.45022 1.07899 0.500803 
224 3 11.1333 5.6897 17.0925 -28.0149 0.450128 -2.62655 -0.427002 
703 3 11.1158 2.70138 14.3278 -30.3355 -1.62591 0.390141 -0.597265 
1123 3 8.47567 5.57718 14.1179 -28.3754 -0.432081 -1.64208 1.76212 
1603 3 8.37808 2.81856 11.505 -28.3217 -0.727689 -0.660804 1.66336 
1604 2 8.37098 2.82361 16.7873 -25.5049 -0.607587 -0.958185 -0.7586 
2203 1 12.5893 1.51762 13.0068 -7.23374 0.00125483 -1.14875 -0.330384 
2602 1 9.64908 4.18562 10.1875 -8.90602 1.3634 -2.0637 1.83622 
2603 1 9.70316 3.95959 15.5227 -7.21382 -0.594419 1.4918 0.218444 
3103 1 9.61968 4.02924 12.93 -7.77312 0.724621 3.7117 -1.57873 
3702 1 12.2435 1.50524 10.1555 -8.41187 -0.436907 -0.218972 0.176978 
3703 1 12.1106 1.56192 15.7608 -7.53361 1.88892 0.908637 -0.622257 
4102 1 9.29421 1.13346 10.0689 -8.22427 3.0859 3.87099 1.39923 
4103 1 9.50164 1.27113 15.1812 -5.87239 -0.4356 0.327329 1.94894 
4703 1 12.635 3.96504 12.9799 -7.6054 -1.3044 1.80427 -0.0777414 
5203 1 12.2789 4.09921 15.57 -7.11041 0.961924 1.50101 0.510018 
5603 1 9.95496 1.65077 12.8832 -6.3787 0.290136 -1.89301 -4.65379 
5624 1 9.97831 6.9217 18.1936 -7.80304 -2.32796 -0.714664 0.705146 
2223 1 12.1784 6.44346 13.3097 -7.11839 -1.18608 -1.56856 -1.94213 
3722 1 12.6501 6.80488 10.0449 -7.59342 -1.48966 -0.00965713 0.762752 
3622 1 7.11376 6.80102 10.3208 -7.67025 1.54674 1.23353 0.299944 
2124 1 6.95168 6.79059 18.4934 -7.70912 0.399735 2.20565 0.111931 
4123 1 9.79429 6.66651 15.6474 -8.62194 0.830972 0.513056 -0.914759 
3723 1 12.8341 6.88102 15.6274 -8.59322 -1.01399 -0.362837 2.74797 
5022 1 1.90123 9.8558 10.5146 -7.85044 -3.44566 -2.837 0.651009 
3643 1 6.93258 12.4007 15.8226 -7.30575 -0.763903 -0.509702 0.0488152 
523 2 0.287517 8.40665 14.2343 -24.9809 -0.123616 -2.81276 0.0852354 
43 3 0.358802 10.8485 11.6721 -29.0529 -1.25927 1.61603 0.539078 
5523 1 4.51127 7.04655 12.7084 -8.12941 -1.35013 0.683175 3.57236 
3523 1 1.81458 7.02261 15.5977 -7.25304 0.0109139 0.56486 0.274566 
4022 1 4.54261 6.99154 10.2251 -6.40681 0.538464 -1.76906 -1.30601 
5123 1 6.88153 9.52679 15.668 -7.3365 0.97058 -0.759776 -0.106566 
5544 1 4.12722 12.0636 18.069 -8.20906 0.729451 1.01979 1.81055 
3522 1 2.0608 7.1134 10.3701 -7.28821 -3.02496 0.559283 -1.25243 
3024 1 4.39167 9.31909 18.2723 -7.07007 -1.42933 1.15467 0.78002 
2044 1 1.42609 12.3909 18.2188 -7.82773 -0.115605 -0.759983 2.10456 
143 2 5.6461 10.9791 11.5833 -25.6095 3.2828 -1.30977 1.73948 
144 2 5.73941 10.9355 17.0651 -25.3546 -0.720577 -1.13708 -1.71481 
623 3 5.5569 8.39273 14.2881 -28.5005 1.76662 0.0153381 0.318193 
1043 2 2.994 11.0558 14.2376 -25.1922 -0.520812 -0.810636 -0.149685 
1523 3 3.15009 8.27406 11.6087 -29.3483 0.167934 -0.0167128 0.306542 
1524 3 2.74341 8.39143 16.7038 -28.7782 2.08197 -1.00389 3.30182 
2043 1 1.78165 12.3172 12.7929 -7.44443 0.210921 -1.74298 0.827451 
2522 1 4.41344 9.43648 10.3866 -6.79307 0.616692 -0.239857 -0.0920989 
2523 1 4.27992 9.54073 15.7583 -7.50322 -0.648645 1.08717 -2.07269 
3023 1 4.39648 9.70802 12.9672 -8.23692 -0.0305333 -0.280592 1.3483 
3542 1 1.90819 12.2558 10.1525 -6.97551 -1.45391 2.60358 1.29614 
3543 1 1.49911 12.2292 15.5457 -7.54208 -0.34449 1.13303 0.00710428 
4042 1 4.52814 11.8837 10.1212 -6.55509 -2.3306 3.34731 -0.639493 
4043 1 4.26972 12.4032 15.351 -7.61341 -0.689004 -0.222236 2.9452 
4523 1 1.71958 9.52438 13.0124 -7.93563 -0.23792 1.08984 -0.695686 
5023 1 1.62043 9.65936 15.5649 -8.02529 -0.828194 0.225145 0.878581 
5543 1 4.52214 12.4111 12.8688 -7.41065 -0.331601 -0.898041 -1.1548 
4524 1 1.54924 9.61885 18.38 -7.58473 -0.56667 0.0481543 -2.35126 
1543 2 2.91775 13.6481 11.6069 -25.2469 1.22855 1.20881 -0.00652924 
743 2 10.9505 13.3973 14.4013 -23.6654 -1.95617 3.19702 -1.89595 
4724 1 12.4014 9.88094 18.7076 -7.57578 -0.28674 -2.1466 -1.86679 
2144 1 7.25522 12.3056 18.6689 -7.90477 -1.88971 -0.123575 -1.45053 
2244 1 12.4929 12.4166 17.8564 -7.15355 0.636568 -0.544353 -0.748559 
3743 1 12.291 12.0849 15.2741 -8.35183 0.337875 0.0859014 1.03488 
5223 1 12.4326 9.51133 15.5742 -8.31482 -0.333617 -0.969224 3.24141 
2224 1 12.4337 7.0412 18.5411 -7.88009 2.11825 0.179289 -0.820138 
5122 1 7.10921 9.78652 10.3152 -7.68557 0.971946 -2.15501 -0.0225925 
1644 2 8.36537 13.5701 17.0563 -24.8133 -2.65785 -1.44259 0.9608 
4122 1 9.83561 6.95526 9.89753 -7.92981 0.185933 -0.544332 1.89938 
4723 1 12.5748 8.9556 13.1306 -6.73152 0.519888 1.03301 -1.19637 
2143 1 7.36726 12.035 12.9819 -7.34901 0.1369 0.907872 -1.01577 
3642 1 6.98724 12.356 10.1025 -7.50054 2.051 0.572546 1.35837 
5623 1 9.75467 7.01579 12.8383 -7.57396 1.10773 -3.38652 0.0337436 
1643 2 8.33902 13.449 11.5028 -24.4679 -2.04114 -0.790588 2.14456 
3742 1 12.4932 12.464 9.95533 -7.84148 -0.463563 -1.067 0.688954 
2243 1 12.7441 11.6647 12.468 -7.6222 0.222693 0.348977 -0.678325 
5644 1 10.019 12.0415 18.4913 -7.34712 -1.78742 1.67395 0.182574 
4143 1 9.52314 12.1791 15.6376 -8.58579 1.43619 0.0531422 1.03656 
4624 1 7.00312 9.69146 18.3212 -7.24593 0.329686 -1.09599 1.95021 
4142 1 9.86887 12.2048 10.3471 -8.53308 -0.409647 0.765229 -1.19777 
3123 1 9.89615 9.50662 12.8389 -6.18148 0.0861852 -0.537054 0.59913 
1143 3 8.66075 10.8845 14.219 -29.2639 -2.02517 -2.32325 -0.599086 
2623 1 9.69786 9.43225 15.5444 -8.05381 0.636335 -0.394986 0.833241 
243 3 11.0816 10.9081 11.5729 -29.1775 0.811082 -2.7221 -0.647187 
5643 1 10.1899 11.8295 13.0468 -7.64787 -1.26343 3.51524 0.790793 
723 3 11.2559 7.92169 14.4667 -28.869 -0.842143 1.83059 -2.72442 
5222 1 12.3825 9.6062 10.2367 -7.72384 1.37095 -0.186694 1.67547 
2622 1 9.87712 9.69509 10.2947 -7.24477 -1.28344 -1.12911 -1.52318 
1623 2 8.55902 8.25511 11.4829 -25.7327 -0.709931 1.05833 1.51776 
4623 1 7.25814 9.48893 13.073 -6.72394 -1.30894 -0.705774 -0.644014 
1624 2 8.39229 8.11959 16.9698 -25.1722 -1.09721 0.766296 -0.124811 
244 2 11.1058 10.8527 16.9122 -24.9795 -0.722992 -0.614998 1.48266 
1743 3 13.5422 13.5749 11.6261 -29.02 0.957081 -2.02006 -0.701844 
3124 1 9.60037 9.47579 18.354 -7.34444 0.664983 0.0678905 0.0525825 
1744 3 13.5076 13.5991 16.7639 -28.4352 1.71668 0.106468 0.68766 
125 2 5.58054 5.44215 22.4495 -24.6265 1.04397 -1.90663 -1.04014 
604 3 5.66706 2.85423 19.5729 -28.7267 -0.467326 -0.321428 1.00828 
605 2 5.62451 2.50269 24.9688 -24.6884 -0.646257 3.71964 -0.224812 
1024 3 3.19472 5.44373 19.7016 -28.6834 -3.28771 0.0777549 -1.25861 
1025 3 3.05234 5.36549 24.7638 -28.3652 -0.969874 1.62918 3.28075 
1505 2 2.82061 2.9065 22.34 -24.6817 0.779334 -2.37604 -0.798249 
2005 1 1.77578 1.23243 23.6272 -7.22296 0.560562 2.57726 0.150755 
2504 1 4.29672 4.09009 20.9366 -7.86933 -0.798616 -0.437063 0.547665 
2505 1 4.57279 4.02544 26.3239 -7.45434 -1.4259 -0.681574 -0.836685 
3005 1 4.11869 4.08439 23.6061 -8.35119 1.36299 0.670982 0.709853 
3504 1 1.33555 1.4496 21.248 -8.18305 1.47221 1.41108 -1.51763 
3505 1 1.25462 1.50306 26.2006 -7.3884 0.777704 -0.699493 0.0824058 
4004 1 4.33148 1.37771 21.1401 -7.50911 -1.96811 0.0693249 -3.55456 
4005 1 4.09743 1.33729 26.143 -8.05984 -0.858397 0.778449 1.72782 
4505 1 1.49309 4.35756 23.7011 -8.6808 -0.507015 -2.28325 0.590787 
5004 1 1.53024 4.26745 21.0878 -8.09223 -0.0326492 -2.42205 -0.929185 
5005 1 1.649 4.04117 26.5029 -7.80695 -0.170704 1.25485 -0.930874 
5505 1 4.38844 1.52966 23.4966 -7.18033 -0.3802 -1.80765 1.32682 
126 2 5.49057 5.50902 27.7074 -25.8671 0.639832 1.1083 -0.546896 
3604 1 6.89809 1.37077 20.9306 -7.6898 -0.0512576 -0.111211 -0.0541752 
5104 1 6.87964 4.02931 20.9559 -7.37656 0.665101 -0.0763453 1.76224 
3605 1 6.71112 1.43971 26.4579 -7.85306 0.906822 0.507496 0.192108 
3524 1 1.24517 6.73206 21.1809 -7.1356 -0.409215 1.74504 0.777603 
3525 1 1.3424 6.68816 26.4976 -6.65885 1.32021 -0.0799233 -0.326622 
4025 1 4.18514 6.76052 26.2462 -7.6977 -1.7715 -0.299028 2.73935 
5525 1 4.46484 6.71477 23.8438 -7.84342 -0.619476 -0.280833 -2.84689 
2025 1 1.83855 6.86689 23.8229 -7.66039 -0.162294 1.21482 -0.233304 
4024 1 3.82296 6.66596 21.1082 -8.07959 2.43679 0.895546 0.867505 
3624 1 6.79423 6.70103 21.0789 -7.90118 -0.385121 0.575574 0.473492 
1506 2 2.85317 2.72201 27.7687 -25.5299 -0.586227 0.706127 -1.66844 
1005 3 2.7318 0.262964 25.0525 -28.8489 -0.511683 -1.17571 1.06251 
2105 1 7.02573 1.41944 23.6802 -8.4987 1.15018 -0.985305 -0.494782 
5105 1 7.21268 4.48249 26.3721 -6.98925 0.440938 -0.884173 0.314197 
4605 1 7.12196 4.03035 23.7697 -7.76933 -0.00950743 -0.115796 -1.05808 
225 3 11.0946 5.54431 22.2005 -29.6591 -2.82047 -2.77679 3.72164 
704 2 10.9938 2.73429 19.7389 -25.0043 0.613365 1.40225 -2.67149 
705 3 10.9353 2.68513 24.9734 -29.048 0.416325 2.1772 -0.37421 
1124 2 8.363 5.42937 19.5996 -25.0791 1.01663 0.757499 2.30799 
1125 3 8.4548 5.5271 24.8938 -28.8851 -0.0218861 -1.03476 0.879276 
1605 2 8.26031 2.65476 22.1823 -24.8032 -0.248339 1.79859 0.78964 
2205 1 12.7804 1.79891 23.7875 -7.88519 -1.74946 -1.25423 1.33047 
2604 1 9.66448 4.13791 21.1677 -7.19679 -1.78371 -0.369498 -1.4444 
2605 1 9.79195 3.86659 26.5028 -7.4239 -0.649796 1.14391 -0.417815 
3105 1 10.117 4.26433 23.7102 -6.44564 -3.85223 -1.92505 1.70301 
3704 1 12.46 1.25406 20.9425 -8.01062 -1.21201 1.2595 1.17123 
3705 1 12.0506 1.57319 26.4774 -8.22707 0.381919 -0.456095 -1.67103 
4104 1 9.40944 1.57148 20.5949 -8.37826 0.90976 -1.41127 0.230081 
4105 1 9.40722 1.37659 26.1047 -7.41031 0.0519785 0.352556 -0.569133 
4705 1 12.454 4.50534 23.7223 -5.93398 2.21799 0.218569 -2.95545 
5204 1 12.1224 3.99897 21.155 -7.81258 1.35513 0.78406 -2.19254 
5205 1 12.204 4.38904 26.0414 -6.88297 0.377221 -3.09412 2.49219 
5605 1 9.86394 1.45169 23.3725 -8.62557 -0.423119 1.13232 0.57877 
4124 1 9.60674 6.72312 20.9342 -7.67877 -1.55214 1.53964 -0.295591 
4125 1 9.5454 6.82754 26.2174 -8.02441 0.773855 -0.262079 -0.12326 
1606 2 8.16012 2.83396 27.6715 -25.8302 0.561003 0.471629 0.335188 
2125 1 7.0812 6.71865 23.809 -8.16564 -0.802158 0.0180889 0.537513 
3724 1 12.0778 6.70925 21.228 -8.21348 4.53167 3.11571 -1.63711 
3725 1 12.2614 6.66747 26.6296 -7.65165 1.3838 3.29505 -2.73349 
5625 1 9.78653 6.73618 23.5896 -7.44522 -0.160775 1.32487 0.207676 
1706 2 13.5786 2.94706 27.272 -24.8117 -1.78156 0.563847 2.31372 
226 3 10.9004 5.58061 27.4094 -29.2995 -1.44554 -1.79307 2.77224 
1705 2 13.6647 2.98794 22.1879 -25.0076 -0.17327 -3.02378 0.651461 
1104 3 8.15437 0.294136 19.3401 -28.6524 1.00229 -1.31857 0.688765 
1225 3 13.6654 5.46844 25.036 -29.6917 0.359825 1.13099 -1.2489 
644 3 5.5609 13.3083 19.7993 -27.9481 0.767226 2.21668 -0.376873 
145 2 5.60353 10.6782 22.4248 -24.6959 -1.05981 1.77041 2.79426 
624 2 5.47036 8.22138 19.7854 -24.6615 1.42515 -2.58199 -2.42004 
625 2 5.46623 8.2143 25.1203 -24.9942 3.22634 -0.930488 1.34272 
1044 2 2.81226 10.8117 19.8043 -24.4678 0.700133 0.15921 -2.20527 
1045 3 2.93683 10.966 25.2795 -27.5884 -1.90127 -1.35654 -1.5839 
1525 3 2.91013 8.12461 22.5127 -28.4102 -0.870253 -0.569708 -0.783748 
2045 1 1.51007 12.2382 23.779 -8.06485 -1.04461 -0.821191 2.64592 
2524 1 4.14069 9.2929 21.0495 -8.09682 -1.83141 0.396945 1.54912 
2525 1 4.12768 9.52874 26.2715 -8.34035 -0.614862 1.28258 2.83868 
3025 1 4.15532 9.2885 23.821 -7.88148 0.433109 1.53911 -2.32504 
3544 1 1.47476 12.3184 21.2795 -8.2916 0.899181 -0.537424 -2.80446 
3545 1 1.35177 12.1615 26.4714 -8.04481 1.26445 0.630331 -1.80189 
4044 1 4.51949 11.804 20.8876 -8.36575 -1.55157 1.83309 -0.71835 
4045 1 3.91411 12.2793 26.5232 -8.72288 1.29904 -0.075675 -0.229225 
4525 1 1.58683 9.56862 23.537 -8.37577 -1.37374 -0.58267 1.37342 
5024 1 1.41283 9.53564 20.8591 -7.74967 0.461233 -0.317901 2.52423 
5025 1 1.36025 9.2846 26.4915 -7.42969 1.78055 2.01946 -2.69354 
5545 1 4.11776 11.9961 23.8089 -8.42128 0.371249 -0.224158 -0.210046 
5125 1 6.85226 9.61448 26.6455 -7.90776 -0.349509 0.792132 0.13852 
1526 2 2.79037 8.12307 27.6985 -25.1121 -0.0124493 0.0912973 -0.42736 
3625 1 6.81347 7.12463 26.5904 -6.8831 0.0702693 -0.369525 0.920804 
3645 1 6.64754 12.2699 26.4681 -7.51242 -1.33579 0.0569102 0.231847 
2145 1 6.74917 12.0749 23.8679 -7.09915 0.306277 1.0723 0.156799 
5124 1 6.72545 9.35668 21.2463 -8.02145 2.07647 -0.411028 -2.56423 
524 2 0.224479 8.01441 19.6925 -25.8379 -0.873164 0.645622 -0.564624 
1545 2 2.81534 13.5057 22.6786 -24.0196 -1.5504 0.484627 -1.81851 
645 3 5.35342 13.3551 25.08 -28.3102 1.73194 0.867786 0.112615 
525 3 0.217252 8.29893 24.8413 -28.2352 0.596822 -1.60588 2.18922 
1745 2 13.5035 13.4746 22.4235 -24.6531 2.32774 1.05533 -1.18594 
744 3 10.7738 13.6535 19.8106 -28.4294 1.79105 -1.42509 -0.481013 
1245 3 13.4407 10.8114 25.433 -27.856 -0.715208 0.380103 -1.16211 
1725 3 13.5141 8.22617 22.4355 -27.519 0.669702 0.313272 -0.400606 
4625 1 7.13005 9.61158 23.728 -7.48251 -1.08768 -2.09968 2.09146 
2225 1 12.5482 7.17916 23.8778 -8.32593 0.521118 -0.121862 0.149439 
3644 1 7.01847 12.2622 21.2214 -8.3073 -0.437872 -0.460082 -0.176874 
245 3 10.9337 10.8312 22.7626 -28.6018 -2.21621 0.942722 -0.699884 
724 2 10.8219 8.3874 19.9277 -25.1886 1.75304 -1.06539 -2.17929 
725 2 11.1446 8.11531 25.2578 -24.7468 -2.17951 1.31271 -0.3288 
1144 2 8.30176 10.9572 19.9711 -24.7035 2.09564 -1.77268 -1.47469 
1145 2 8.30422 10.7997 25.4661 -25.3181 -1.50236 -0.925191 -2.70002 
1625 2 8.1766 8.00125 22.5017 -24.9437 2.55034 1.50265 -1.03596 
2245 1 12.1375 12.6426 23.7135 -7.68733 -1.96019 -2.94303 -0.132184 
2624 1 9.46959 9.52996 21.2262 -7.86154 -2.0105 -0.252993 0.56747 
2625 1 9.65285 9.57715 26.8978 -8.03637 -0.500504 -1.37685 -0.441116 
3125 1 9.77262 9.44826 23.9962 -7.02479 -1.94301 -0.973735 0.692408 
3744 1 12.3884 12.3139 20.3898 -6.81863 -0.781428 0.341009 2.86092 
3745 1 11.7063 12.0438 26.2768 -7.8866 1.31803 -0.297844 1.04178 
4144 1 9.81369 12.2287 21.3323 -8.23362 -0.941823 0.906968 0.661229 
4145 1 9.201 12.1002 26.8368 -7.62008 0.889093 3.28441 0.805371 
4725 1 12.0818 9.9283 24.0581 -7.71761 3.2527 -0.392357 0.886391 
5224 1 11.9008 9.66902 21.3908 -7.82859 3.46578 -1.31382 0.709645 
5225 1 12.3496 9.4279 26.6876 -8.2591 1.15402 -0.390802 -0.707096 
5645 1 9.53565 12.114 24.1899 -8.14831 -0.155143 1.26304 -1.66218 
1244 3 13.6531 11.1265 19.5963 -29.2869 1.00305 0.510947 0.068415 
745 3 10.6918 13.5025 25.2597 -28.5951 0.769277 0.999271 -0.183371 
1645 2 8.15684 13.4996 22.5729 -24.7573 0.789067 0.8474 1.03689 
1007 2 2.79759 0.426187 35.7281 -25.27 -1.29747 -2.15855 1.31065 
127 2 5.38198 5.58284 33.2399 -25.0379 0.857346 0.325803 -0.1814 
606 2 5.37719 2.89755 30.4957 -25.0969 0.0354654 0.528962 -0.600851 
607 2 5.52705 2.81402 35.798 -24.7102 1.2273 2.12287 1.1959 
1026 3 2.80628 5.59405 30.5896 -29.2264 -2.0372 -0.964352 -1.69326 
1027 3 3.01221 5.66911 35.8772 -28.9134 -1.83874 -0.0749078 0.152715 
1507 2 2.55336 2.81968 33.1963 -23.8452 3.20749 1.42082 -1.88295 
2006 1 1.38246 1.55341 28.8053 -7.00866 -2.3187 -2.45811 1.33337 
2007 1 1.25907 1.7248 34.4149 -8.63281 -1.01045 -0.433176 0.0398069 
2506 1 4.26528 4.41623 31.6109 -8.08454 -0.443572 -0.653541 1.74896 
3006 1 3.90898 4.16637 28.9264 -6.83257 3.29822 2.09677 0.617688 
3007 1 4.19843 4.35392 34.5941 -7.84081 -1.30012 -1.76532 -0.925037 
3506 1 1.28954 1.4959 31.6787 -7.97875 -0.713643 0.651097 0.577842 
4006 1 4.00255 1.55301 31.7837 -8.69167 1.23207 -0.321516 1.36428 
4506 1 1.66078 3.90674 29.3949 -6.18391 -2.36325 2.87928 -0.114159 
4507 1 1.44989 4.39644 34.5679 -8.45475 0.449536 1.37356 -0.929051 
5006 1 1.46442 4.17625 31.9458 -7.2569 0.171262 1.25095 0.85468 
5506 1 3.8233 1.36305 29.1595 -8.00063 3.66913 -0.111486 0.0256879 
5507 1 4.25307 1.61858 34.6441 -7.96061 -1.40056 -0.0179062 -4.45222 
3606 1 6.86559 1.35833 31.6003 -7.98475 -2.27457 -1.21264 -0.93718 
4606 1 6.53838 4.20423 29.0631 -6.69009 1.42022 2.45686 0.650677 
3526 1 1.05714 6.82892 31.5736 -6.80719 1.8107 0.419221 1.41058 
2126 1 6.9251 6.9346 29.5 -7.25332 -1.09704 0.915217 -2.19201 
2106 1 6.56948 1.885 28.9592 -7.3566 -0.207661 -4.19485 0.339373 
4607 1 6.84769 4.23828 34.4669 -7.91435 -0.133239 -0.83935 0.591494 
2107 1 6.88576 1.38291 34.2084 -7.48281 -1.71605 -0.0099098 1.32791 
4026 1 3.79327 6.93124 31.7038 -7.86881 -0.0990918 0.584097 2.18311 
5527 1 4.34804 6.87935 34.6592 -7.05565 -3.21342 0.370293 -0.361312 
3626 1 6.63326 6.85294 32.0764 -7.60408 0.0892459 -0.159993 -1.37016 
106 3 5.43352 0.386307 28.0073 -28.0339 -0.60488 -1.11145 -2.38045 
1707 3 13.5781 2.97487 33.08 -28.8408 0.535719 -0.800422 0.732709 
1226 2 13.3256 5.69285 30.2938 -24.8723 1.59312 0.204293 -0.0310271 
5106 1 7.01544 3.99285 31.8083 -7.43948 -2.30028 2.70191 -1.56295 
227 2 10.8821 5.57813 33.108 -24.3868 0.470106 0.78801 0.744904 
706 2 10.9768 2.95103 30.3512 -24.4174 -1.87144 -0.913781 1.06291 
707 2 11.0438 2.92507 35.8516 -25.4994 -1.40816 1.61555 -0.526541 
1126 2 8.21458 5.59895 30.4578 -25.5955 -0.16169 -0.761184 0.446031 
1127 2 8.09661 5.56528 35.7642 -25.376 0.647651 -0.625523 2.0738 
1607 2 8.20083 2.76604 32.9742 -25.5837 1.30068 -0.559148 3.30414 
2206 1 12.2459 1.73489 29.0301 -7.86685 0.212739 -1.11338 0.913743 
2207 1 12.22 1.84158 34.3317 -7.66394 1.03486 -1.11194 1.51563 
2606 1 9.66882 4.21566 31.7248 -8.16832 0.96866 0.960936 1.71089 
3106 1 9.31265 4.21138 29.2367 -6.88506 0.17791 -2.97146 -1.76346 
3107 1 9.62694 4.18071 34.6671 -6.8199 -0.240365 -0.888023 -2.7805 
3706 1 12.1282 1.51217 31.9296 -7.6491 1.07574 0.0633571 -3.53401 
4106 1 9.45331 1.35666 32.0089 -6.91152 1.49852 -0.938219 -3.98613 
4706 1 11.9222 4.27045 28.9377 -7.48609 0.738373 1.55555 0.135711 
4707 1 12.2843 4.56324 34.5869 -7.79903 -0.225459 0.491511 -1.15987 
5206 1 12.4556 4.39506 31.9272 -8.56048 -1.24873 -0.520742 -1.26783 
5606 1 9.38329 1.18359 28.917 -7.87361 0.0197525 1.33632 0.28069 
5607 1 9.39433 1.43271 34.4677 -6.72279 1.86033 0.380509 2.70141 
5626 1 9.53973 6.69811 28.9146 -7.05739 0.610021 2.09837 -0.559112 
5627 1 9.30413 6.62854 34.2973 -8.26669 1.10362 3.26462 -1.012 
527 3 0.334027 8.48515 35.6624 -28.9301 -1.54732 -1.23983 0.839695 
47 3 0.362214 11.1147 32.9486 -28.5916 -4.51758 -2.88734 3.10386 
1546 3 2.75865 13.6121 27.891 -28.2762 -0.532263 -0.681694 -1.09637 
5526 1 4.32668 7.05403 29.1947 -7.89249 -0.786765 -0.26445 -1.89365 
2027 1 1.56299 7.11668 34.349 -8.07232 1.07161 0.581036 -0.00128232 
3646 1 6.9393 12.2056 31.9794 -7.64572 -2.11382 -0.125425 -0.219531 
2026 1 1.57955 7.02947 29.0946 -7.61024 0.241196 -1.54516 0.284176 
146 2 5.33636 11.0221 27.8609 -24.4184 2.5515 0.688373 -0.241096 
147 2 5.54816 10.9064 33.2883 -25.1283 0.584989 -0.105967 -0.947582 
626 3 5.4613 8.16436 30.5606 -28.8617 1.36288 -0.00368322 0.695743 
627 3 5.47081 8.44867 35.9993 -29.0275 0.526348 -0.74422 -2.08089 
1046 2 2.8678 10.7078 30.6197 -23.8877 -1.62423 3.96639 -0.271643 
1047 3 2.86261 11.0675 35.8316 -28.613 0.724444 0.164923 -0.106516 
1527 3 2.68364 8.33816 33.1057 -27.9825 1.11753 -0.728494 0.360593 
2046 1 1.45843 12.4197 29.119 -7.42608 -0.77245 -0.988623 0.94927 
2047 1 1.87239 12.3241 34.3583 -7.599 -2.01277 1.00343 3.08346 