LAMMPS (22 Dec 2022)
  using 1 OpenMP thread(s) per MPI task
Loaded 1 plugins from C:\Program Files\LAMMPS 64-bit 23Jun2022\plugins
Loaded 0 plugins from C:\Program Files\LAMMPS 64-bit 23Jun2022-MPI\plugins
Loaded 1 plugins from C:\Program Files\LAMMPS 64-bit 22Dec2022-MSMPI\plugins
Loaded 1 plugins from C:\Program Files\LAMMPS 64-bit 28Mar2023-MPI\plugins
#------------------------------------------------------------------------------------------
# LAMMPS 64-bit 22Dec2022-MSMPI
#------------------------------------------------------------------------------------------
clear
  using 1 OpenMP thread(s) per MPI task
Loaded 1 plugins from C:\Program Files\LAMMPS 64-bit 23Jun2022\plugins
Loaded 0 plugins from C:\Program Files\LAMMPS 64-bit 23Jun2022-MPI\plugins
Loaded 1 plugins from C:\Program Files\LAMMPS 64-bit 22Dec2022-MSMPI\plugins
Loaded 1 plugins from C:\Program Files\LAMMPS 64-bit 28Mar2023-MPI\plugins
#echo both
# ---------- Initializing Simulation ---------------------------------
units metal
dimension 3
boundary p p p
atom_style atomic
atom_modify map array

#read_data ./../../VNb.data
#read_data ./../../VTa.data
#read_data ./../../VTi.data
#read_data ./../../VZr.data
#read_data ./../../NbTa.data
#read_data ./../../NbTi.data
#read_data ./../../NbZr.data
#read_data ./../../TaTi.data
#read_data ./../../TaZr.data
#read_data ./../../TiZr.data
read_data ./../../VTiZr.data
Reading data file ...
  orthogonal box = (0 0 0) to (3.453218 4.691028 14.48686)
  1 by 2 by 4 MPI processor grid
  reading atoms ...
  12 atoms
  read_data CPU = 0.001 seconds
#read_data ./../../NbTiZr.data

replicate 1 1 1
Replication is creating a 1x1x1 = 1 times larger system...
  orthogonal box = (0 0 0) to (3.453218 4.691028 14.48686)
  1 by 2 by 4 MPI processor grid
  12 atoms
  replicate CPU = 0.000 seconds

# ---------- Defining the Interatomic Potential ---------------------
pair_style meam
#pair_coeff * * ./../../library.meam V Nb Ta Ti Zr ./../../VNbTaTiZr.meam V Nb
#pair_coeff * * ./../../library.meam V Nb Ta Ti Zr ./../../VNbTaTiZr.meam V Ta
#pair_coeff * * ./../../library.meam V Nb Ta Ti Zr ./../../VNbTaTiZr.meam V Ti
#pair_coeff * * ./../../library.meam V Nb Ta Ti Zr ./../../VNbTaTiZr.meam V Zr
#pair_coeff * * ./../../library.meam V Nb Ta Ti Zr ./../../VNbTaTiZr.meam Nb Ta
#pair_coeff * * ./../../library.meam V Nb Ta Ti Zr ./../../VNbTaTiZr.meam Nb Ti
#pair_coeff * * ./../../library.meam V Nb Ta Ti Zr ./../../VNbTaTiZr.meam Nb Zr
#pair_coeff * * ./../../library.meam V Nb Ta Ti Zr ./../../VNbTaTiZr.meam Ta Ti
#pair_coeff * * ./../../library.meam V Nb Ta Ti Zr ./../../VNbTaTiZr.meam Ta Zr
#pair_coeff * * ./../../library.meam V Nb Ta Ti Zr ./../../VNbTaTiZr.meam Ti Zr
pair_coeff * * ./../../library.meam V Nb Ta Ti Zr ./../../VNbTaTiZr.meam V Ti Zr
#pair_coeff * * ./../../library.meam V Nb Ta Ti Zr ./../../VNbTaTiZr.meam Nb Ti Zr

# ---------- Running Minimization -------------------------------------
fix 1 all box/relax iso 0.0 vmax 0.001

thermo 10
thermo_style custom step pe etotal lx ly lz vol press pxx pyy pzz

min_style cg
minimize 1e-25 1e-25 5000 10000
Neighbor list info ...
  update: every = 1 steps, delay = 0 steps, check = yes
  max neighbors/atom: 2000, page size: 100000
  master list distance cutoff = 7
  ghost atom cutoff = 7
  binsize = 3.5, bins = 1 2 5
  2 neighbor lists, perpetual/occasional/extra = 2 0 0
  (1) pair meam, perpetual
      attributes: full, newton on
      pair build: full/bin/atomonly
      stencil: full/bin/3d
      bin: standard
  (2) pair meam, perpetual, half/full from (1)
      attributes: half, newton on
      pair build: halffull/newton
      stencil: none
      bin: none
Per MPI rank memory allocation (min/avg/max) = 9.652 | 9.653 | 9.653 Mbytes
   Step         PotEng         TotEng           Lx             Ly             Lz           Volume         Press           Pxx            Pyy            Pzz      
         0  -72.899077     -72.899077      3.453218       4.691028       14.48686       234.67471     -106842.1      -131303.74     -80262.908     -108959.64    
        10  -73.311455     -73.311455      3.4186858      4.6441177      14.341991      227.70463     -81759.016     -108715.29     -52762.293     -83799.467    
        20  -73.60023      -73.60023       3.3841536      4.5972074      14.197123      220.87396     -52549.952     -82053.363     -20933.509     -54662.984    
        30  -73.752303     -73.752303      3.3496215      4.5502972      14.052254      214.18127     -18723.531     -50848.534      15726.676     -21048.735    
        40  -73.822147     -73.822147      3.3367837      4.5328577      13.998398      211.72809     -20.945032     -62788.138      32887.072      29838.231    
        50  -73.822148     -73.822148      3.3367875      4.5328628      13.998413      211.7288       0.0034325978  -62884.447      32897.581      29986.877    
        54  -73.822148     -73.822148      3.3367874      4.5328627      13.998413      211.72879      5.2226461e-05 -62884.166      32897.61       29986.556    
Loop time of 0.00886875 on 8 procs for 54 steps with 12 atoms

0.0% CPU use with 8 MPI tasks x 1 OpenMP threads

Minimization stats:
  Stopping criterion = energy tolerance
  Energy initial, next-to-last, final = 
     -72.8990770976764  -73.8221480879816  -73.8221480879816
  Force two-norm initial, final = 46.97297 1.6436236e-07
  Force max component initial, final = 46.948269 6.6094764e-08
  Final line search alpha, max atom move = 1 6.6094764e-08
  Iterations, force evaluations = 54 72

MPI task timing breakdown:
Section |  min time  |  avg time  |  max time  |%varavg| %total
---------------------------------------------------------------
Pair    | 0.005016   | 0.0051744  | 0.005338   |   0.2 | 58.34
Neigh   | 0          | 0          | 0          |   0.0 |  0.00
Comm    | 0.000785   | 0.00094888 | 0.00111    |   0.0 | 10.70
Output  | 5.9e-05    | 6.725e-05  | 0.000121   |   0.0 |  0.76
Modify  | 0          | 0          | 0          |   0.0 |  0.00
Other   |            | 0.002678   |            |       | 30.20

Nlocal:            1.5 ave           2 max           1 min
Histogram: 4 0 0 0 0 0 0 0 0 4
Nghost:          229.5 ave         230 max         229 min
Histogram: 4 0 0 0 0 0 0 0 0 4
Neighs:             48 ave          64 max          32 min
Histogram: 4 0 0 0 0 0 0 0 0 4
FullNghs:           96 ave         128 max          64 min
Histogram: 4 0 0 0 0 0 0 0 0 4

Total # of neighbors = 768
Ave neighs/atom = 64
Neighbor list builds = 0
Dangerous builds = 0

variable  natoms equal "count(all)"
variable      x0 equal "lx"
variable      y0 equal "ly"
variable      z0 equal "lz"
variable      v0 equal "vol"
variable   etot0 equal "etotal"
variable   ecoh0 equal "pe/v_natoms"

unfix 1
write_data ./../step2_elastic/data.in
System init for write_data ...

# ---------- For Equation of States -------------------------------------
change_box all x scale 0.94 y scale 0.94 z scale 0.94 remap
Changing box ...
  orthogonal box = (0.15831892 0.079082634 0.24422345) to (3.2948991 4.6119454 14.242637)
  orthogonal box = (0.15831892 0.21506852 0.24422345) to (3.2948991 4.4759595 14.242637)
  orthogonal box = (0.15831892 0.21506852 0.66417584) to (3.2948991 4.4759595 13.822684)
run 1
WARNING: No fixes with time integration, atoms won't move (src/verlet.cpp:60)
Per MPI rank memory allocation (min/avg/max) = 8.545 | 8.545 | 8.547 Mbytes
   Step         PotEng         TotEng           Lx             Ly             Lz           Volume         Press           Pxx            Pyy            Pzz      
        54  -70.579271     -70.579271      3.1365802      4.260891       13.158508      175.85854      338464.91      276609.11      391744.47      347041.16    
        55  -70.579271     -70.579271      3.1365802      4.260891       13.158508      175.85854      338464.91      276609.11      391744.47      347041.16    
Loop time of 0.000230625 on 8 procs for 1 steps with 12 atoms

Performance: 374.634 ns/day, 0.064 hours/ns, 4336.043 timesteps/s, 52.033 katom-step/s
0.0% CPU use with 8 MPI tasks x 1 OpenMP threads

MPI task timing breakdown:
Section |  min time  |  avg time  |  max time  |%varavg| %total
---------------------------------------------------------------
Pair    | 0.000187   | 0.0001905  | 0.0002     |   0.0 | 82.60
Neigh   | 0          | 0          | 0          |   0.0 |  0.00
Comm    | 1.4e-05    | 2.3625e-05 | 2.7e-05    |   0.0 | 10.24
Output  | 1.1e-05    | 1.25e-05   | 1.3e-05    |   0.0 |  5.42
Modify  | 0          | 1.25e-07   | 1e-06      |   0.0 |  0.05
Other   |            | 3.875e-06  |            |       |  1.68

Nlocal:            1.5 ave           3 max           1 min
Histogram: 6 0 0 0 0 0 0 0 0 2
Nghost:          350.5 ave         351 max         349 min
Histogram: 2 0 0 0 0 0 0 0 0 6
Neighs:             78 ave         158 max          46 min
Histogram: 5 1 0 0 0 0 0 0 0 2
FullNghs:          156 ave         312 max         104 min
Histogram: 6 0 0 0 0 0 0 0 0 2

Total # of neighbors = 1248
Ave neighs/atom = 104
Neighbor list builds = 0
Dangerous builds = 0
print "# Lattice constant (Angstroms), Volume (Angstrom), Total energy (eV), Cohesive energy (eV/atom)" file lattice_cohesive_energy.txt screen no


# Loop over lattice constants
variable i loop 49 # Number of steps
label loop

change_box all x scale 1.0025 y scale 1.0025 z scale 1.0025 remap
Changing box ...
  orthogonal box = (0.15439819 0.21506852 0.66417584) to (3.2988198 4.4759595 13.822684)
  orthogonal box = (0.15439819 0.2097424 0.66417584) to (3.2988198 4.4812856 13.822684)
  orthogonal box = (0.15439819 0.2097424 0.64772771) to (3.2988198 4.4812856 13.839132)

run 1
WARNING: No fixes with time integration, atoms won't move (src/verlet.cpp:60)
Per MPI rank memory allocation (min/avg/max) = 8.545 | 8.545 | 8.547 Mbytes
   Step         PotEng         TotEng           Lx             Ly             Lz           Volume         Press           Pxx            Pyy            Pzz      
        55  -70.850941     -70.850941      3.1444216      4.2715432      13.191405      177.18078      320009.67      257567.54      372299.12      330162.35    
        56  -70.850941     -70.850941      3.1444216      4.2715432      13.191405      177.18078      320009.67      257567.54      372299.12      330162.35    
Loop time of 0.00027175 on 8 procs for 1 steps with 12 atoms

Performance: 317.939 ns/day, 0.075 hours/ns, 3679.853 timesteps/s, 44.158 katom-step/s
0.0% CPU use with 8 MPI tasks x 1 OpenMP threads

MPI task timing breakdown:
Section |  min time  |  avg time  |  max time  |%varavg| %total
---------------------------------------------------------------
Pair    | 0.00012    | 0.00016163 | 0.000209   |   0.0 | 59.48
Neigh   | 0          | 0          | 0          |   0.0 |  0.00
Comm    | 2.6e-05    | 7.7625e-05 | 0.000136   |   0.0 | 28.56
Output  | 1.1e-05    | 1.1625e-05 | 1.3e-05    |   0.0 |  4.28
Modify  | 0          | 0          | 0          |   0.0 |  0.00
Other   |            | 2.088e-05  |            |       |  7.68

Nlocal:            1.5 ave           3 max           1 min
Histogram: 6 0 0 0 0 0 0 0 0 2
Nghost:          350.5 ave         351 max         349 min
Histogram: 2 0 0 0 0 0 0 0 0 6
Neighs:             78 ave         158 max          46 min
Histogram: 5 1 0 0 0 0 0 0 0 2
FullNghs:          156 ave         312 max         104 min
Histogram: 6 0 0 0 0 0 0 0 0 2

Total # of neighbors = 1248
Ave neighs/atom = 104
Neighbor list builds = 0
Dangerous builds = 0
variable  natoms equal "count(all)"
variable xlength equal "lx"
variable  volume equal "vol"
variable  etotal equal "etotal"
variable    ecoh equal "pe/v_natoms"
print "${xlength}, ${volume}, ${etotal}, ${ecoh}" append lattice_cohesive_energy.txt screen no

next i
jump SELF loop

change_box all x scale 1.0025 y scale 1.0025 z scale 1.0025 remap
Changing box ...
  orthogonal box = (0.15046766 0.2097424 0.64772771) to (3.3027503 4.4812856 13.839132)
  orthogonal box = (0.15046766 0.20440297 0.64772771) to (3.3027503 4.486625 13.839132)
  orthogonal box = (0.15046766 0.20440297 0.63123845) to (3.3027503 4.486625 13.855622)

run 1
WARNING: No fixes with time integration, atoms won't move (src/verlet.cpp:60)
Per MPI rank memory allocation (min/avg/max) = 8.545 | 8.545 | 8.547 Mbytes
   Step         PotEng         TotEng           Lx             Ly             Lz           Volume         Press           Pxx            Pyy            Pzz      
        56  -71.109502     -71.109502      3.1522827      4.2822221      13.224383      178.51296      302017.36      239047.65      353332.47      313671.97    
        57  -71.109502     -71.109502      3.1522827      4.2822221      13.224383      178.51296      302017.36      239047.65      353332.47      313671.97    
Loop time of 0.0003 on 8 procs for 1 steps with 12 atoms

Performance: 288.000 ns/day, 0.083 hours/ns, 3333.333 timesteps/s, 40.000 katom-step/s
0.0% CPU use with 8 MPI tasks x 1 OpenMP threads

MPI task timing breakdown:
Section |  min time  |  avg time  |  max time  |%varavg| %total
---------------------------------------------------------------
Pair    | 0.000253   | 0.00025638 | 0.000265   |   0.0 | 85.46
Neigh   | 0          | 0          | 0          |   0.0 |  0.00
Comm    | 1.6e-05    | 2.5e-05    | 2.9e-05    |   0.0 |  8.33
Output  | 1.2e-05    | 1.2875e-05 | 1.4e-05    |   0.0 |  4.29
Modify  | 0          | 1.25e-07   | 1e-06      |   0.0 |  0.04
Other   |            | 5.625e-06  |            |       |  1.87

Nlocal:            1.5 ave           3 max           1 min
Histogram: 6 0 0 0 0 0 0 0 0 2
Nghost:          350.5 ave         351 max         349 min
Histogram: 2 0 0 0 0 0 0 0 0 6
Neighs:             76 ave         150 max          46 min
Histogram: 5 1 0 0 0 0 0 0 0 2
FullNghs:          152 ave         300 max         100 min
Histogram: 6 0 0 0 0 0 0 0 0 2

Total # of neighbors = 1216
Ave neighs/atom = 101.33333
Neighbor list builds = 0
Dangerous builds = 0
variable  natoms equal "count(all)"
variable xlength equal "lx"
variable  volume equal "vol"
variable  etotal equal "etotal"
variable    ecoh equal "pe/v_natoms"
print "${xlength}, ${volume}, ${etotal}, ${ecoh}" append lattice_cohesive_energy.txt screen no

next i
jump SELF loop

change_box all x scale 1.0025 y scale 1.0025 z scale 1.0025 remap
Changing box ...
  orthogonal box = (0.14652731 0.20440297 0.63123845) to (3.3066907 4.486625 13.855622)
  orthogonal box = (0.14652731 0.1990502 0.63123845) to (3.3066907 4.4919778 13.855622)
  orthogonal box = (0.14652731 0.1990502 0.61470797) to (3.3066907 4.4919778 13.872152)

run 1
WARNING: No fixes with time integration, atoms won't move (src/verlet.cpp:60)
Per MPI rank memory allocation (min/avg/max) = 8.545 | 8.545 | 8.547 Mbytes
   Step         PotEng         TotEng           Lx             Ly             Lz           Volume         Press           Pxx            Pyy            Pzz      
        57  -71.355125     -71.355125      3.1601634      4.2929276      13.257444      179.85516      284479.55      221039.05      334835.85      297563.76    
        58  -71.355125     -71.355125      3.1601634      4.2929276      13.257444      179.85516      284479.55      221039.05      334835.85      297563.76    
Loop time of 0.00017525 on 8 procs for 1 steps with 12 atoms

Performance: 493.010 ns/day, 0.049 hours/ns, 5706.134 timesteps/s, 68.474 katom-step/s
0.0% CPU use with 8 MPI tasks x 1 OpenMP threads

MPI task timing breakdown:
Section |  min time  |  avg time  |  max time  |%varavg| %total
---------------------------------------------------------------
Pair    | 0.000123   | 0.00012725 | 0.000137   |   0.0 | 72.61
Neigh   | 0          | 0          | 0          |   0.0 |  0.00
Comm    | 1.3e-05    | 2.275e-05  | 2.8e-05    |   0.0 | 12.98
Output  | 1.2e-05    | 1.3125e-05 | 2e-05      |   0.0 |  7.49
Modify  | 0          | 2.5e-07    | 1e-06      |   0.0 |  0.14
Other   |            | 1.187e-05  |            |       |  6.78

Nlocal:            1.5 ave           3 max           1 min
Histogram: 6 0 0 0 0 0 0 0 0 2
Nghost:          350.5 ave         351 max         349 min
Histogram: 2 0 0 0 0 0 0 0 0 6
Neighs:             76 ave         150 max          46 min
Histogram: 5 1 0 0 0 0 0 0 0 2
FullNghs:          152 ave         300 max         100 min
Histogram: 6 0 0 0 0 0 0 0 0 2

Total # of neighbors = 1216
Ave neighs/atom = 101.33333
Neighbor list builds = 0
Dangerous builds = 0
variable  natoms equal "count(all)"
variable xlength equal "lx"
variable  volume equal "vol"
variable  etotal equal "etotal"
variable    ecoh equal "pe/v_natoms"
print "${xlength}, ${volume}, ${etotal}, ${ecoh}" append lattice_cohesive_energy.txt screen no

next i
jump SELF loop

change_box all x scale 1.0025 y scale 1.0025 z scale 1.0025 remap
Changing box ...
  orthogonal box = (0.14257711 0.1990502 0.61470797) to (3.3106409 4.4919778 13.872152)
  orthogonal box = (0.14257711 0.19368404 0.61470797) to (3.3106409 4.497344 13.872152)
  orthogonal box = (0.14257711 0.19368404 0.59813617) to (3.3106409 4.497344 13.888724)

run 1
WARNING: No fixes with time integration, atoms won't move (src/verlet.cpp:60)
Per MPI rank memory allocation (min/avg/max) = 8.545 | 8.545 | 8.547 Mbytes
   Step         PotEng         TotEng           Lx             Ly             Lz           Volume         Press           Pxx            Pyy            Pzz      
        58  -71.587982     -71.587982      3.1680638      4.3036599      13.290588      181.20745      267387.9       203531.53      316800.69      281831.47    
        59  -71.587982     -71.587982      3.1680638      4.3036599      13.290588      181.20745      267387.9       203531.53      316800.69      281831.47    
Loop time of 0.000163 on 8 procs for 1 steps with 12 atoms

Performance: 530.061 ns/day, 0.045 hours/ns, 6134.969 timesteps/s, 73.620 katom-step/s
0.0% CPU use with 8 MPI tasks x 1 OpenMP threads

MPI task timing breakdown:
Section |  min time  |  avg time  |  max time  |%varavg| %total
---------------------------------------------------------------
Pair    | 0.000119   | 0.00012413 | 0.000132   |   0.0 | 76.15
Neigh   | 0          | 0          | 0          |   0.0 |  0.00
Comm    | 1.4e-05    | 2.175e-05  | 2.6e-05    |   0.0 | 13.34
Output  | 1.1e-05    | 1.2125e-05 | 1.3e-05    |   0.0 |  7.44
Modify  | 0          | 1.25e-07   | 1e-06      |   0.0 |  0.08
Other   |            | 4.875e-06  |            |       |  2.99

Nlocal:            1.5 ave           3 max           1 min
Histogram: 6 0 0 0 0 0 0 0 0 2
Nghost:          350.5 ave         351 max         349 min
Histogram: 2 0 0 0 0 0 0 0 0 6
Neighs:             76 ave         150 max          46 min
Histogram: 5 1 0 0 0 0 0 0 0 2
FullNghs:          152 ave         300 max         100 min
Histogram: 6 0 0 0 0 0 0 0 0 2

Total # of neighbors = 1216
Ave neighs/atom = 101.33333
Neighbor list builds = 0
Dangerous builds = 0
variable  natoms equal "count(all)"
variable xlength equal "lx"
variable  volume equal "vol"
variable  etotal equal "etotal"
variable    ecoh equal "pe/v_natoms"
print "${xlength}, ${volume}, ${etotal}, ${ecoh}" append lattice_cohesive_energy.txt screen no

next i
jump SELF loop

change_box all x scale 1.0025 y scale 1.0025 z scale 1.0025 remap
Changing box ...
  orthogonal box = (0.13861703 0.19368404 0.59813617) to (3.314601 4.497344 13.888724)
  orthogonal box = (0.13861703 0.18830446 0.59813617) to (3.314601 4.5027235 13.888724)
  orthogonal box = (0.13861703 0.18830446 0.58152294) to (3.314601 4.5027235 13.905337)

run 1
WARNING: No fixes with time integration, atoms won't move (src/verlet.cpp:60)
Per MPI rank memory allocation (min/avg/max) = 8.545 | 8.546 | 8.548 Mbytes
   Step         PotEng         TotEng           Lx             Ly             Lz           Volume         Press           Pxx            Pyy            Pzz      
        59  -71.808243     -71.808243      3.1759839      4.3144191      13.323814      182.56991      250734.18      186515.04      299218.54      266468.96    
        60  -71.808243     -71.808243      3.1759839      4.3144191      13.323814      182.56991      250734.18      186515.04      299218.54      266468.96    
Loop time of 0.000183875 on 8 procs for 1 steps with 12 atoms

Performance: 469.884 ns/day, 0.051 hours/ns, 5438.477 timesteps/s, 65.262 katom-step/s
0.0% CPU use with 8 MPI tasks x 1 OpenMP threads

MPI task timing breakdown:
Section |  min time  |  avg time  |  max time  |%varavg| %total
---------------------------------------------------------------
Pair    | 0.000139   | 0.00014438 | 0.000155   |   0.0 | 78.52
Neigh   | 0          | 0          | 0          |   0.0 |  0.00
Comm    | 1.4e-05    | 2.4125e-05 | 2.9e-05    |   0.0 | 13.12
Output  | 1.1e-05    | 1.125e-05  | 1.2e-05    |   0.0 |  6.12
Modify  | 0          | 2.5e-07    | 1e-06      |   0.0 |  0.14
Other   |            | 3.875e-06  |            |       |  2.11

Nlocal:            1.5 ave           4 max           0 min
Histogram: 4 0 0 0 0 2 0 0 0 2
Nghost:          350.5 ave         352 max         348 min
Histogram: 2 0 0 0 0 2 0 0 0 4
Neighs:             73 ave         192 max           0 min
Histogram: 4 0 0 0 0 2 0 0 0 2
FullNghs:          146 ave         384 max           0 min
Histogram: 4 0 0 0 0 2 0 0 0 2

Total # of neighbors = 1168
Ave neighs/atom = 97.333333
Neighbor list builds = 0
Dangerous builds = 0
variable  natoms equal "count(all)"
variable xlength equal "lx"
variable  volume equal "vol"
variable  etotal equal "etotal"
variable    ecoh equal "pe/v_natoms"
print "${xlength}, ${volume}, ${etotal}, ${ecoh}" append lattice_cohesive_energy.txt screen no

next i
jump SELF loop

change_box all x scale 1.0025 y scale 1.0025 z scale 1.0025 remap
Changing box ...
  orthogonal box = (0.13464705 0.18830446 0.58152294) to (3.318571 4.5027235 13.905337)
  orthogonal box = (0.13464705 0.18291144 0.58152294) to (3.318571 4.5081166 13.905337)
  orthogonal box = (0.13464705 0.18291144 0.56486817) to (3.318571 4.5081166 13.921992)

run 1
WARNING: No fixes with time integration, atoms won't move (src/verlet.cpp:60)
Per MPI rank memory allocation (min/avg/max) = 8.545 | 8.546 | 8.548 Mbytes
   Step         PotEng         TotEng           Lx             Ly             Lz           Volume         Press           Pxx            Pyy            Pzz      
        60  -72.016076     -72.016076      3.1839239      4.3252051      13.357124      183.94261      234510.29      169979.68      282081.03      251470.15    
        61  -72.016076     -72.016076      3.1839239      4.3252051      13.357124      183.94261      234510.29      169979.68      282081.03      251470.15    
Loop time of 0.000182625 on 8 procs for 1 steps with 12 atoms

Performance: 473.101 ns/day, 0.051 hours/ns, 5475.702 timesteps/s, 65.708 katom-step/s
0.0% CPU use with 8 MPI tasks x 1 OpenMP threads

MPI task timing breakdown:
Section |  min time  |  avg time  |  max time  |%varavg| %total
---------------------------------------------------------------
Pair    | 0.000138   | 0.0001435  | 0.000154   |   0.0 | 78.58
Neigh   | 0          | 0          | 0          |   0.0 |  0.00
Comm    | 1.3e-05    | 2.3125e-05 | 2.9e-05    |   0.0 | 12.66
Output  | 1.1e-05    | 1.1875e-05 | 1.3e-05    |   0.0 |  6.50
Modify  | 0          | 2.5e-07    | 1e-06      |   0.0 |  0.14
Other   |            | 3.875e-06  |            |       |  2.12

Nlocal:            1.5 ave           4 max           0 min
Histogram: 4 0 0 0 0 2 0 0 0 2
Nghost:          350.5 ave         352 max         348 min
Histogram: 2 0 0 0 0 2 0 0 0 4
Neighs:             73 ave         192 max           0 min
Histogram: 4 0 0 0 0 2 0 0 0 2
FullNghs:          146 ave         384 max           0 min
Histogram: 4 0 0 0 0 2 0 0 0 2

Total # of neighbors = 1168
Ave neighs/atom = 97.333333
Neighbor list builds = 0
Dangerous builds = 0
variable  natoms equal "count(all)"
variable xlength equal "lx"
variable  volume equal "vol"
variable  etotal equal "etotal"
variable    ecoh equal "pe/v_natoms"
print "${xlength}, ${volume}, ${etotal}, ${ecoh}" append lattice_cohesive_energy.txt screen no

next i
jump SELF loop

change_box all x scale 1.0025 y scale 1.0025 z scale 1.0025 remap
Changing box ...
  orthogonal box = (0.13066714 0.18291144 0.56486817) to (3.3225509 4.5081166 13.921992)
  orthogonal box = (0.13066714 0.17750493 0.56486817) to (3.3225509 4.5135231 13.921992)
  orthogonal box = (0.13066714 0.17750493 0.54817176) to (3.3225509 4.5135231 13.938688)

run 1
WARNING: No fixes with time integration, atoms won't move (src/verlet.cpp:60)
Per MPI rank memory allocation (min/avg/max) = 8.545 | 8.546 | 8.548 Mbytes
   Step         PotEng         TotEng           Lx             Ly             Lz           Volume         Press           Pxx            Pyy            Pzz      
        61  -72.211649     -72.211649      3.1918837      4.3360181      13.390516      185.32563      218708.24      153915.71      265379.97      236829.04    
        62  -72.211649     -72.211649      3.1918837      4.3360181      13.390516      185.32563      218708.24      153915.71      265379.97      236829.04    
Loop time of 0.00017375 on 8 procs for 1 steps with 12 atoms

Performance: 497.266 ns/day, 0.048 hours/ns, 5755.396 timesteps/s, 69.065 katom-step/s
0.0% CPU use with 8 MPI tasks x 1 OpenMP threads

MPI task timing breakdown:
Section |  min time  |  avg time  |  max time  |%varavg| %total
---------------------------------------------------------------
Pair    | 0.000129   | 0.00013438 | 0.000145   |   0.0 | 77.34
Neigh   | 0          | 0          | 0          |   0.0 |  0.00
Comm    | 1.3e-05    | 2.375e-05  | 2.9e-05    |   0.0 | 13.67
Output  | 1.1e-05    | 1.1625e-05 | 1.2e-05    |   0.0 |  6.69
Modify  | 0          | 0          | 0          |   0.0 |  0.00
Other   |            | 4e-06      |            |       |  2.30

Nlocal:            1.5 ave           4 max           0 min
Histogram: 4 0 0 0 0 2 0 0 0 2
Nghost:          350.5 ave         352 max         348 min
Histogram: 2 0 0 0 0 2 0 0 0 4
Neighs:             71 ave         184 max           0 min
Histogram: 4 0 0 0 0 2 0 0 0 2
FullNghs:          142 ave         368 max           0 min
Histogram: 4 0 0 0 0 2 0 0 0 2

Total # of neighbors = 1136
Ave neighs/atom = 94.666667
Neighbor list builds = 0
Dangerous builds = 0
variable  natoms equal "count(all)"
variable xlength equal "lx"
variable  volume equal "vol"
variable  etotal equal "etotal"
variable    ecoh equal "pe/v_natoms"
print "${xlength}, ${volume}, ${etotal}, ${ecoh}" append lattice_cohesive_energy.txt screen no

next i
jump SELF loop

change_box all x scale 1.0025 y scale 1.0025 z scale 1.0025 remap
Changing box ...
  orthogonal box = (0.12667729 0.17750493 0.54817176) to (3.3265407 4.5135231 13.938688)
  orthogonal box = (0.12667729 0.17208491 0.54817176) to (3.3265407 4.5189431 13.938688)
  orthogonal box = (0.12667729 0.17208491 0.53143362) to (3.3265407 4.5189431 13.955426)

run 1
WARNING: No fixes with time integration, atoms won't move (src/verlet.cpp:60)
Per MPI rank memory allocation (min/avg/max) = 8.545 | 8.546 | 8.548 Mbytes
   Step         PotEng         TotEng           Lx             Ly             Lz           Volume         Press           Pxx            Pyy            Pzz      
        62  -72.395131     -72.395131      3.1998634      4.3468582      13.423993      186.71905      203320.15      138313.53      249107.25      222539.67    
        63  -72.395131     -72.395131      3.1998634      4.3468582      13.423993      186.71905      203320.15      138313.53      249107.25      222539.67    
Loop time of 0.00017575 on 8 procs for 1 steps with 12 atoms

Performance: 491.607 ns/day, 0.049 hours/ns, 5689.900 timesteps/s, 68.279 katom-step/s
0.0% CPU use with 8 MPI tasks x 1 OpenMP threads

MPI task timing breakdown:
Section |  min time  |  avg time  |  max time  |%varavg| %total
---------------------------------------------------------------
Pair    | 0.00013    | 0.00013575 | 0.000147   |   0.0 | 77.24
Neigh   | 0          | 0          | 0          |   0.0 |  0.00
Comm    | 1.2e-05    | 2.3875e-05 | 2.9e-05    |   0.0 | 13.58
Output  | 1.1e-05    | 1.1875e-05 | 1.2e-05    |   0.0 |  6.76
Modify  | 0          | 1.25e-07   | 1e-06      |   0.0 |  0.07
Other   |            | 4.125e-06  |            |       |  2.35

Nlocal:            1.5 ave           4 max           0 min
Histogram: 4 0 0 0 0 2 0 0 0 2
Nghost:          350.5 ave         352 max         348 min
Histogram: 2 0 0 0 0 2 0 0 0 4
Neighs:             71 ave         184 max           0 min
Histogram: 4 0 0 0 0 2 0 0 0 2
FullNghs:          142 ave         368 max           0 min
Histogram: 4 0 0 0 0 2 0 0 0 2

Total # of neighbors = 1136
Ave neighs/atom = 94.666667
Neighbor list builds = 0
Dangerous builds = 0
variable  natoms equal "count(all)"
variable xlength equal "lx"
variable  volume equal "vol"
variable  etotal equal "etotal"
variable    ecoh equal "pe/v_natoms"
print "${xlength}, ${volume}, ${etotal}, ${ecoh}" append lattice_cohesive_energy.txt screen no

next i
jump SELF loop

change_box all x scale 1.0025 y scale 1.0025 z scale 1.0025 remap
Changing box ...
  orthogonal box = (0.12267746 0.17208491 0.53143362) to (3.3305405 4.5189431 13.955426)
  orthogonal box = (0.12267746 0.16665134 0.53143362) to (3.3305405 4.5243767 13.955426)
  orthogonal box = (0.12267746 0.16665134 0.51465363) to (3.3305405 4.5243767 13.972206)

run 1
WARNING: No fixes with time integration, atoms won't move (src/verlet.cpp:60)
Per MPI rank memory allocation (min/avg/max) = 8.545 | 8.546 | 8.548 Mbytes
   Step         PotEng         TotEng           Lx             Ly             Lz           Volume         Press           Pxx            Pyy            Pzz      
        63  -72.566688     -72.566688      3.2078631      4.3577253      13.457553      188.12294      188338.27      123163.73      233254.91      208596.18    
        64  -72.566688     -72.566688      3.2078631      4.3577253      13.457553      188.12294      188338.27      123163.73      233254.91      208596.18    
Loop time of 0.000172875 on 8 procs for 1 steps with 12 atoms

Performance: 499.783 ns/day, 0.048 hours/ns, 5784.526 timesteps/s, 69.414 katom-step/s
0.0% CPU use with 8 MPI tasks x 1 OpenMP threads

MPI task timing breakdown:
Section |  min time  |  avg time  |  max time  |%varavg| %total
---------------------------------------------------------------
Pair    | 0.000127   | 0.0001325  | 0.000143   |   0.0 | 76.64
Neigh   | 0          | 0          | 0          |   0.0 |  0.00
Comm    | 1.5e-05    | 2.4625e-05 | 3e-05      |   0.0 | 14.24
Output  | 1.1e-05    | 1.1625e-05 | 1.2e-05    |   0.0 |  6.72
Modify  | 0          | 0          | 0          |   0.0 |  0.00
Other   |            | 4.125e-06  |            |       |  2.39

Nlocal:            1.5 ave           4 max           0 min
Histogram: 4 0 0 0 0 2 0 0 0 2
Nghost:          350.5 ave         352 max         348 min
Histogram: 2 0 0 0 0 2 0 0 0 4
Neighs:             71 ave         184 max           0 min
Histogram: 4 0 0 0 0 2 0 0 0 2
FullNghs:          142 ave         368 max           0 min
Histogram: 4 0 0 0 0 2 0 0 0 2

Total # of neighbors = 1136
Ave neighs/atom = 94.666667
Neighbor list builds = 0
Dangerous builds = 0
variable  natoms equal "count(all)"
variable xlength equal "lx"
variable  volume equal "vol"
variable  etotal equal "etotal"
variable    ecoh equal "pe/v_natoms"
print "${xlength}, ${volume}, ${etotal}, ${ecoh}" append lattice_cohesive_energy.txt screen no

next i
jump SELF loop

change_box all x scale 1.0025 y scale 1.0025 z scale 1.0025 remap
Changing box ...
  orthogonal box = (0.11866763 0.16665134 0.51465363) to (3.3345504 4.5243767 13.972206)
  orthogonal box = (0.11866763 0.16120418 0.51465363) to (3.3345504 4.5298238 13.972206)
  orthogonal box = (0.11866763 0.16120418 0.49783169) to (3.3345504 4.5298238 13.989028)

run 1
WARNING: No fixes with time integration, atoms won't move (src/verlet.cpp:60)
Per MPI rank memory allocation (min/avg/max) = 8.545 | 8.546 | 8.548 Mbytes
   Step         PotEng         TotEng           Lx             Ly             Lz           Volume         Press           Pxx            Pyy            Pzz      
        64  -72.726484     -72.726484      3.2158827      4.3686196      13.491197      189.5374       173754.96      108457.03      217815.09      194992.77    
        65  -72.726484     -72.726484      3.2158827      4.3686196      13.491197      189.5374       173754.96      108457.03      217815.09      194992.77    
Loop time of 0.00017775 on 8 procs for 1 steps with 12 atoms

Performance: 486.076 ns/day, 0.049 hours/ns, 5625.879 timesteps/s, 67.511 katom-step/s
0.0% CPU use with 8 MPI tasks x 1 OpenMP threads

MPI task timing breakdown:
Section |  min time  |  avg time  |  max time  |%varavg| %total
---------------------------------------------------------------
Pair    | 0.00013    | 0.00013625 | 0.000148   |   0.0 | 76.65
Neigh   | 0          | 0          | 0          |   0.0 |  0.00
Comm    | 1.3e-05    | 2.4875e-05 | 3.2e-05    |   0.0 | 13.99
Output  | 1.2e-05    | 1.25e-05   | 1.3e-05    |   0.0 |  7.03
Modify  | 0          | 1.25e-07   | 1e-06      |   0.0 |  0.07
Other   |            | 4e-06      |            |       |  2.25

Nlocal:            1.5 ave           4 max           0 min
Histogram: 4 0 0 0 0 2 0 0 0 2
Nghost:          350.5 ave         352 max         348 min
Histogram: 2 0 0 0 0 2 0 0 0 4
Neighs:             71 ave         184 max           0 min
Histogram: 4 0 0 0 0 2 0 0 0 2
FullNghs:          142 ave         368 max           0 min
Histogram: 4 0 0 0 0 2 0 0 0 2

Total # of neighbors = 1136
Ave neighs/atom = 94.666667
Neighbor list builds = 0
Dangerous builds = 0
variable  natoms equal "count(all)"
variable xlength equal "lx"
variable  volume equal "vol"
variable  etotal equal "etotal"
variable    ecoh equal "pe/v_natoms"
print "${xlength}, ${volume}, ${etotal}, ${ecoh}" append lattice_cohesive_energy.txt screen no

next i
jump SELF loop

change_box all x scale 1.0025 y scale 1.0025 z scale 1.0025 remap
Changing box ...
  orthogonal box = (0.11464778 0.16120418 0.49783169) to (3.3385702 4.5298238 13.989028)
  orthogonal box = (0.11464778 0.1557434 0.49783169) to (3.3385702 4.5352846 13.989028)
  orthogonal box = (0.11464778 0.1557434 0.48096769) to (3.3385702 4.5352846 14.005892)

run 1
WARNING: No fixes with time integration, atoms won't move (src/verlet.cpp:60)
Per MPI rank memory allocation (min/avg/max) = 8.545 | 8.546 | 8.548 Mbytes
   Step         PotEng         TotEng           Lx             Ly             Lz           Volume         Press           Pxx            Pyy            Pzz      
        65  -72.874686     -72.874686      3.2239224      4.3795412      13.524925      190.96248      159562.65      94184.271      202780         181723.67    
        66  -72.874686     -72.874686      3.2239224      4.3795412      13.524925      190.96248      159562.65      94184.271      202780         181723.67    
Loop time of 0.00017775 on 8 procs for 1 steps with 12 atoms

Performance: 486.076 ns/day, 0.049 hours/ns, 5625.879 timesteps/s, 67.511 katom-step/s
0.0% CPU use with 8 MPI tasks x 1 OpenMP threads

MPI task timing breakdown:
Section |  min time  |  avg time  |  max time  |%varavg| %total
---------------------------------------------------------------
Pair    | 0.000129   | 0.00013475 | 0.000146   |   0.0 | 75.81
Neigh   | 0          | 0          | 0          |   0.0 |  0.00
Comm    | 1.2e-05    | 2.325e-05  | 2.9e-05    |   0.0 | 13.08
Output  | 1.2e-05    | 1.2875e-05 | 1.3e-05    |   0.0 |  7.24
Modify  | 0          | 1.25e-07   | 1e-06      |   0.0 |  0.07
Other   |            | 6.75e-06   |            |       |  3.80

Nlocal:            1.5 ave           4 max           0 min
Histogram: 4 0 0 0 0 2 0 0 0 2
Nghost:          350.5 ave         352 max         348 min
Histogram: 2 0 0 0 0 2 0 0 0 4
Neighs:             70 ave         180 max           0 min
Histogram: 4 0 0 0 0 2 0 0 0 2
FullNghs:          140 ave         364 max           0 min
Histogram: 4 0 0 0 0 2 0 0 0 2

Total # of neighbors = 1120
Ave neighs/atom = 93.333333
Neighbor list builds = 0
Dangerous builds = 0
variable  natoms equal "count(all)"
variable xlength equal "lx"
variable  volume equal "vol"
variable  etotal equal "etotal"
variable    ecoh equal "pe/v_natoms"
print "${xlength}, ${volume}, ${etotal}, ${ecoh}" append lattice_cohesive_energy.txt screen no

next i
jump SELF loop

change_box all x scale 1.0025 y scale 1.0025 z scale 1.0025 remap
Changing box ...
  orthogonal box = (0.11061787 0.1557434 0.48096769) to (3.3426001 4.5352846 14.005892)
  orthogonal box = (0.11061787 0.15026898 0.48096769) to (3.3426001 4.540759 14.005892)
  orthogonal box = (0.11061787 0.15026898 0.46406153) to (3.3426001 4.540759 14.022798)

run 1
WARNING: No fixes with time integration, atoms won't move (src/verlet.cpp:60)
Per MPI rank memory allocation (min/avg/max) = 8.545 | 8.546 | 8.548 Mbytes
   Step         PotEng         TotEng           Lx             Ly             Lz           Volume         Press           Pxx            Pyy            Pzz      
        66  -73.011455     -73.011455      3.2319823      4.39049        13.558737      192.39829      145753.91      80336.477      188142.02      168783.23    
        67  -73.011455     -73.011455      3.2319823      4.39049        13.558737      192.39829      145753.91      80336.477      188142.02      168783.23    
Loop time of 0.000175 on 8 procs for 1 steps with 12 atoms

Performance: 493.714 ns/day, 0.049 hours/ns, 5714.286 timesteps/s, 68.571 katom-step/s
0.0% CPU use with 8 MPI tasks x 1 OpenMP threads

MPI task timing breakdown:
Section |  min time  |  avg time  |  max time  |%varavg| %total
---------------------------------------------------------------
Pair    | 0.000128   | 0.00013425 | 0.000146   |   0.0 | 76.71
Neigh   | 0          | 0          | 0          |   0.0 |  0.00
Comm    | 1.3e-05    | 2.475e-05  | 3.1e-05    |   0.0 | 14.14
Output  | 1.1e-05    | 1.175e-05  | 1.2e-05    |   0.0 |  6.71
Modify  | 0          | 0          | 0          |   0.0 |  0.00
Other   |            | 4.25e-06   |            |       |  2.43

Nlocal:            1.5 ave           4 max           0 min
Histogram: 4 0 0 0 0 2 0 0 0 2
Nghost:          350.5 ave         352 max         348 min
Histogram: 2 0 0 0 0 2 0 0 0 4
Neighs:             67 ave         172 max           0 min
Histogram: 4 0 0 0 0 2 0 0 0 2
FullNghs:          134 ave         352 max           0 min
Histogram: 4 0 0 0 0 2 0 0 0 2

Total # of neighbors = 1072
Ave neighs/atom = 89.333333
Neighbor list builds = 0
Dangerous builds = 0
variable  natoms equal "count(all)"
variable xlength equal "lx"
variable  volume equal "vol"
variable  etotal equal "etotal"
variable    ecoh equal "pe/v_natoms"
print "${xlength}, ${volume}, ${etotal}, ${ecoh}" append lattice_cohesive_energy.txt screen no

next i
jump SELF loop

change_box all x scale 1.0025 y scale 1.0025 z scale 1.0025 remap
Changing box ...
  orthogonal box = (0.1065779 0.15026898 0.46406153) to (3.3466401 4.540759 14.022798)
  orthogonal box = (0.1065779 0.14478087 0.46406153) to (3.3466401 4.5462471 14.022798)
  orthogonal box = (0.1065779 0.14478087 0.44711311) to (3.3466401 4.5462471 14.039747)

run 1
WARNING: No fixes with time integration, atoms won't move (src/verlet.cpp:60)
Per MPI rank memory allocation (min/avg/max) = 8.545 | 8.546 | 8.548 Mbytes
   Step         PotEng         TotEng           Lx             Ly             Lz           Volume         Press           Pxx            Pyy            Pzz      
        67  -73.136956     -73.136956      3.2400622      4.4014663      13.592634      193.84488      132321.44      66904.825      173893.63      156165.86    
        68  -73.136956     -73.136956      3.2400622      4.4014663      13.592634      193.84488      132321.44      66904.825      173893.63      156165.86    
Loop time of 0.000209 on 8 procs for 1 steps with 12 atoms

Performance: 413.397 ns/day, 0.058 hours/ns, 4784.689 timesteps/s, 57.416 katom-step/s
0.0% CPU use with 8 MPI tasks x 1 OpenMP threads

MPI task timing breakdown:
Section |  min time  |  avg time  |  max time  |%varavg| %total
---------------------------------------------------------------
Pair    | 0.000161   | 0.00016613 | 0.000176   |   0.0 | 79.49
Neigh   | 0          | 0          | 0          |   0.0 |  0.00
Comm    | 1.4e-05    | 2.3125e-05 | 2.8e-05    |   0.0 | 11.06
Output  | 1.3e-05    | 1.375e-05  | 1.4e-05    |   0.0 |  6.58
Modify  | 0          | 1.25e-07   | 1e-06      |   0.0 |  0.06
Other   |            | 5.875e-06  |            |       |  2.81

Nlocal:            1.5 ave           4 max           0 min
Histogram: 4 0 0 0 0 2 0 0 0 2
Nghost:          350.5 ave         352 max         348 min
Histogram: 2 0 0 0 0 2 0 0 0 4
Neighs:             67 ave         172 max           0 min
Histogram: 4 0 0 0 0 2 0 0 0 2
FullNghs:          134 ave         352 max           0 min
Histogram: 4 0 0 0 0 2 0 0 0 2

Total # of neighbors = 1072
Ave neighs/atom = 89.333333
Neighbor list builds = 0
Dangerous builds = 0
variable  natoms equal "count(all)"
variable xlength equal "lx"
variable  volume equal "vol"
variable  etotal equal "etotal"
variable    ecoh equal "pe/v_natoms"
print "${xlength}, ${volume}, ${etotal}, ${ecoh}" append lattice_cohesive_energy.txt screen no

next i
jump SELF loop

change_box all x scale 1.0025 y scale 1.0025 z scale 1.0025 remap
Changing box ...
  orthogonal box = (0.10252782 0.14478087 0.44711311) to (3.3506902 4.5462471 14.039747)
  orthogonal box = (0.10252782 0.13927903 0.44711311) to (3.3506902 4.551749 14.039747)
  orthogonal box = (0.10252782 0.13927903 0.43012232) to (3.3506902 4.551749 14.056738)

run 1
WARNING: No fixes with time integration, atoms won't move (src/verlet.cpp:60)
Per MPI rank memory allocation (min/avg/max) = 8.545 | 8.546 | 8.548 Mbytes
   Step         PotEng         TotEng           Lx             Ly             Lz           Volume         Press           Pxx            Pyy            Pzz      
        68  -73.25135      -73.25135       3.2481624      4.4124699      13.626615      195.30236      119258.01      53880.611      160027.43      143865.99    
        69  -73.25135      -73.25135       3.2481624      4.4124699      13.626615      195.30236      119258.01      53880.611      160027.43      143865.99    
Loop time of 0.000174375 on 8 procs for 1 steps with 12 atoms

Performance: 495.484 ns/day, 0.048 hours/ns, 5734.767 timesteps/s, 68.817 katom-step/s
0.0% CPU use with 8 MPI tasks x 1 OpenMP threads

MPI task timing breakdown:
Section |  min time  |  avg time  |  max time  |%varavg| %total
---------------------------------------------------------------
Pair    | 0.00013    | 0.00013462 | 0.000145   |   0.0 | 77.20
Neigh   | 0          | 0          | 0          |   0.0 |  0.00
Comm    | 1.3e-05    | 2.3e-05    | 2.8e-05    |   0.0 | 13.19
Output  | 1.2e-05    | 1.25e-05   | 1.3e-05    |   0.0 |  7.17
Modify  | 0          | 0          | 0          |   0.0 |  0.00
Other   |            | 4.25e-06   |            |       |  2.44

Nlocal:            1.5 ave           4 max           0 min
Histogram: 4 0 0 0 0 2 0 0 0 2
Nghost:          350.5 ave         352 max         348 min
Histogram: 2 0 0 0 0 2 0 0 0 4
Neighs:             60 ave         156 max           0 min
Histogram: 4 0 0 0 0 2 0 0 0 2
FullNghs:          120 ave         320 max           0 min
Histogram: 4 0 0 0 0 2 0 0 0 2

Total # of neighbors = 960
Ave neighs/atom = 80
Neighbor list builds = 0
Dangerous builds = 0
variable  natoms equal "count(all)"
variable xlength equal "lx"
variable  volume equal "vol"
variable  etotal equal "etotal"
variable    ecoh equal "pe/v_natoms"
print "${xlength}, ${volume}, ${etotal}, ${ecoh}" append lattice_cohesive_energy.txt screen no

next i
jump SELF loop

change_box all x scale 1.0025 y scale 1.0025 z scale 1.0025 remap
Changing box ...
  orthogonal box = (0.098467615 0.13927903 0.43012232) to (3.3547504 4.551749 14.056738)
  orthogonal box = (0.098467615 0.13376345 0.43012232) to (3.3547504 4.5572646 14.056738)
  orthogonal box = (0.098467615 0.13376345 0.41308905) to (3.3547504 4.5572646 14.073771)

run 1
WARNING: No fixes with time integration, atoms won't move (src/verlet.cpp:60)
Per MPI rank memory allocation (min/avg/max) = 8.545 | 8.546 | 8.548 Mbytes
   Step         PotEng         TotEng           Lx             Ly             Lz           Volume         Press           Pxx            Pyy            Pzz      
        69  -73.354798     -73.354798      3.2562828      4.4235011      13.660682      196.77079      106556.5       41255.268      146536.07      131878.16    
        70  -73.354798     -73.354798      3.2562828      4.4235011      13.660682      196.77079      106556.5       41255.268      146536.07      131878.16    
Loop time of 0.000231375 on 8 procs for 1 steps with 12 atoms

Performance: 373.420 ns/day, 0.064 hours/ns, 4321.988 timesteps/s, 51.864 katom-step/s
0.0% CPU use with 8 MPI tasks x 1 OpenMP threads

MPI task timing breakdown:
Section |  min time  |  avg time  |  max time  |%varavg| %total
---------------------------------------------------------------
Pair    | 0.00017    | 0.000179   | 0.000185   |   0.0 | 77.36
Neigh   | 0          | 0          | 0          |   0.0 |  0.00
Comm    | 1.7e-05    | 2.375e-05  | 3.3e-05    |   0.0 | 10.26
Output  | 1.6e-05    | 1.7375e-05 | 2e-05      |   0.0 |  7.51
Modify  | 0          | 6.25e-07   | 2e-06      |   0.0 |  0.27
Other   |            | 1.062e-05  |            |       |  4.59

Nlocal:            1.5 ave           4 max           0 min
Histogram: 4 0 0 0 0 2 0 0 0 2
Nghost:          350.5 ave         352 max         348 min
Histogram: 2 0 0 0 0 2 0 0 0 4
Neighs:             58 ave         156 max           0 min
Histogram: 4 0 0 0 2 0 0 0 0 2
FullNghs:          116 ave         312 max           0 min
Histogram: 4 0 0 0 2 0 0 0 0 2

Total # of neighbors = 928
Ave neighs/atom = 77.333333
Neighbor list builds = 0
Dangerous builds = 0
variable  natoms equal "count(all)"
variable xlength equal "lx"
variable  volume equal "vol"
variable  etotal equal "etotal"
variable    ecoh equal "pe/v_natoms"
print "${xlength}, ${volume}, ${etotal}, ${ecoh}" append lattice_cohesive_energy.txt screen no

next i
jump SELF loop

change_box all x scale 1.0025 y scale 1.0025 z scale 1.0025 remap
Changing box ...
  orthogonal box = (0.094397261 0.13376345 0.41308905) to (3.3588207 4.5572646 14.073771)
  orthogonal box = (0.094397261 0.12823407 0.41308905) to (3.3588207 4.5627939 14.073771)
  orthogonal box = (0.094397261 0.12823407 0.3960132) to (3.3588207 4.5627939 14.090847)

run 1
WARNING: No fixes with time integration, atoms won't move (src/verlet.cpp:60)
Per MPI rank memory allocation (min/avg/max) = 8.545 | 8.546 | 8.548 Mbytes
   Step         PotEng         TotEng           Lx             Ly             Lz           Volume         Press           Pxx            Pyy            Pzz      
        70  -73.447459     -73.447459      3.2644235      4.4345599      13.694834      198.25026      94209.917      29020.393      133412.37      120196.99    
        71  -73.447459     -73.447459      3.2644235      4.4345599      13.694834      198.25026      94209.917      29020.393      133412.37      120196.99    
Loop time of 0.00022325 on 8 procs for 1 steps with 12 atoms

Performance: 387.010 ns/day, 0.062 hours/ns, 4479.283 timesteps/s, 53.751 katom-step/s
0.0% CPU use with 8 MPI tasks x 1 OpenMP threads

MPI task timing breakdown:
Section |  min time  |  avg time  |  max time  |%varavg| %total
---------------------------------------------------------------
Pair    | 0.00016    | 0.000169   | 0.000176   |   0.0 | 75.70
Neigh   | 0          | 0          | 0          |   0.0 |  0.00
Comm    | 1.5e-05    | 2.325e-05  | 3.2e-05    |   0.0 | 10.41
Output  | 1.6e-05    | 1.825e-05  | 2.6e-05    |   0.0 |  8.17
Modify  | 0          | 2.5e-07    | 1e-06      |   0.0 |  0.11
Other   |            | 1.25e-05   |            |       |  5.60

Nlocal:            1.5 ave           4 max           0 min
Histogram: 4 0 0 0 0 2 0 0 0 2
Nghost:          350.5 ave         352 max         348 min
Histogram: 2 0 0 0 0 2 0 0 0 4
Neighs:             58 ave         156 max           0 min
Histogram: 4 0 0 0 2 0 0 0 0 2
FullNghs:          116 ave         312 max           0 min
Histogram: 4 0 0 0 2 0 0 0 0 2

Total # of neighbors = 928
Ave neighs/atom = 77.333333
Neighbor list builds = 0
Dangerous builds = 0
variable  natoms equal "count(all)"
variable xlength equal "lx"
variable  volume equal "vol"
variable  etotal equal "etotal"
variable    ecoh equal "pe/v_natoms"
print "${xlength}, ${volume}, ${etotal}, ${ecoh}" append lattice_cohesive_energy.txt screen no

next i
jump SELF loop

change_box all x scale 1.0025 y scale 1.0025 z scale 1.0025 remap
Changing box ...
  orthogonal box = (0.090316732 0.12823407 0.3960132) to (3.3629013 4.5627939 14.090847)
  orthogonal box = (0.090316732 0.12269087 0.3960132) to (3.3629013 4.5683371 14.090847)
  orthogonal box = (0.090316732 0.12269087 0.37889466) to (3.3629013 4.5683371 14.107965)

run 1
WARNING: No fixes with time integration, atoms won't move (src/verlet.cpp:60)
Per MPI rank memory allocation (min/avg/max) = 8.545 | 8.546 | 8.548 Mbytes
   Step         PotEng         TotEng           Lx             Ly             Lz           Volume         Press           Pxx            Pyy            Pzz      
        71  -73.529493     -73.529493      3.2725845      4.4456463      13.729071      199.74086      82211.345      17167.703      120649.24      108817.09    
        72  -73.529493     -73.529493      3.2725845      4.4456463      13.729071      199.74086      82211.345      17167.703      120649.24      108817.09    
Loop time of 0.000213875 on 8 procs for 1 steps with 12 atoms

Performance: 403.974 ns/day, 0.059 hours/ns, 4675.628 timesteps/s, 56.108 katom-step/s
0.0% CPU use with 8 MPI tasks x 1 OpenMP threads

MPI task timing breakdown:
Section |  min time  |  avg time  |  max time  |%varavg| %total
---------------------------------------------------------------
Pair    | 0.00015    | 0.00016125 | 0.000171   |   0.0 | 75.39
Neigh   | 0          | 0          | 0          |   0.0 |  0.00
Comm    | 1.6e-05    | 2.6e-05    | 3.8e-05    |   0.0 | 12.16
Output  | 1.5e-05    | 1.7e-05    | 1.9e-05    |   0.0 |  7.95
Modify  | 0          | 5e-07      | 1e-06      |   0.0 |  0.23
Other   |            | 9.125e-06  |            |       |  4.27

Nlocal:            1.5 ave           4 max           0 min
Histogram: 4 0 0 0 0 2 0 0 0 2
Nghost:          328.5 ave         352 max         306 min
Histogram: 4 0 0 0 0 0 0 0 0 4
Neighs:             58 ave         156 max           0 min
Histogram: 4 0 0 0 2 0 0 0 0 2
FullNghs:          116 ave         312 max           0 min
Histogram: 4 0 0 0 2 0 0 0 0 2

Total # of neighbors = 928
Ave neighs/atom = 77.333333
Neighbor list builds = 0
Dangerous builds = 0
variable  natoms equal "count(all)"
variable xlength equal "lx"
variable  volume equal "vol"
variable  etotal equal "etotal"
variable    ecoh equal "pe/v_natoms"
print "${xlength}, ${volume}, ${etotal}, ${ecoh}" append lattice_cohesive_energy.txt screen no

next i
jump SELF loop

change_box all x scale 1.0025 y scale 1.0025 z scale 1.0025 remap
Changing box ...
  orthogonal box = (0.086226001 0.12269087 0.37889466) to (3.366992 4.5683371 14.107965)
  orthogonal box = (0.086226001 0.11713381 0.37889466) to (3.366992 4.5738942 14.107965)
  orthogonal box = (0.086226001 0.11713381 0.36173332) to (3.366992 4.5738942 14.125127)

run 1
WARNING: No fixes with time integration, atoms won't move (src/verlet.cpp:60)
Per MPI rank memory allocation (min/avg/max) = 8.545 | 8.546 | 8.548 Mbytes
   Step         PotEng         TotEng           Lx             Ly             Lz           Volume         Press           Pxx            Pyy            Pzz      
        72  -73.601057     -73.601057      3.280766       4.4567604      13.763393      201.24267      70553.996      5689.0645      108239.72      97733.207    
        73  -73.601057     -73.601057      3.280766       4.4567604      13.763393      201.24267      70553.996      5689.0645      108239.72      97733.207    
Loop time of 0.00021325 on 8 procs for 1 steps with 12 atoms

Performance: 405.158 ns/day, 0.059 hours/ns, 4689.332 timesteps/s, 56.272 katom-step/s
0.0% CPU use with 8 MPI tasks x 1 OpenMP threads

MPI task timing breakdown:
Section |  min time  |  avg time  |  max time  |%varavg| %total
---------------------------------------------------------------
Pair    | 0.000155   | 0.00016437 | 0.000172   |   0.0 | 77.08
Neigh   | 0          | 0          | 0          |   0.0 |  0.00
Comm    | 1.6e-05    | 2.3625e-05 | 3.4e-05    |   0.0 | 11.08
Output  | 1.5e-05    | 1.6625e-05 | 1.9e-05    |   0.0 |  7.80
Modify  | 0          | 2.5e-07    | 1e-06      |   0.0 |  0.12
Other   |            | 8.375e-06  |            |       |  3.93

Nlocal:            1.5 ave           4 max           0 min
Histogram: 4 0 0 0 0 2 0 0 0 2
Nghost:          328.5 ave         352 max         306 min
Histogram: 4 0 0 0 0 0 0 0 0 4
Neighs:             56 ave         148 max           0 min
Histogram: 4 0 0 0 0 2 0 0 0 2
FullNghs:          112 ave         304 max           0 min
Histogram: 4 0 0 0 2 0 0 0 0 2

Total # of neighbors = 896
Ave neighs/atom = 74.666667
Neighbor list builds = 0
Dangerous builds = 0
variable  natoms equal "count(all)"
variable xlength equal "lx"
variable  volume equal "vol"
variable  etotal equal "etotal"
variable    ecoh equal "pe/v_natoms"
print "${xlength}, ${volume}, ${etotal}, ${ecoh}" append lattice_cohesive_energy.txt screen no

next i
jump SELF loop

change_box all x scale 1.0025 y scale 1.0025 z scale 1.0025 remap
Changing box ...
  orthogonal box = (0.082125044 0.11713381 0.36173332) to (3.371093 4.5738942 14.125127)
  orthogonal box = (0.082125044 0.11156286 0.36173332) to (3.371093 4.5794651 14.125127)
  orthogonal box = (0.082125044 0.11156286 0.34452908) to (3.371093 4.5794651 14.142331)

run 1
WARNING: No fixes with time integration, atoms won't move (src/verlet.cpp:60)
Per MPI rank memory allocation (min/avg/max) = 8.545 | 8.546 | 8.548 Mbytes
   Step         PotEng         TotEng           Lx             Ly             Lz           Volume         Press           Pxx            Pyy            Pzz      
        73  -73.662309     -73.662309      3.2889679      4.4679023      13.797802      202.75576      59231.158     -5423.5353      96176.874      86940.136    
        74  -73.662309     -73.662309      3.2889679      4.4679023      13.797802      202.75576      59231.158     -5423.5353      96176.874      86940.136    
Loop time of 0.0002075 on 8 procs for 1 steps with 12 atoms

Performance: 416.386 ns/day, 0.058 hours/ns, 4819.277 timesteps/s, 57.831 katom-step/s
0.0% CPU use with 8 MPI tasks x 1 OpenMP threads

MPI task timing breakdown:
Section |  min time  |  avg time  |  max time  |%varavg| %total
---------------------------------------------------------------
Pair    | 0.000149   | 0.00015888 | 0.000166   |   0.0 | 76.57
Neigh   | 0          | 0          | 0          |   0.0 |  0.00
Comm    | 1.6e-05    | 2.3375e-05 | 3.4e-05    |   0.0 | 11.27
Output  | 1.4e-05    | 1.65e-05   | 1.8e-05    |   0.0 |  7.95
Modify  | 0          | 2.5e-07    | 1e-06      |   0.0 |  0.12
Other   |            | 8.5e-06    |            |       |  4.10

Nlocal:            1.5 ave           4 max           0 min
Histogram: 4 0 0 0 0 2 0 0 0 2
Nghost:          328.5 ave         352 max         306 min
Histogram: 4 0 0 0 0 0 0 0 0 4
Neighs:             56 ave         148 max           0 min
Histogram: 4 0 0 0 0 2 0 0 0 2
FullNghs:          112 ave         304 max           0 min
Histogram: 4 0 0 0 2 0 0 0 0 2

Total # of neighbors = 896
Ave neighs/atom = 74.666667
Neighbor list builds = 0
Dangerous builds = 0
variable  natoms equal "count(all)"
variable xlength equal "lx"
variable  volume equal "vol"
variable  etotal equal "etotal"
variable    ecoh equal "pe/v_natoms"
print "${xlength}, ${volume}, ${etotal}, ${ecoh}" append lattice_cohesive_energy.txt screen no

next i
jump SELF loop

change_box all x scale 1.0025 y scale 1.0025 z scale 1.0025 remap
Changing box ...
  orthogonal box = (0.078013834 0.11156286 0.34452908) to (3.3752042 4.5794651 14.142331)
  orthogonal box = (0.078013834 0.10597798 0.34452908) to (3.3752042 4.58505 14.142331)
  orthogonal box = (0.078013834 0.10597798 0.32728182) to (3.3752042 4.58505 14.159578)

run 1
WARNING: No fixes with time integration, atoms won't move (src/verlet.cpp:60)
Per MPI rank memory allocation (min/avg/max) = 8.545 | 8.546 | 8.548 Mbytes
   Step         PotEng         TotEng           Lx             Ly             Lz           Volume         Press           Pxx            Pyy            Pzz      
        74  -73.713404     -73.713404      3.2971903      4.479072       13.832296      204.28024      48236.228     -16177.977      84453.944      76432.715    
        75  -73.713404     -73.713404      3.2971903      4.479072       13.832296      204.28024      48236.228     -16177.977      84453.944      76432.715    
Loop time of 0.000274 on 8 procs for 1 steps with 12 atoms

Performance: 315.328 ns/day, 0.076 hours/ns, 3649.635 timesteps/s, 43.796 katom-step/s
0.0% CPU use with 8 MPI tasks x 1 OpenMP threads

MPI task timing breakdown:
Section |  min time  |  avg time  |  max time  |%varavg| %total
---------------------------------------------------------------
Pair    | 0.000158   | 0.000181   | 0.000231   |   0.0 | 66.06
Neigh   | 0          | 0          | 0          |   0.0 |  0.00
Comm    | 1.7e-05    | 6.725e-05  | 9e-05      |   0.0 | 24.54
Output  | 1.5e-05    | 1.7125e-05 | 1.9e-05    |   0.0 |  6.25
Modify  | 0          | 0          | 0          |   0.0 |  0.00
Other   |            | 8.625e-06  |            |       |  3.15

Nlocal:            1.5 ave           4 max           0 min
Histogram: 4 0 0 0 0 2 0 0 0 2
Nghost:          328.5 ave         352 max         306 min
Histogram: 4 0 0 0 0 0 0 0 0 4
Neighs:             53 ave         144 max           0 min
Histogram: 4 0 0 0 2 0 0 0 0 2
FullNghs:          106 ave         288 max           0 min
Histogram: 4 0 0 0 2 0 0 0 0 2

Total # of neighbors = 848
Ave neighs/atom = 70.666667
Neighbor list builds = 0
Dangerous builds = 0
variable  natoms equal "count(all)"
variable xlength equal "lx"
variable  volume equal "vol"
variable  etotal equal "etotal"
variable    ecoh equal "pe/v_natoms"
print "${xlength}, ${volume}, ${etotal}, ${ecoh}" append lattice_cohesive_energy.txt screen no

next i
jump SELF loop

change_box all x scale 1.0025 y scale 1.0025 z scale 1.0025 remap
Changing box ...
  orthogonal box = (0.073892346 0.10597798 0.32728182) to (3.3793257 4.58505 14.159578)
  orthogonal box = (0.073892346 0.10037914 0.32728182) to (3.3793257 4.5906489 14.159578)
  orthogonal box = (0.073892346 0.10037914 0.30999145) to (3.3793257 4.5906489 14.176869)

run 1
WARNING: No fixes with time integration, atoms won't move (src/verlet.cpp:60)
Per MPI rank memory allocation (min/avg/max) = 8.545 | 8.546 | 8.548 Mbytes
   Step         PotEng         TotEng           Lx             Ly             Lz           Volume         Press           Pxx            Pyy            Pzz      
        75  -73.754498     -73.754498      3.3054333      4.4902697      13.866877      205.81617      37562.705     -26581.993      73064.256      66205.852    
        76  -73.754498     -73.754498      3.3054333      4.4902697      13.866877      205.81617      37562.705     -26581.993      73064.256      66205.852    
Loop time of 0.000236625 on 8 procs for 1 steps with 12 atoms

Performance: 365.135 ns/day, 0.066 hours/ns, 4226.096 timesteps/s, 50.713 katom-step/s
0.0% CPU use with 8 MPI tasks x 1 OpenMP threads

MPI task timing breakdown:
Section |  min time  |  avg time  |  max time  |%varavg| %total
---------------------------------------------------------------
Pair    | 0.000176   | 0.00018362 | 0.000195   |   0.0 | 77.60
Neigh   | 0          | 0          | 0          |   0.0 |  0.00
Comm    | 1.4e-05    | 2.5e-05    | 3.3e-05    |   0.0 | 10.57
Output  | 1.7e-05    | 1.8625e-05 | 2.1e-05    |   0.0 |  7.87
Modify  | 0          | 1.25e-07   | 1e-06      |   0.0 |  0.05
Other   |            | 9.25e-06   |            |       |  3.91

Nlocal:            1.5 ave           4 max           0 min
Histogram: 4 0 0 0 0 2 0 0 0 2
Nghost:          328.5 ave         352 max         306 min
Histogram: 4 0 0 0 0 0 0 0 0 4
Neighs:             53 ave         144 max           0 min
Histogram: 4 0 0 0 2 0 0 0 0 2
FullNghs:          106 ave         288 max           0 min
Histogram: 4 0 0 0 2 0 0 0 0 2

Total # of neighbors = 848
Ave neighs/atom = 70.666667
Neighbor list builds = 0
Dangerous builds = 0
variable  natoms equal "count(all)"
variable xlength equal "lx"
variable  volume equal "vol"
variable  etotal equal "etotal"
variable    ecoh equal "pe/v_natoms"
print "${xlength}, ${volume}, ${etotal}, ${ecoh}" append lattice_cohesive_energy.txt screen no

next i
jump SELF loop

change_box all x scale 1.0025 y scale 1.0025 z scale 1.0025 remap
Changing box ...
  orthogonal box = (0.069760554 0.10037914 0.30999145) to (3.3834574 4.5906489 14.176869)
  orthogonal box = (0.069760554 0.094766306 0.30999145) to (3.3834574 4.5962617 14.176869)
  orthogonal box = (0.069760554 0.094766306 0.29265786) to (3.3834574 4.5962617 14.194202)

run 1
WARNING: No fixes with time integration, atoms won't move (src/verlet.cpp:60)
Per MPI rank memory allocation (min/avg/max) = 8.545 | 8.546 | 8.548 Mbytes
   Step         PotEng         TotEng           Lx             Ly             Lz           Volume         Press           Pxx            Pyy            Pzz      
        76  -73.785745     -73.785745      3.3136969      4.5014954      13.901544      207.36365      27204.206     -36643.189      62001.25       56254.558    
        77  -73.785745     -73.785745      3.3136969      4.5014954      13.901544      207.36365      27204.206     -36643.189      62001.25       56254.558    
Loop time of 0.00023275 on 8 procs for 1 steps with 12 atoms

Performance: 371.214 ns/day, 0.065 hours/ns, 4296.455 timesteps/s, 51.557 katom-step/s
0.0% CPU use with 8 MPI tasks x 1 OpenMP threads

MPI task timing breakdown:
Section |  min time  |  avg time  |  max time  |%varavg| %total
---------------------------------------------------------------
Pair    | 0.000173   | 0.00018025 | 0.000192   |   0.0 | 77.44
Neigh   | 0          | 0          | 0          |   0.0 |  0.00
Comm    | 1.5e-05    | 2.5625e-05 | 3.3e-05    |   0.0 | 11.01
Output  | 1.5e-05    | 1.775e-05  | 2e-05      |   0.0 |  7.63
Modify  | 0          | 0          | 0          |   0.0 |  0.00
Other   |            | 9.125e-06  |            |       |  3.92

Nlocal:            1.5 ave           4 max           0 min
Histogram: 4 0 0 0 0 2 0 0 0 2
Nghost:          328.5 ave         352 max         306 min
Histogram: 4 0 0 0 0 0 0 0 0 4
Neighs:             53 ave         144 max           0 min
Histogram: 4 0 0 0 2 0 0 0 0 2
FullNghs:          106 ave         288 max           0 min
Histogram: 4 0 0 0 2 0 0 0 0 2

Total # of neighbors = 848
Ave neighs/atom = 70.666667
Neighbor list builds = 0
Dangerous builds = 0
variable  natoms equal "count(all)"
variable xlength equal "lx"
variable  volume equal "vol"
variable  etotal equal "etotal"
variable    ecoh equal "pe/v_natoms"
print "${xlength}, ${volume}, ${etotal}, ${ecoh}" append lattice_cohesive_energy.txt screen no

next i
jump SELF loop

change_box all x scale 1.0025 y scale 1.0025 z scale 1.0025 remap
Changing box ...
  orthogonal box = (0.065618433 0.094766306 0.29265786) to (3.3875996 4.5962617 14.194202)
  orthogonal box = (0.065618433 0.089139437 0.29265786) to (3.3875996 4.6018886 14.194202)
  orthogonal box = (0.065618433 0.089139437 0.27528093) to (3.3875996 4.6018886 14.211579)

run 1
WARNING: No fixes with time integration, atoms won't move (src/verlet.cpp:60)
Per MPI rank memory allocation (min/avg/max) = 8.545 | 8.546 | 8.548 Mbytes
   Step         PotEng         TotEng           Lx             Ly             Lz           Volume         Press           Pxx            Pyy            Pzz      
        77  -73.807297     -73.807297      3.3219811      4.5127491      13.936298      208.92277      17154.386     -46369.082      51258.405      46573.834    
        78  -73.807297     -73.807297      3.3219811      4.5127491      13.936298      208.92277      17154.386     -46369.082      51258.405      46573.834    
Loop time of 0.00023125 on 8 procs for 1 steps with 12 atoms

Performance: 373.622 ns/day, 0.064 hours/ns, 4324.324 timesteps/s, 51.892 katom-step/s
0.0% CPU use with 8 MPI tasks x 1 OpenMP threads

MPI task timing breakdown:
Section |  min time  |  avg time  |  max time  |%varavg| %total
---------------------------------------------------------------
Pair    | 0.000173   | 0.00018063 | 0.000191   |   0.0 | 78.11
Neigh   | 0          | 0          | 0          |   0.0 |  0.00
Comm    | 1.5e-05    | 2.4125e-05 | 3.2e-05    |   0.0 | 10.43
Output  | 1.5e-05    | 1.75e-05   | 2e-05      |   0.0 |  7.57
Modify  | 0          | 3.75e-07   | 1e-06      |   0.0 |  0.16
Other   |            | 8.625e-06  |            |       |  3.73

Nlocal:            1.5 ave           4 max           0 min
Histogram: 4 0 0 0 0 2 0 0 0 2
Nghost:          328.5 ave         352 max         306 min
Histogram: 4 0 0 0 0 0 0 0 0 4
Neighs:             51 ave         136 max           0 min
Histogram: 4 0 0 0 0 2 0 0 0 2
FullNghs:          102 ave         272 max           0 min
Histogram: 4 0 0 0 0 2 0 0 0 2

Total # of neighbors = 816
Ave neighs/atom = 68
Neighbor list builds = 0
Dangerous builds = 0
variable  natoms equal "count(all)"
variable xlength equal "lx"
variable  volume equal "vol"
variable  etotal equal "etotal"
variable    ecoh equal "pe/v_natoms"
print "${xlength}, ${volume}, ${etotal}, ${ecoh}" append lattice_cohesive_energy.txt screen no

next i
jump SELF loop

change_box all x scale 1.0025 y scale 1.0025 z scale 1.0025 remap
Changing box ...
  orthogonal box = (0.061465957 0.089139437 0.27528093) to (3.391752 4.6018886 14.211579)
  orthogonal box = (0.061465957 0.0834985 0.27528093) to (3.391752 4.6075295 14.211579)
  orthogonal box = (0.061465957 0.0834985 0.25786055) to (3.391752 4.6075295 14.228999)

run 1
WARNING: No fixes with time integration, atoms won't move (src/verlet.cpp:60)
Per MPI rank memory allocation (min/avg/max) = 8.545 | 8.546 | 8.548 Mbytes
   Step         PotEng         TotEng           Lx             Ly             Lz           Volume         Press           Pxx            Pyy            Pzz      
        78  -73.819307     -73.819307      3.3302861      4.524031       13.971139      210.49361      7407.0489     -55767.023      40829.363      37158.806    
        79  -73.819307     -73.819307      3.3302861      4.524031       13.971139      210.49361      7407.0489     -55767.023      40829.363      37158.806    
Loop time of 0.000232875 on 8 procs for 1 steps with 12 atoms

Performance: 371.014 ns/day, 0.065 hours/ns, 4294.149 timesteps/s, 51.530 katom-step/s
0.0% CPU use with 8 MPI tasks x 1 OpenMP threads

MPI task timing breakdown:
Section |  min time  |  avg time  |  max time  |%varavg| %total
---------------------------------------------------------------
Pair    | 0.000175   | 0.00018237 | 0.000193   |   0.0 | 78.31
Neigh   | 0          | 0          | 0          |   0.0 |  0.00
Comm    | 1.4e-05    | 2.4e-05    | 3.2e-05    |   0.0 | 10.31
Output  | 1.6e-05    | 1.775e-05  | 2e-05      |   0.0 |  7.62
Modify  | 0          | 3.75e-07   | 1e-06      |   0.0 |  0.16
Other   |            | 8.375e-06  |            |       |  3.60

Nlocal:            1.5 ave           4 max           0 min
Histogram: 4 0 0 0 0 2 0 0 0 2
Nghost:          328.5 ave         352 max         306 min
Histogram: 4 0 0 0 0 0 0 0 0 4
Neighs:             51 ave         136 max           0 min
Histogram: 4 0 0 0 0 2 0 0 0 2
FullNghs:          102 ave         272 max           0 min
Histogram: 4 0 0 0 0 2 0 0 0 2

Total # of neighbors = 816
Ave neighs/atom = 68
Neighbor list builds = 0
Dangerous builds = 0
variable  natoms equal "count(all)"
variable xlength equal "lx"
variable  volume equal "vol"
variable  etotal equal "etotal"
variable    ecoh equal "pe/v_natoms"
print "${xlength}, ${volume}, ${etotal}, ${ecoh}" append lattice_cohesive_energy.txt screen no

next i
jump SELF loop

change_box all x scale 1.0025 y scale 1.0025 z scale 1.0025 remap
Changing box ...
  orthogonal box = (0.057303099 0.0834985 0.25786055) to (3.3959149 4.6075295 14.228999)
  orthogonal box = (0.057303099 0.077843461 0.25786055) to (3.3959149 4.6131845 14.228999)
  orthogonal box = (0.057303099 0.077843461 0.24039663) to (3.3959149 4.6131845 14.246463)

run 1
WARNING: No fixes with time integration, atoms won't move (src/verlet.cpp:60)
Per MPI rank memory allocation (min/avg/max) = 8.537 | 8.538 | 8.54 Mbytes
   Step         PotEng         TotEng           Lx             Ly             Lz           Volume         Press           Pxx            Pyy            Pzz      
        79  -73.821926     -73.821926      3.3386118      4.5353411      14.006067      212.07627     -2043.911      -64844.232      30707.852      28004.647    
        80  -73.821926     -73.821926      3.3386118      4.5353411      14.006067      212.07627     -2043.911      -64844.232      30707.852      28004.647    
Loop time of 0.000235 on 8 procs for 1 steps with 12 atoms

Performance: 367.660 ns/day, 0.065 hours/ns, 4255.319 timesteps/s, 51.064 katom-step/s
0.0% CPU use with 8 MPI tasks x 1 OpenMP threads

MPI task timing breakdown:
Section |  min time  |  avg time  |  max time  |%varavg| %total
---------------------------------------------------------------
Pair    | 0.000176   | 0.00018387 | 0.000194   |   0.0 | 78.24
Neigh   | 0          | 0          | 0          |   0.0 |  0.00
Comm    | 1.5e-05    | 2.5e-05    | 3.4e-05    |   0.0 | 10.64
Output  | 1.5e-05    | 1.7375e-05 | 2e-05      |   0.0 |  7.39
Modify  | 0          | 3.75e-07   | 2e-06      |   0.0 |  0.16
Other   |            | 8.375e-06  |            |       |  3.56

Nlocal:            1.5 ave           4 max           0 min
Histogram: 4 0 0 0 0 2 0 0 0 2
Nghost:          328.5 ave         352 max         306 min
Histogram: 4 0 0 0 0 0 0 0 0 4
Neighs:             48 ave         128 max           0 min
Histogram: 4 0 0 0 0 2 0 0 0 2
FullNghs:           96 ave         256 max           0 min
Histogram: 4 0 0 0 0 2 0 0 0 2

Total # of neighbors = 768
Ave neighs/atom = 64
Neighbor list builds = 0
Dangerous builds = 0
variable  natoms equal "count(all)"
variable xlength equal "lx"
variable  volume equal "vol"
variable  etotal equal "etotal"
variable    ecoh equal "pe/v_natoms"
print "${xlength}, ${volume}, ${etotal}, ${ecoh}" append lattice_cohesive_energy.txt screen no

next i
jump SELF loop

change_box all x scale 1.0025 y scale 1.0025 z scale 1.0025 remap
Changing box ...
  orthogonal box = (0.053129834 0.077843461 0.24039663) to (3.4000882 4.6131845 14.246463)
  orthogonal box = (0.053129834 0.072174285 0.24039663) to (3.4000882 4.6188537 14.246463)
  orthogonal box = (0.053129834 0.072174285 0.22288905) to (3.4000882 4.6188537 14.263971)

run 1
WARNING: No fixes with time integration, atoms won't move (src/verlet.cpp:60)
Per MPI rank memory allocation (min/avg/max) = 8.537 | 8.538 | 8.54 Mbytes
   Step         PotEng         TotEng           Lx             Ly             Lz           Volume         Press           Pxx            Pyy            Pzz      
        80  -73.815304     -73.815304      3.3469583      4.5466794      14.041082      213.67082     -11204.526     -73607.822      20887.677      19106.568    
        81  -73.815304     -73.815304      3.3469583      4.5466794      14.041082      213.67082     -11204.526     -73607.822      20887.677      19106.568    
Loop time of 0.00022975 on 8 procs for 1 steps with 12 atoms

Performance: 376.061 ns/day, 0.064 hours/ns, 4352.557 timesteps/s, 52.231 katom-step/s
0.0% CPU use with 8 MPI tasks x 1 OpenMP threads

MPI task timing breakdown:
Section |  min time  |  avg time  |  max time  |%varavg| %total
---------------------------------------------------------------
Pair    | 0.000172   | 0.00017937 | 0.00019    |   0.0 | 78.07
Neigh   | 0          | 0          | 0          |   0.0 |  0.00
Comm    | 1.5e-05    | 2.45e-05   | 3.1e-05    |   0.0 | 10.66
Output  | 1.6e-05    | 1.75e-05   | 2e-05      |   0.0 |  7.62
Modify  | 0          | 0          | 0          |   0.0 |  0.00
Other   |            | 8.375e-06  |            |       |  3.65

Nlocal:            1.5 ave           4 max           0 min
Histogram: 4 0 0 0 0 2 0 0 0 2
Nghost:          328.5 ave         352 max         306 min
Histogram: 4 0 0 0 0 0 0 0 0 4
Neighs:             48 ave         128 max           0 min
Histogram: 4 0 0 0 0 2 0 0 0 2
FullNghs:           96 ave         256 max           0 min
Histogram: 4 0 0 0 0 2 0 0 0 2

Total # of neighbors = 768
Ave neighs/atom = 64
Neighbor list builds = 0
Dangerous builds = 0
variable  natoms equal "count(all)"
variable xlength equal "lx"
variable  volume equal "vol"
variable  etotal equal "etotal"
variable    ecoh equal "pe/v_natoms"
print "${xlength}, ${volume}, ${etotal}, ${ecoh}" append lattice_cohesive_energy.txt screen no

next i
jump SELF loop

change_box all x scale 1.0025 y scale 1.0025 z scale 1.0025 remap
Changing box ...
  orthogonal box = (0.048946136 0.072174285 0.22288905) to (3.4042719 4.6188537 14.263971)
  orthogonal box = (0.048946136 0.066490936 0.22288905) to (3.4042719 4.6245371 14.263971)
  orthogonal box = (0.048946136 0.066490936 0.2053377) to (3.4042719 4.6245371 14.281522)

run 1
WARNING: No fixes with time integration, atoms won't move (src/verlet.cpp:60)
Per MPI rank memory allocation (min/avg/max) = 8.537 | 8.538 | 8.54 Mbytes
   Step         PotEng         TotEng           Lx             Ly             Lz           Volume         Press           Pxx            Pyy            Pzz      
        81  -73.79959      -73.79959       3.3553257      4.5580461      14.076185      215.27736     -20080.733     -82064.768      11362.733      10459.838    
        82  -73.79959      -73.79959       3.3553257      4.5580461      14.076185      215.27736     -20080.733     -82064.768      11362.733      10459.838    
Loop time of 0.000222875 on 8 procs for 1 steps with 12 atoms

Performance: 387.661 ns/day, 0.062 hours/ns, 4486.820 timesteps/s, 53.842 katom-step/s
0.0% CPU use with 8 MPI tasks x 1 OpenMP threads

MPI task timing breakdown:
Section |  min time  |  avg time  |  max time  |%varavg| %total
---------------------------------------------------------------
Pair    | 0.000169   | 0.00017537 | 0.000183   |   0.0 | 78.69
Neigh   | 0          | 0          | 0          |   0.0 |  0.00
Comm    | 1.5e-05    | 2.1625e-05 | 2.9e-05    |   0.0 |  9.70
Output  | 1.5e-05    | 1.7e-05    | 1.9e-05    |   0.0 |  7.63
Modify  | 0          | 2.5e-07    | 1e-06      |   0.0 |  0.11
Other   |            | 8.625e-06  |            |       |  3.87

Nlocal:            1.5 ave           4 max           0 min
Histogram: 4 0 0 0 0 2 0 0 0 2
Nghost:          328.5 ave         352 max         306 min
Histogram: 4 0 0 0 0 0 0 0 0 4
Neighs:             48 ave         128 max           0 min
Histogram: 4 0 0 0 0 2 0 0 0 2
FullNghs:           96 ave         256 max           0 min
Histogram: 4 0 0 0 0 2 0 0 0 2

Total # of neighbors = 768
Ave neighs/atom = 64
Neighbor list builds = 0
Dangerous builds = 0
variable  natoms equal "count(all)"
variable xlength equal "lx"
variable  volume equal "vol"
variable  etotal equal "etotal"
variable    ecoh equal "pe/v_natoms"
print "${xlength}, ${volume}, ${etotal}, ${ecoh}" append lattice_cohesive_energy.txt screen no

next i
jump SELF loop

change_box all x scale 1.0025 y scale 1.0025 z scale 1.0025 remap
Changing box ...
  orthogonal box = (0.044751979 0.066490936 0.2053377) to (3.408466 4.6245371 14.281522)
  orthogonal box = (0.044751979 0.060793378 0.2053377) to (3.408466 4.6302346 14.281522)
  orthogonal box = (0.044751979 0.060793378 0.18774246) to (3.408466 4.6302346 14.299118)

run 1
WARNING: No fixes with time integration, atoms won't move (src/verlet.cpp:60)
Per MPI rank memory allocation (min/avg/max) = 8.537 | 8.538 | 8.54 Mbytes
   Step         PotEng         TotEng           Lx             Ly             Lz           Volume         Press           Pxx            Pyy            Pzz      
        82  -73.774931     -73.774931      3.363714       4.5694412      14.111375      216.89598     -28678.381     -90221.957      2127.0311      2059.783     
        83  -73.774931     -73.774931      3.363714       4.5694412      14.111375      216.89598     -28678.381     -90221.957      2127.0311      2059.783     
Loop time of 0.000297625 on 8 procs for 1 steps with 12 atoms

Performance: 290.298 ns/day, 0.083 hours/ns, 3359.933 timesteps/s, 40.319 katom-step/s
0.0% CPU use with 8 MPI tasks x 1 OpenMP threads

MPI task timing breakdown:
Section |  min time  |  avg time  |  max time  |%varavg| %total
---------------------------------------------------------------
Pair    | 0.00024    | 0.00024675 | 0.000255   |   0.0 | 82.91
Neigh   | 0          | 0          | 0          |   0.0 |  0.00
Comm    | 1.6e-05    | 2.3625e-05 | 3.1e-05    |   0.0 |  7.94
Output  | 1.6e-05    | 1.8125e-05 | 2e-05      |   0.0 |  6.09
Modify  | 0          | 3.75e-07   | 1e-06      |   0.0 |  0.13
Other   |            | 8.75e-06   |            |       |  2.94

Nlocal:            1.5 ave           4 max           0 min
Histogram: 4 0 0 0 0 2 0 0 0 2
Nghost:          328.5 ave         352 max         306 min
Histogram: 4 0 0 0 0 0 0 0 0 4
Neighs:             48 ave         128 max           0 min
Histogram: 4 0 0 0 0 2 0 0 0 2
FullNghs:           96 ave         256 max           0 min
Histogram: 4 0 0 0 0 2 0 0 0 2

Total # of neighbors = 768
Ave neighs/atom = 64
Neighbor list builds = 0
Dangerous builds = 0
variable  natoms equal "count(all)"
variable xlength equal "lx"
variable  volume equal "vol"
variable  etotal equal "etotal"
variable    ecoh equal "pe/v_natoms"
[...]
Neigh   | 0          | 0          | 0          |   0.0 |  0.00
Comm    | 1.2e-05    | 1.7375e-05 | 2.3e-05    |   0.0 | 10.57
Output  | 1.4e-05    | 1.6125e-05 | 1.9e-05    |   0.0 |  9.81
Modify  | 0          | 1.25e-07   | 1e-06      |   0.0 |  0.08
Other   |            | 7.625e-06  |            |       |  4.64

Nlocal:            1.5 ave           4 max           0 min
Histogram: 4 0 0 0 0 2 0 0 0 2
Nghost:          229.5 ave         231 max         227 min
Histogram: 2 0 0 0 0 2 0 0 0 4
Neighs:             47 ave         124 max           0 min
Histogram: 4 0 0 0 0 2 0 0 0 2
FullNghs:           94 ave         248 max           0 min
Histogram: 4 0 0 0 0 2 0 0 0 2

Total # of neighbors = 752
Ave neighs/atom = 62.666667
Neighbor list builds = 0
Dangerous builds = 0
variable  natoms equal "count(all)"
variable xlength equal "lx"
variable  volume equal "vol"
variable  etotal equal "etotal"
variable    ecoh equal "pe/v_natoms"
print "${xlength}, ${volume}, ${etotal}, ${ecoh}" append lattice_cohesive_energy.txt screen no

next i
jump SELF loop

change_box all x scale 1.0025 y scale 1.0025 z scale 1.0025 remap
Changing box ...
  orthogonal box = (-0.019433425 -0.020484363 -0.063259928) to (3.4726514 4.7115124 14.55012)
  orthogonal box = (-0.019433425 -0.026399359 -0.063259928) to (3.4726514 4.7174274 14.55012)
  orthogonal box = (-0.019433425 -0.026399359 -0.081526653) to (3.4726514 4.7174274 14.568387)

run 1
WARNING: No fixes with time integration, atoms won't move (src/verlet.cpp:60)
Per MPI rank memory allocation (min/avg/max) = 8.529 | 8.53 | 8.532 Mbytes
   Step         PotEng         TotEng           Lx             Ly             Lz           Volume         Press           Pxx            Pyy            Pzz      
        97  -72.432735     -72.432735      3.4920848      4.7438267      14.649913      242.6882      -126462.74     -179304.23     -104281.6      -95802.386    
        98  -72.432735     -72.432735      3.4920848      4.7438267      14.649913      242.6882      -126462.74     -179304.23     -104281.6      -95802.386    
Loop time of 0.000163625 on 8 procs for 1 steps with 12 atoms

Performance: 528.037 ns/day, 0.045 hours/ns, 6111.536 timesteps/s, 73.338 katom-step/s
0.0% CPU use with 8 MPI tasks x 1 OpenMP threads

MPI task timing breakdown:
Section |  min time  |  avg time  |  max time  |%varavg| %total
---------------------------------------------------------------
Pair    | 0.000115   | 0.00012213 | 0.000127   |   0.0 | 74.64
Neigh   | 0          | 0          | 0          |   0.0 |  0.00
Comm    | 1.2e-05    | 1.775e-05  | 2.6e-05    |   0.0 | 10.85
Output  | 1.4e-05    | 1.575e-05  | 1.7e-05    |   0.0 |  9.63
Modify  | 0          | 0          | 0          |   0.0 |  0.00
Other   |            | 8e-06      |            |       |  4.89

Nlocal:            1.5 ave           4 max           0 min
Histogram: 4 0 0 0 0 2 0 0 0 2
Nghost:          229.5 ave         231 max         227 min
Histogram: 2 0 0 0 0 2 0 0 0 4
Neighs:             47 ave         124 max           0 min
Histogram: 4 0 0 0 0 2 0 0 0 2
FullNghs:           94 ave         248 max           0 min
Histogram: 4 0 0 0 0 2 0 0 0 2

Total # of neighbors = 752
Ave neighs/atom = 62.666667
Neighbor list builds = 0
Dangerous builds = 0
variable  natoms equal "count(all)"
variable xlength equal "lx"
variable  volume equal "vol"
variable  etotal equal "etotal"
variable    ecoh equal "pe/v_natoms"
print "${xlength}, ${volume}, ${etotal}, ${ecoh}" append lattice_cohesive_energy.txt screen no

next i
jump SELF loop

change_box all x scale 1.0025 y scale 1.0025 z scale 1.0025 remap
Changing box ...
  orthogonal box = (-0.023798531 -0.026399359 -0.081526653) to (3.4770165 4.7174274 14.568387)
  orthogonal box = (-0.023798531 -0.032329142 -0.081526653) to (3.4770165 4.7233571 14.568387)
  orthogonal box = (-0.023798531 -0.032329142 -0.099839045) to (3.4770165 4.7233571 14.586699)

run 1
WARNING: No fixes with time integration, atoms won't move (src/verlet.cpp:60)
Per MPI rank memory allocation (min/avg/max) = 8.521 | 8.522 | 8.525 Mbytes
   Step         PotEng         TotEng           Lx             Ly             Lz           Volume         Press           Pxx            Pyy            Pzz      
        98  -72.285804     -72.285804      3.5008151      4.7556863      14.686538      244.51291     -131699.77     -184283.22     -109786.63     -101029.45    
        99  -72.285804     -72.285804      3.5008151      4.7556863      14.686538      244.51291     -131699.77     -184283.22     -109786.63     -101029.45    
Loop time of 0.000157375 on 8 procs for 1 steps with 12 atoms

Performance: 549.007 ns/day, 0.044 hours/ns, 6354.249 timesteps/s, 76.251 katom-step/s
0.0% CPU use with 8 MPI tasks x 1 OpenMP threads

MPI task timing breakdown:
Section |  min time  |  avg time  |  max time  |%varavg| %total
---------------------------------------------------------------
Pair    | 0.00011    | 0.00011675 | 0.000122   |   0.0 | 74.19
Neigh   | 0          | 0          | 0          |   0.0 |  0.00
Comm    | 1.1e-05    | 1.725e-05  | 2.4e-05    |   0.0 | 10.96
Output  | 1.4e-05    | 1.5625e-05 | 1.8e-05    |   0.0 |  9.93
Modify  | 0          | 1.25e-07   | 1e-06      |   0.0 |  0.08
Other   |            | 7.625e-06  |            |       |  4.85

Nlocal:            1.5 ave           4 max           0 min
Histogram: 4 0 0 0 0 2 0 0 0 2
Nghost:          187.5 ave         189 max         185 min
Histogram: 2 0 0 0 0 2 0 0 0 4
Neighs:           45.5 ave         120 max           0 min
Histogram: 4 0 0 0 0 2 0 0 0 2
FullNghs:           91 ave         240 max           0 min
Histogram: 4 0 0 0 0 2 0 0 0 2

Total # of neighbors = 728
Ave neighs/atom = 60.666667
Neighbor list builds = 0
Dangerous builds = 0
variable  natoms equal "count(all)"
variable xlength equal "lx"
variable  volume equal "vol"
variable  etotal equal "etotal"
variable    ecoh equal "pe/v_natoms"
print "${xlength}, ${volume}, ${etotal}, ${ecoh}" append lattice_cohesive_energy.txt screen no

next i
jump SELF loop

change_box all x scale 1.0025 y scale 1.0025 z scale 1.0025 remap
Changing box ...
  orthogonal box = (-0.02817455 -0.032329142 -0.099839045) to (3.4813925 4.7233571 14.586699)
  orthogonal box = (-0.02817455 -0.03827375 -0.099839045) to (3.4813925 4.7293017 14.586699)
  orthogonal box = (-0.02817455 -0.03827375 -0.11819722) to (3.4813925 4.7293017 14.605057)

run 1
WARNING: No fixes with time integration, atoms won't move (src/verlet.cpp:60)
Per MPI rank memory allocation (min/avg/max) = 8.521 | 8.522 | 8.525 Mbytes
   Step         PotEng         TotEng           Lx             Ly             Lz           Volume         Press           Pxx            Pyy            Pzz      
        99  -72.131212     -72.131212      3.5095671      4.7675755      14.723254      246.35135     -137440.55     -189928.28     -115635.91     -106757.45    
       100  -72.131212     -72.131212      3.5095671      4.7675755      14.723254      246.35135     -137440.55     -189928.28     -115635.91     -106757.45    
Loop time of 0.000155875 on 8 procs for 1 steps with 12 atoms

Performance: 554.290 ns/day, 0.043 hours/ns, 6415.397 timesteps/s, 76.985 katom-step/s
0.0% CPU use with 8 MPI tasks x 1 OpenMP threads

MPI task timing breakdown:
Section |  min time  |  avg time  |  max time  |%varavg| %total
---------------------------------------------------------------
Pair    | 0.000109   | 0.0001145  | 0.00012    |   0.0 | 73.46
Neigh   | 0          | 0          | 0          |   0.0 |  0.00
Comm    | 1.1e-05    | 1.7375e-05 | 2.3e-05    |   0.0 | 11.15
Output  | 1.5e-05    | 1.65e-05   | 1.8e-05    |   0.0 | 10.59
Modify  | 0          | 1.25e-07   | 1e-06      |   0.0 |  0.08
Other   |            | 7.375e-06  |            |       |  4.73

Nlocal:            1.5 ave           4 max           0 min
Histogram: 4 0 0 0 0 2 0 0 0 2
Nghost:          187.5 ave         189 max         185 min
Histogram: 2 0 0 0 0 2 0 0 0 4
Neighs:           45.5 ave         120 max           0 min
Histogram: 4 0 0 0 0 2 0 0 0 2
FullNghs:           91 ave         240 max           0 min
Histogram: 4 0 0 0 0 2 0 0 0 2

Total # of neighbors = 728
Ave neighs/atom = 60.666667
Neighbor list builds = 0
Dangerous builds = 0
variable  natoms equal "count(all)"
variable xlength equal "lx"
variable  volume equal "vol"
variable  etotal equal "etotal"
variable    ecoh equal "pe/v_natoms"
print "${xlength}, ${volume}, ${etotal}, ${ecoh}" append lattice_cohesive_energy.txt screen no

next i
jump SELF loop

change_box all x scale 1.0025 y scale 1.0025 z scale 1.0025 remap
Changing box ...
  orthogonal box = (-0.032561509 -0.03827375 -0.11819722) to (3.4857795 4.7293017 14.605057)
  orthogonal box = (-0.032561509 -0.044233219 -0.11819722) to (3.4857795 4.7352612 14.605057)
  orthogonal box = (-0.032561509 -0.044233219 -0.13660129) to (3.4857795 4.7352612 14.623461)

run 1
WARNING: No fixes with time integration, atoms won't move (src/verlet.cpp:60)
Per MPI rank memory allocation (min/avg/max) = 8.521 | 8.522 | 8.525 Mbytes
   Step         PotEng         TotEng           Lx             Ly             Lz           Volume         Press           Pxx            Pyy            Pzz      
       100  -71.969705     -71.969705      3.518341       4.7794944      14.760063      248.20361     -141926.03     -193736.11     -120592.27     -111449.69    
       101  -71.969705     -71.969705      3.518341       4.7794944      14.760063      248.20361     -141926.03     -193736.11     -120592.27     -111449.69    
Loop time of 0.000183875 on 8 procs for 1 steps with 12 atoms

Performance: 469.884 ns/day, 0.051 hours/ns, 5438.477 timesteps/s, 65.262 katom-step/s
0.0% CPU use with 8 MPI tasks x 1 OpenMP threads

MPI task timing breakdown:
Section |  min time  |  avg time  |  max time  |%varavg| %total
---------------------------------------------------------------
Pair    | 0.000132   | 0.00013638 | 0.000142   |   0.0 | 74.17
Neigh   | 0          | 0          | 0          |   0.0 |  0.00
Comm    | 1.4e-05    | 1.8625e-05 | 2.3e-05    |   0.0 | 10.13
Output  | 1.7e-05    | 1.9375e-05 | 2.1e-05    |   0.0 | 10.54
Modify  | 0          | 0          | 0          |   0.0 |  0.00
Other   |            | 9.5e-06    |            |       |  5.17

Nlocal:            1.5 ave           4 max           0 min
Histogram: 4 0 0 0 0 2 0 0 0 2
Nghost:          187.5 ave         189 max         185 min
Histogram: 2 0 0 0 0 2 0 0 0 4
Neighs:           45.5 ave         120 max           0 min
Histogram: 4 0 0 0 0 2 0 0 0 2
FullNghs:           91 ave         240 max           0 min
Histogram: 4 0 0 0 0 2 0 0 0 2

Total # of neighbors = 728
Ave neighs/atom = 60.666667
Neighbor list builds = 0
Dangerous builds = 0
variable  natoms equal "count(all)"
variable xlength equal "lx"
variable  volume equal "vol"
variable  etotal equal "etotal"
variable    ecoh equal "pe/v_natoms"
print "${xlength}, ${volume}, ${etotal}, ${ecoh}" append lattice_cohesive_energy.txt screen no

next i
jump SELF loop

change_box all x scale 1.0025 y scale 1.0025 z scale 1.0025 remap
Changing box ...
  orthogonal box = (-0.036959435 -0.044233219 -0.13660129) to (3.4901774 4.7352612 14.623461)
  orthogonal box = (-0.036959435 -0.050207587 -0.13660129) to (3.4901774 4.7412356 14.623461)
  orthogonal box = (-0.036959435 -0.050207587 -0.15505136) to (3.4901774 4.7412356 14.641911)

run 1
WARNING: No fixes with time integration, atoms won't move (src/verlet.cpp:60)
Per MPI rank memory allocation (min/avg/max) = 8.521 | 8.522 | 8.525 Mbytes
   Step         PotEng         TotEng           Lx             Ly             Lz           Volume         Press           Pxx            Pyy            Pzz      
       101  -71.801866     -71.801866      3.5271369      4.7914432      14.796963      250.06979     -146227.95     -197353.99     -125357        -115972.87    
       102  -71.801866     -71.801866      3.5271369      4.7914432      14.796963      250.06979     -146227.95     -197353.99     -125357        -115972.87    
Loop time of 0.00021925 on 8 procs for 1 steps with 12 atoms

Performance: 394.071 ns/day, 0.061 hours/ns, 4561.003 timesteps/s, 54.732 katom-step/s
0.0% CPU use with 8 MPI tasks x 1 OpenMP threads

MPI task timing breakdown:
Section |  min time  |  avg time  |  max time  |%varavg| %total
---------------------------------------------------------------
Pair    | 0.000133   | 0.00015687 | 0.000181   |   0.0 | 71.55
Neigh   | 0          | 0          | 0          |   0.0 |  0.00
Comm    | 1.3e-05    | 3.6125e-05 | 6e-05      |   0.0 | 16.48
Output  | 1.7e-05    | 1.8375e-05 | 2.1e-05    |   0.0 |  8.38
Modify  | 0          | 1.25e-07   | 1e-06      |   0.0 |  0.06
Other   |            | 7.75e-06   |            |       |  3.53

Nlocal:            1.5 ave           4 max           0 min
Histogram: 4 0 0 0 0 2 0 0 0 2
Nghost:          187.5 ave         189 max         185 min
Histogram: 2 0 0 0 0 2 0 0 0 4
Neighs:           45.5 ave         120 max           0 min
Histogram: 4 0 0 0 0 2 0 0 0 2
FullNghs:           91 ave         240 max           0 min
Histogram: 4 0 0 0 0 2 0 0 0 2

Total # of neighbors = 728
Ave neighs/atom = 60.666667
Neighbor list builds = 0
Dangerous builds = 0
variable  natoms equal "count(all)"
variable xlength equal "lx"
variable  volume equal "vol"
variable  etotal equal "etotal"
variable    ecoh equal "pe/v_natoms"
print "${xlength}, ${volume}, ${etotal}, ${ecoh}" append lattice_cohesive_energy.txt screen no

next i
jump SELF loop

change_box all x scale 1.0025 y scale 1.0025 z scale 1.0025 remap
Changing box ...
  orthogonal box = (-0.041368356 -0.050207587 -0.15505136) to (3.4945864 4.7412356 14.641911)
  orthogonal box = (-0.041368356 -0.056196891 -0.15505136) to (3.4945864 4.7472249 14.641911)
  orthogonal box = (-0.041368356 -0.056196891 -0.17354757) to (3.4945864 4.7472249 14.660408)

run 1
WARNING: No fixes with time integration, atoms won't move (src/verlet.cpp:60)
Per MPI rank memory allocation (min/avg/max) = 8.521 | 8.522 | 8.525 Mbytes
   Step         PotEng         TotEng           Lx             Ly             Lz           Volume         Press           Pxx            Pyy            Pzz      
       102  -71.627822     -71.627822      3.5359547      4.8034218      14.833955      251.95001     -150350.56     -200786.73     -129934.42     -120330.53    
       103  -71.627822     -71.627822      3.5359547      4.8034218      14.833955      251.95001     -150350.56     -200786.73     -129934.42     -120330.53    
Loop time of 0.000169125 on 8 procs for 1 steps with 12 atoms

Performance: 510.865 ns/day, 0.047 hours/ns, 5912.786 timesteps/s, 70.953 katom-step/s
0.0% CPU use with 8 MPI tasks x 1 OpenMP threads

MPI task timing breakdown:
Section |  min time  |  avg time  |  max time  |%varavg| %total
---------------------------------------------------------------
Pair    | 0.000119   | 0.0001235  | 0.000129   |   0.0 | 73.02
Neigh   | 0          | 0          | 0          |   0.0 |  0.00
Comm    | 1.4e-05    | 1.9e-05    | 2.4e-05    |   0.0 | 11.23
Output  | 1.6e-05    | 1.825e-05  | 2e-05      |   0.0 | 10.79
Modify  | 0          | 3.75e-07   | 1e-06      |   0.0 |  0.22
Other   |            | 8e-06      |            |       |  4.73

Nlocal:            1.5 ave           4 max           0 min
Histogram: 4 0 0 0 0 2 0 0 0 2
Nghost:          187.5 ave         189 max         185 min
Histogram: 2 0 0 0 0 2 0 0 0 4
Neighs:           45.5 ave         120 max           0 min
Histogram: 4 0 0 0 0 2 0 0 0 2
FullNghs:           91 ave         240 max           0 min
Histogram: 4 0 0 0 0 2 0 0 0 2

Total # of neighbors = 728
Ave neighs/atom = 60.666667
Neighbor list builds = 0
Dangerous builds = 0
variable  natoms equal "count(all)"
variable xlength equal "lx"
variable  volume equal "vol"
variable  etotal equal "etotal"
variable    ecoh equal "pe/v_natoms"
print "${xlength}, ${volume}, ${etotal}, ${ecoh}" append lattice_cohesive_energy.txt screen no

next i
jump SELF loop

change_box all x scale 1.0025 y scale 1.0025 z scale 1.0025 remap
Changing box ...
  orthogonal box = (-0.045788299 -0.056196891 -0.17354757) to (3.4990063 4.7472249 14.660408)
  orthogonal box = (-0.045788299 -0.062201168 -0.17354757) to (3.4990063 4.7532292 14.660408)
  orthogonal box = (-0.045788299 -0.062201168 -0.19209001) to (3.4990063 4.7532292 14.67895)

run 1
WARNING: No fixes with time integration, atoms won't move (src/verlet.cpp:60)
Per MPI rank memory allocation (min/avg/max) = 8.521 | 8.522 | 8.525 Mbytes
   Step         PotEng         TotEng           Lx             Ly             Lz           Volume         Press           Pxx            Pyy            Pzz      
       103  -71.4477       -71.4477        3.5447946      4.8154303      14.87104       253.84436     -154298.01     -204039.04     -134328.82     -124526.17    
       104  -71.4477       -71.4477        3.5447946      4.8154303      14.87104       253.84436     -154298.01     -204039.04     -134328.82     -124526.17    
Loop time of 0.000167125 on 8 procs for 1 steps with 12 atoms

Performance: 516.978 ns/day, 0.046 hours/ns, 5983.545 timesteps/s, 71.803 katom-step/s
0.0% CPU use with 8 MPI tasks x 1 OpenMP threads

MPI task timing breakdown:
Section |  min time  |  avg time  |  max time  |%varavg| %total
---------------------------------------------------------------
Pair    | 0.000119   | 0.00012325 | 0.000128   |   0.0 | 73.75
Neigh   | 0          | 0          | 0          |   0.0 |  0.00
Comm    | 1.4e-05    | 1.8375e-05 | 2.2e-05    |   0.0 | 10.99
Output  | 1.5e-05    | 1.7625e-05 | 1.9e-05    |   0.0 | 10.55
Modify  | 0          | 1.25e-07   | 1e-06      |   0.0 |  0.07
Other   |            | 7.75e-06   |            |       |  4.64

Nlocal:            1.5 ave           4 max           0 min
Histogram: 4 0 0 0 0 2 0 0 0 2
Nghost:          187.5 ave         189 max         185 min
Histogram: 2 0 0 0 0 2 0 0 0 4
Neighs:           45.5 ave         120 max           0 min
Histogram: 4 0 0 0 0 2 0 0 0 2
FullNghs:           91 ave         240 max           0 min
Histogram: 4 0 0 0 0 2 0 0 0 2

Total # of neighbors = 728
Ave neighs/atom = 60.666667
Neighbor list builds = 0
Dangerous builds = 0
variable  natoms equal "count(all)"
variable xlength equal "lx"
variable  volume equal "vol"
variable  etotal equal "etotal"
variable    ecoh equal "pe/v_natoms"
print "${xlength}, ${volume}, ${etotal}, ${ecoh}" append lattice_cohesive_energy.txt screen no

next i
jump SELF loop

print "-------------------------------------------------------------"
-------------------------------------------------------------
print "Show results of 1st step (Running Minimization)"
Show results of 1st step (Running Minimization)
print "The number of atoms = ${natoms};"
The number of atoms = 12;
print "The lattice constant, x (Angstoms) = ${x0};"
The lattice constant, x (Angstoms) = 3.5447945987526;
print "The lattice constant, y (Angstoms) = ${y0};"
The lattice constant, y (Angstoms) = 4.8154303368618;
print "The lattice constant, z (Angstoms) = ${z0};"
The lattice constant, z (Angstoms) = 14.8710400214771;
print "The volume (Angstoms^3) = ${v0};"
The volume (Angstoms^3) = 253.84436210983;
print "The total energy (eV) = ${etot0};"
The total energy (eV) = -71.4476997229932;
print "The cohesive energy (eV/atom) = ${ecoh0};"
The cohesive energy (eV/atom) = -5.9539749769161;
print "-------------------------------------------------------------"
-------------------------------------------------------------
print "Simulations completed !"
Simulations completed !
Total wall time: 0:00:00
