LAMMPS (22 Dec 2022)
  using 1 OpenMP thread(s) per MPI task
Loaded 1 plugins from C:\Program Files\LAMMPS 64-bit 23Jun2022\plugins
Loaded 0 plugins from C:\Program Files\LAMMPS 64-bit 23Jun2022-MPI\plugins
Loaded 1 plugins from C:\Program Files\LAMMPS 64-bit 22Dec2022-MSMPI\plugins
Loaded 1 plugins from C:\Program Files\LAMMPS 64-bit 28Mar2023-MPI\plugins
#------------------------------------------------------------------------------------------
# LAMMPS 64-bit 22Dec2022-MSMPI
#------------------------------------------------------------------------------------------
clear
  using 1 OpenMP thread(s) per MPI task
Loaded 1 plugins from C:\Program Files\LAMMPS 64-bit 23Jun2022\plugins
Loaded 0 plugins from C:\Program Files\LAMMPS 64-bit 23Jun2022-MPI\plugins
Loaded 1 plugins from C:\Program Files\LAMMPS 64-bit 22Dec2022-MSMPI\plugins
Loaded 1 plugins from C:\Program Files\LAMMPS 64-bit 28Mar2023-MPI\plugins
#echo both
# ---------- Initializing Simulation ---------------------------------
units metal
dimension 3
boundary p p p
atom_style atomic
atom_modify map array

#read_data ./../../VNb.data
#read_data ./../../VTa.data
#read_data ./../../VTi.data
#read_data ./../../VZr.data
#read_data ./../../NbTa.data
#read_data ./../../NbTi.data
#read_data ./../../NbZr.data
#read_data ./../../TaTi.data
#read_data ./../../TaZr.data
#read_data ./../../TiZr.data
read_data ./../../VTiZr.data
Reading data file ...
  orthogonal box = (0 0 0) to (3.453218 4.691028 14.48686)
  1 by 2 by 4 MPI processor grid
  reading atoms ...
  12 atoms
  read_data CPU = 0.001 seconds
#read_data ./../../NbTiZr.data

replicate 1 1 1
Replication is creating a 1x1x1 = 1 times larger system...
  orthogonal box = (0 0 0) to (3.453218 4.691028 14.48686)
  1 by 2 by 4 MPI processor grid
  12 atoms
  replicate CPU = 0.001 seconds

# ---------- Defining the Interatomic Potential ---------------------
pair_style meam
#pair_coeff * * ./../../library.meam V Nb Ta Ti Zr ./../../VNbTaTiZr.meam V Nb
#pair_coeff * * ./../../library.meam V Nb Ta Ti Zr ./../../VNbTaTiZr.meam V Ta
#pair_coeff * * ./../../library.meam V Nb Ta Ti Zr ./../../VNbTaTiZr.meam V Ti
#pair_coeff * * ./../../library.meam V Nb Ta Ti Zr ./../../VNbTaTiZr.meam V Zr
#pair_coeff * * ./../../library.meam V Nb Ta Ti Zr ./../../VNbTaTiZr.meam Nb Ta
#pair_coeff * * ./../../library.meam V Nb Ta Ti Zr ./../../VNbTaTiZr.meam Nb Ti
#pair_coeff * * ./../../library.meam V Nb Ta Ti Zr ./../../VNbTaTiZr.meam Nb Zr
#pair_coeff * * ./../../library.meam V Nb Ta Ti Zr ./../../VNbTaTiZr.meam Ta Ti
#pair_coeff * * ./../../library.meam V Nb Ta Ti Zr ./../../VNbTaTiZr.meam Ta Zr
#pair_coeff * * ./../../library.meam V Nb Ta Ti Zr ./../../VNbTaTiZr.meam Ti Zr
pair_coeff * * ./../../library.meam V Nb Ta Ti Zr ./../../VNbTaTiZr.meam V Ti Zr
#pair_coeff * * ./../../library.meam V Nb Ta Ti Zr ./../../VNbTaTiZr.meam Nb Ti Zr

# ---------- Running Minimization -------------------------------------
fix 1 all box/relax iso 0.0 vmax 0.001

thermo 10
thermo_style custom step pe etotal lx ly lz vol press pxx pyy pzz

min_style cg
minimize 1e-25 1e-25 5000 10000
Neighbor list info ...
  update: every = 1 steps, delay = 0 steps, check = yes
  max neighbors/atom: 2000, page size: 100000
  master list distance cutoff = 6.8
  ghost atom cutoff = 6.8
  binsize = 3.4, bins = 2 2 5
  2 neighbor lists, perpetual/occasional/extra = 2 0 0
  (1) pair meam, perpetual
      attributes: full, newton on
      pair build: full/bin/atomonly
      stencil: full/bin/3d
      bin: standard
  (2) pair meam, perpetual, half/full from (1)
      attributes: half, newton on
      pair build: halffull/newton
      stencil: none
      bin: none
Per MPI rank memory allocation (min/avg/max) = 9.632 | 9.633 | 9.633 Mbytes
   Step         PotEng         TotEng           Lx             Ly             Lz           Volume         Press           Pxx            Pyy            Pzz      
         0  -65.840655     -65.840655      3.453218       4.691028       14.48686       234.67471     -91386.231     -83283.231     -41565.064     -149310.4     
        10  -66.190343     -66.190343      3.4186858      4.6441177      14.341991      227.70463     -68094.157     -59556.16      -14524.861     -130201.45    
        20  -66.426708     -66.426708      3.3841536      4.5972074      14.197123      220.87396     -41041.52      -32029.585      16531.276     -107626.25    
        30  -66.539935     -66.539935      3.3496215      4.5502972      14.052254      214.18127     -9803.0012     -296.0559       52047.832     -81160.78     
        40  -66.827763     -66.827763      3.342715       4.5409151      14.02328       212.85917     -2691.1392      3312.2988      59374.998     -70760.715    
        50  -66.888959     -66.888959      3.342715       4.5409151      14.02328       212.85917     -1332.2662      3527.8165      60037.343     -67561.958    
        60  -66.933948     -66.933948      3.3459532      4.545314       14.036865      213.47837     -51.35145       2840.0651      58794.906     -61789.026    
        70  -66.933965     -66.933965      3.3458248      4.5451395      14.036326      213.45379     -0.57690237     2893.9819      58888.916     -61784.629    
        79  -66.933965     -66.933965      3.3458239      4.5451383      14.036323      213.45362     -7.7645119e-06  2894.4043      58889.652     -61784.056    
Loop time of 0.0196484 on 8 procs for 79 steps with 12 atoms

19.9% CPU use with 8 MPI tasks x 1 OpenMP threads

Minimization stats:
  Stopping criterion = energy tolerance
  Energy initial, next-to-last, final = 
     -65.8406546144496  -66.9339650962865  -66.9339650962865
  Force two-norm initial, final = 40.212697 7.6515809e-08
  Force max component initial, final = 40.156694 3.0233348e-08
  Final line search alpha, max atom move = 1 3.0233348e-08
  Iterations, force evaluations = 79 102

MPI task timing breakdown:
Section |  min time  |  avg time  |  max time  |%varavg| %total
---------------------------------------------------------------
Pair    | 0.010218   | 0.010558   | 0.011078   |   0.3 | 53.73
Neigh   | 0          | 0          | 0          |   0.0 |  0.00
Comm    | 0.002602   | 0.0029604  | 0.003315   |   0.4 | 15.07
Output  | 0.000119   | 0.00013225 | 0.000197   |   0.0 |  0.67
Modify  | 0          | 0          | 0          |   0.0 |  0.00
Other   |            | 0.005998   |            |       | 30.53

Nlocal:            1.5 ave           2 max           1 min
Histogram: 4 0 0 0 0 0 0 0 0 4
Nghost:          187.5 ave         188 max         187 min
Histogram: 4 0 0 0 0 0 0 0 0 4
Neighs:           45.5 ave          60 max          31 min
Histogram: 4 0 0 0 0 0 0 0 0 4
FullNghs:           91 ave         120 max          62 min
Histogram: 4 0 0 0 0 0 0 0 0 4

Total # of neighbors = 728
Ave neighs/atom = 60.666667
Neighbor list builds = 0
Dangerous builds = 0

variable  natoms equal "count(all)"
variable      x0 equal "lx"
variable      y0 equal "ly"
variable      z0 equal "lz"
variable      v0 equal "vol"
variable   etot0 equal "etotal"
variable   ecoh0 equal "pe/v_natoms"

unfix 1
write_data ./../step2_elastic/data.in
System init for write_data ...

# ---------- For Equation of States -------------------------------------
change_box all x scale 0.94 y scale 0.94 z scale 0.94 remap
Changing box ...
  orthogonal box = (0.15407178 0.072944832 0.22526866) to (3.2991462 4.6180832 14.261591)
  orthogonal box = (0.15407178 0.20929898 0.22526866) to (3.2991462 4.481729 14.261591)
  orthogonal box = (0.15407178 0.20929898 0.64635834) to (3.2991462 4.481729 13.840502)
run 1
WARNING: No fixes with time integration, atoms won't move (src/verlet.cpp:60)
Per MPI rank memory allocation (min/avg/max) = 8.564 | 8.564 | 8.565 Mbytes
   Step         PotEng         TotEng           Lx             Ly             Lz           Volume         Press           Pxx            Pyy            Pzz      
        79  -63.983721     -63.983721      3.1450744      4.27243        13.194143      177.29116      305310.95      311459.76      395153.75      209319.33    
        80  -63.983721     -63.983721      3.1450744      4.27243        13.194143      177.29116      305310.95      311459.76      395153.75      209319.33    
Loop time of 0.0003035 on 8 procs for 1 steps with 12 atoms

Performance: 284.679 ns/day, 0.084 hours/ns, 3294.893 timesteps/s, 39.539 katom-step/s
643.5% CPU use with 8 MPI tasks x 1 OpenMP threads

MPI task timing breakdown:
Section |  min time  |  avg time  |  max time  |%varavg| %total
---------------------------------------------------------------
Pair    | 0.000145   | 0.00019263 | 0.000253   |   0.0 | 63.47
Neigh   | 0          | 0          | 0          |   0.0 |  0.00
Comm    | 2.1e-05    | 8.2e-05    | 0.000128   |   0.0 | 27.02
Output  | 1.9e-05    | 2.025e-05  | 2.2e-05    |   0.0 |  6.67
Modify  | 0          | 2.5e-07    | 1e-06      |   0.0 |  0.08
Other   |            | 8.375e-06  |            |       |  2.76

Nlocal:            1.5 ave           2 max           1 min
Histogram: 4 0 0 0 0 0 0 0 0 4
Nghost:          350.5 ave         351 max         350 min
Histogram: 4 0 0 0 0 0 0 0 0 4
Neighs:             64 ave          84 max          50 min
Histogram: 4 0 0 0 0 0 1 0 2 1
FullNghs:          128 ave         170 max          86 min
Histogram: 4 0 0 0 0 0 0 0 0 4

Total # of neighbors = 1024
Ave neighs/atom = 85.333333
Neighbor list builds = 0
Dangerous builds = 0
print "# Lattice constant (Angstroms), Volume (Angstrom), Total energy (eV), Cohesive energy (eV/atom)" file lattice_cohesive_energy.txt screen no


# Loop over lattice constants
variable i loop 49 # Number of steps
label loop

change_box all x scale 1.0025 y scale 1.0025 z scale 1.0025 remap
Changing box ...
  orthogonal box = (0.15014043 0.20929898 0.64635834) to (3.3030776 4.481729 13.840502)
  orthogonal box = (0.15014043 0.20395844 0.64635834) to (3.3030776 4.4870696 13.840502)
  orthogonal box = (0.15014043 0.20395844 0.62986566) to (3.3030776 4.4870696 13.856994)

run 1
WARNING: No fixes with time integration, atoms won't move (src/verlet.cpp:60)
Per MPI rank memory allocation (min/avg/max) = 8.564 | 8.565 | 8.566 Mbytes
   Step         PotEng         TotEng           Lx             Ly             Lz           Volume         Press           Pxx            Pyy            Pzz      
        80  -64.230785     -64.230785      3.1529371      4.2831111      13.227129      178.62417      288683.42      294623.78      377072.53      194353.94    
        81  -64.230785     -64.230785      3.1529371      4.2831111      13.227129      178.62417      288683.42      294623.78      377072.53      194353.94    
Loop time of 0.000241875 on 8 procs for 1 steps with 12 atoms

Performance: 357.209 ns/day, 0.067 hours/ns, 4134.367 timesteps/s, 49.612 katom-step/s
0.0% CPU use with 8 MPI tasks x 1 OpenMP threads

MPI task timing breakdown:
Section |  min time  |  avg time  |  max time  |%varavg| %total
---------------------------------------------------------------
Pair    | 0.000178   | 0.00018863 | 0.000196   |   0.0 | 77.98
Neigh   | 0          | 0          | 0          |   0.0 |  0.00
Comm    | 1.4e-05    | 2.125e-05  | 3.2e-05    |   0.0 |  8.79
Output  | 1.6e-05    | 1.8125e-05 | 2.6e-05    |   0.0 |  7.49
Modify  | 0          | 1.25e-07   | 1e-06      |   0.0 |  0.05
Other   |            | 1.375e-05  |            |       |  5.68

Nlocal:            1.5 ave           4 max           0 min
Histogram: 4 0 0 0 0 2 0 0 0 2
Nghost:          350.5 ave         352 max         348 min
Histogram: 2 0 0 0 0 2 0 0 0 4
Neighs:             64 ave         156 max           0 min
Histogram: 4 0 0 0 0 0 2 0 0 2
FullNghs:          128 ave         340 max           0 min
Histogram: 4 0 0 0 0 2 0 0 0 2

Total # of neighbors = 1024
Ave neighs/atom = 85.333333
Neighbor list builds = 0
Dangerous builds = 0
variable  natoms equal "count(all)"
variable xlength equal "lx"
variable  volume equal "vol"
variable  etotal equal "etotal"
variable    ecoh equal "pe/v_natoms"
print "${xlength}, ${volume}, ${etotal}, ${ecoh}" append lattice_cohesive_energy.txt screen no

next i
jump SELF loop

change_box all x scale 1.0025 y scale 1.0025 z scale 1.0025 remap
Changing box ...
  orthogonal box = (0.14619926 0.20395844 0.62986566) to (3.3070187 4.4870696 13.856994)
  orthogonal box = (0.14619926 0.19860456 0.62986566) to (3.3070187 4.4924234 13.856994)
  orthogonal box = (0.14619926 0.19860456 0.61333175) to (3.3070187 4.4924234 13.873528)

run 1
WARNING: No fixes with time integration, atoms won't move (src/verlet.cpp:60)
Per MPI rank memory allocation (min/avg/max) = 8.564 | 8.565 | 8.566 Mbytes
   Step         PotEng         TotEng           Lx             Ly             Lz           Volume         Press           Pxx            Pyy            Pzz      
        81  -64.465943     -64.465943      3.1608195      4.2938189      13.260197      179.96721      272471.03      278211.67      359425.36      179776.06    
        82  -64.465943     -64.465943      3.1608195      4.2938189      13.260197      179.96721      272471.03      278211.67      359425.36      179776.06    
Loop time of 0.000231 on 8 procs for 1 steps with 12 atoms

Performance: 374.026 ns/day, 0.064 hours/ns, 4329.004 timesteps/s, 51.948 katom-step/s
0.0% CPU use with 8 MPI tasks x 1 OpenMP threads

MPI task timing breakdown:
Section |  min time  |  avg time  |  max time  |%varavg| %total
---------------------------------------------------------------
Pair    | 0.000173   | 0.0001845  | 0.000192   |   0.0 | 79.87
Neigh   | 0          | 0          | 0          |   0.0 |  0.00
Comm    | 1.4e-05    | 2.1625e-05 | 3.3e-05    |   0.0 |  9.36
Output  | 1.5e-05    | 1.625e-05  | 1.9e-05    |   0.0 |  7.03
Modify  | 0          | 2.5e-07    | 1e-06      |   0.0 |  0.11
Other   |            | 8.375e-06  |            |       |  3.63

Nlocal:            1.5 ave           4 max           0 min
Histogram: 4 0 0 0 0 2 0 0 0 2
Nghost:          350.5 ave         352 max         348 min
Histogram: 2 0 0 0 0 2 0 0 0 4
Neighs:             61 ave         148 max           0 min
Histogram: 4 0 0 0 0 0 2 0 0 2
FullNghs:          122 ave         324 max           0 min
Histogram: 4 0 0 0 0 2 0 0 0 2

Total # of neighbors = 976
Ave neighs/atom = 81.333333
Neighbor list builds = 0
Dangerous builds = 0
variable  natoms equal "count(all)"
variable xlength equal "lx"
variable  volume equal "vol"
variable  etotal equal "etotal"
variable    ecoh equal "pe/v_natoms"
print "${xlength}, ${volume}, ${etotal}, ${ecoh}" append lattice_cohesive_energy.txt screen no

next i
jump SELF loop

change_box all x scale 1.0025 y scale 1.0025 z scale 1.0025 remap
Changing box ...
  orthogonal box = (0.14224824 0.19860456 0.61333175) to (3.3109698 4.4924234 13.873528)
  orthogonal box = (0.14224824 0.19323728 0.61333175) to (3.3109698 4.4977907 13.873528)
  orthogonal box = (0.14224824 0.19323728 0.5967565) to (3.3109698 4.4977907 13.890103)

run 1
WARNING: No fixes with time integration, atoms won't move (src/verlet.cpp:60)
Per MPI rank memory allocation (min/avg/max) = 8.564 | 8.565 | 8.566 Mbytes
   Step         PotEng         TotEng           Lx             Ly             Lz           Volume         Press           Pxx            Pyy            Pzz      
        82  -64.68935      -64.68935       3.1687215      4.3045534      13.293347      181.32034      256666.28      262215.63      342204.48      165578.75    
        83  -64.68935      -64.68935       3.1687215      4.3045534      13.293347      181.32034      256666.28      262215.63      342204.48      165578.75    
Loop time of 0.000226375 on 8 procs for 1 steps with 12 atoms

Performance: 381.668 ns/day, 0.063 hours/ns, 4417.449 timesteps/s, 53.009 katom-step/s
0.0% CPU use with 8 MPI tasks x 1 OpenMP threads

MPI task timing breakdown:
Section |  min time  |  avg time  |  max time  |%varavg| %total
---------------------------------------------------------------
Pair    | 0.000169   | 0.00018025 | 0.000189   |   0.0 | 79.62
Neigh   | 0          | 0          | 0          |   0.0 |  0.00
Comm    | 1.5e-05    | 2.25e-05   | 3.4e-05    |   0.0 |  9.94
Output  | 1.5e-05    | 1.575e-05  | 1.8e-05    |   0.0 |  6.96
Modify  | 0          | 1.25e-07   | 1e-06      |   0.0 |  0.06
Other   |            | 7.75e-06   |            |       |  3.42

Nlocal:            1.5 ave           4 max           0 min
Histogram: 4 0 0 0 0 2 0 0 0 2
Nghost:          350.5 ave         352 max         348 min
Histogram: 2 0 0 0 0 2 0 0 0 4
Neighs:             61 ave         148 max           0 min
Histogram: 4 0 0 0 0 0 2 0 0 2
FullNghs:          122 ave         324 max           0 min
Histogram: 4 0 0 0 0 2 0 0 0 2

Total # of neighbors = 976
Ave neighs/atom = 81.333333
Neighbor list builds = 0
Dangerous builds = 0
variable  natoms equal "count(all)"
variable xlength equal "lx"
variable  volume equal "vol"
variable  etotal equal "etotal"
variable    ecoh equal "pe/v_natoms"
print "${xlength}, ${volume}, ${etotal}, ${ecoh}" append lattice_cohesive_energy.txt screen no

next i
jump SELF loop

change_box all x scale 1.0025 y scale 1.0025 z scale 1.0025 remap
Changing box ...
  orthogonal box = (0.13828733 0.19323728 0.5967565) to (3.3149307 4.4977907 13.890103)
  orthogonal box = (0.13828733 0.18785659 0.5967565) to (3.3149307 4.5031714 13.890103)
  orthogonal box = (0.13828733 0.18785659 0.58013982) to (3.3149307 4.5031714 13.90672)

run 1
WARNING: No fixes with time integration, atoms won't move (src/verlet.cpp:60)
Per MPI rank memory allocation (min/avg/max) = 8.564 | 8.565 | 8.566 Mbytes
   Step         PotEng         TotEng           Lx             Ly             Lz           Volume         Press           Pxx            Pyy            Pzz      
        83  -64.901159     -64.901159      3.1766433      4.3153148      13.32658       182.68364      241261.74      246627.9       325402.23      151755.1     
        84  -64.901159     -64.901159      3.1766433      4.3153148      13.32658       182.68364      241261.74      246627.9       325402.23      151755.1     
Loop time of 0.000279375 on 8 procs for 1 steps with 12 atoms

Performance: 309.262 ns/day, 0.078 hours/ns, 3579.418 timesteps/s, 42.953 katom-step/s
0.0% CPU use with 8 MPI tasks x 1 OpenMP threads

MPI task timing breakdown:
Section |  min time  |  avg time  |  max time  |%varavg| %total
---------------------------------------------------------------
Pair    | 0.000203   | 0.00021888 | 0.000235   |   0.0 | 78.34
Neigh   | 0          | 0          | 0          |   0.0 |  0.00
Comm    | 1.9e-05    | 3.375e-05  | 5e-05      |   0.0 | 12.08
Output  | 1.5e-05    | 1.725e-05  | 2e-05      |   0.0 |  6.17
Modify  | 0          | 1.25e-07   | 1e-06      |   0.0 |  0.04
Other   |            | 9.375e-06  |            |       |  3.36

Nlocal:            1.5 ave           4 max           0 min
Histogram: 4 0 0 0 0 2 0 0 0 2
Nghost:          350.5 ave         352 max         348 min
Histogram: 2 0 0 0 0 2 0 0 0 4
Neighs:             60 ave         148 max           0 min
Histogram: 4 0 0 0 0 0 2 0 0 2
FullNghs:          120 ave         320 max           0 min
Histogram: 4 0 0 0 0 2 0 0 0 2

Total # of neighbors = 960
Ave neighs/atom = 80
Neighbor list builds = 0
Dangerous builds = 0
variable  natoms equal "count(all)"
variable xlength equal "lx"
variable  volume equal "vol"
variable  etotal equal "etotal"
variable    ecoh equal "pe/v_natoms"
print "${xlength}, ${volume}, ${etotal}, ${ecoh}" append lattice_cohesive_energy.txt screen no

next i
jump SELF loop

change_box all x scale 1.0025 y scale 1.0025 z scale 1.0025 remap
Changing box ...
  orthogonal box = (0.13431653 0.18785659 0.58013982) to (3.3189015 4.5031714 13.90672)
  orthogonal box = (0.13431653 0.18246245 0.58013982) to (3.3189015 4.5085656 13.90672)
  orthogonal box = (0.13431653 0.18246245 0.56348159) to (3.3189015 4.5085656 13.923378)

run 1
WARNING: No fixes with time integration, atoms won't move (src/verlet.cpp:60)
Per MPI rank memory allocation (min/avg/max) = 8.564 | 8.565 | 8.566 Mbytes
   Step         PotEng         TotEng           Lx             Ly             Lz           Volume         Press           Pxx            Pyy            Pzz      
        84  -65.101524     -65.101524      3.1845849      4.3261031      13.359897      184.0572       226250.11      231440.93      309011.09      138298.32    
        85  -65.101524     -65.101524      3.1845849      4.3261031      13.359897      184.0572       226250.11      231440.93      309011.09      138298.32    
Loop time of 0.00027775 on 8 procs for 1 steps with 12 atoms

Performance: 311.071 ns/day, 0.077 hours/ns, 3600.360 timesteps/s, 43.204 katom-step/s
0.0% CPU use with 8 MPI tasks x 1 OpenMP threads

MPI task timing breakdown:
Section |  min time  |  avg time  |  max time  |%varavg| %total
---------------------------------------------------------------
Pair    | 0.000208   | 0.00022138 | 0.000235   |   0.0 | 79.70
Neigh   | 0          | 0          | 0          |   0.0 |  0.00
Comm    | 1.7e-05    | 3.025e-05  | 4.4e-05    |   0.0 | 10.89
Output  | 1.5e-05    | 1.7125e-05 | 2e-05      |   0.0 |  6.17
Modify  | 0          | 3.75e-07   | 1e-06      |   0.0 |  0.14
Other   |            | 8.625e-06  |            |       |  3.11

Nlocal:            1.5 ave           4 max           0 min
Histogram: 4 0 0 0 0 2 0 0 0 2
Nghost:          350.5 ave         352 max         348 min
Histogram: 2 0 0 0 0 2 0 0 0 4
Neighs:             60 ave         148 max           0 min
Histogram: 4 0 0 0 0 0 2 0 0 2
FullNghs:          120 ave         320 max           0 min
Histogram: 4 0 0 0 0 2 0 0 0 2

Total # of neighbors = 960
Ave neighs/atom = 80
Neighbor list builds = 0
Dangerous builds = 0
variable  natoms equal "count(all)"
variable xlength equal "lx"
variable  volume equal "vol"
variable  etotal equal "etotal"
variable    ecoh equal "pe/v_natoms"
print "${xlength}, ${volume}, ${etotal}, ${ecoh}" append lattice_cohesive_energy.txt screen no

next i
jump SELF loop

change_box all x scale 1.0025 y scale 1.0025 z scale 1.0025 remap
Changing box ...
  orthogonal box = (0.1303358 0.18246245 0.56348159) to (3.3228822 4.5085656 13.923378)
  orthogonal box = (0.1303358 0.17705482 0.56348159) to (3.3228822 4.5139732 13.923378)
  orthogonal box = (0.1303358 0.17705482 0.54678172) to (3.3228822 4.5139732 13.940078)

run 1
WARNING: No fixes with time integration, atoms won't move (src/verlet.cpp:60)
Per MPI rank memory allocation (min/avg/max) = 8.564 | 8.565 | 8.566 Mbytes
   Step         PotEng         TotEng           Lx             Ly             Lz           Volume         Press           Pxx            Pyy            Pzz      
        85  -65.290595     -65.290595      3.1925464      4.3369184      13.393297      185.44108      211623.04      216647.16      293023.63      125198.32    
        86  -65.290595     -65.290595      3.1925464      4.3369184      13.393297      185.44108      211623.04      216647.16      293023.63      125198.32    
Loop time of 0.00026975 on 8 procs for 1 steps with 12 atoms

Performance: 320.297 ns/day, 0.075 hours/ns, 3707.136 timesteps/s, 44.486 katom-step/s
0.0% CPU use with 8 MPI tasks x 1 OpenMP threads

MPI task timing breakdown:
Section |  min time  |  avg time  |  max time  |%varavg| %total
---------------------------------------------------------------
Pair    | 0.000197   | 0.00021187 | 0.000228   |   0.0 | 78.54
Neigh   | 0          | 0          | 0          |   0.0 |  0.00
Comm    | 1.7e-05    | 3.2625e-05 | 4.7e-05    |   0.0 | 12.09
Output  | 1.5e-05    | 1.7e-05    | 1.9e-05    |   0.0 |  6.30
Modify  | 0          | 1.25e-07   | 1e-06      |   0.0 |  0.05
Other   |            | 8.125e-06  |            |       |  3.01

Nlocal:            1.5 ave           4 max           0 min
Histogram: 4 0 0 0 0 2 0 0 0 2
Nghost:          350.5 ave         352 max         348 min
Histogram: 2 0 0 0 0 2 0 0 0 4
Neighs:             57 ave         144 max           0 min
Histogram: 4 0 0 0 0 2 0 0 0 2
FullNghs:          114 ave         304 max           0 min
Histogram: 4 0 0 0 0 2 0 0 0 2

Total # of neighbors = 912
Ave neighs/atom = 76
Neighbor list builds = 0
Dangerous builds = 0
variable  natoms equal "count(all)"
variable xlength equal "lx"
variable  volume equal "vol"
variable  etotal equal "etotal"
variable    ecoh equal "pe/v_natoms"
print "${xlength}, ${volume}, ${etotal}, ${ecoh}" append lattice_cohesive_energy.txt screen no

next i
jump SELF loop

change_box all x scale 1.0025 y scale 1.0025 z scale 1.0025 remap
Changing box ...
  orthogonal box = (0.12634512 0.17705482 0.54678172) to (3.3268729 4.5139732 13.940078)
  orthogonal box = (0.12634512 0.17163367 0.54678172) to (3.3268729 4.5193943 13.940078)
  orthogonal box = (0.12634512 0.17163367 0.5300401) to (3.3268729 4.5193943 13.95682)

run 1
WARNING: No fixes with time integration, atoms won't move (src/verlet.cpp:60)
Per MPI rank memory allocation (min/avg/max) = 8.564 | 8.565 | 8.566 Mbytes
   Step         PotEng         TotEng           Lx             Ly             Lz           Volume         Press           Pxx            Pyy            Pzz      
        86  -65.468523     -65.468523      3.2005278      4.3477607      13.42678       186.83537      197369.93      202238.83      277432.36      112438.58    
        87  -65.468523     -65.468523      3.2005278      4.3477607      13.42678       186.83537      197369.93      202238.83      277432.36      112438.58    
Loop time of 0.000268625 on 8 procs for 1 steps with 12 atoms

Performance: 321.638 ns/day, 0.075 hours/ns, 3722.662 timesteps/s, 44.672 katom-step/s
0.0% CPU use with 8 MPI tasks x 1 OpenMP threads

MPI task timing breakdown:
Section |  min time  |  avg time  |  max time  |%varavg| %total
---------------------------------------------------------------
Pair    | 0.000196   | 0.00021063 | 0.000226   |   0.0 | 78.41
Neigh   | 0          | 0          | 0          |   0.0 |  0.00
Comm    | 1.6e-05    | 3.225e-05  | 4.7e-05    |   0.0 | 12.01
Output  | 1.6e-05    | 1.725e-05  | 2e-05      |   0.0 |  6.42
Modify  | 0          | 1.25e-07   | 1e-06      |   0.0 |  0.05
Other   |            | 8.375e-06  |            |       |  3.12

Nlocal:            1.5 ave           4 max           0 min
Histogram: 4 0 0 0 0 2 0 0 0 2
Nghost:          350.5 ave         352 max         348 min
Histogram: 2 0 0 0 0 2 0 0 0 4
Neighs:             55 ave         144 max           0 min
Histogram: 4 0 0 0 0 2 0 0 0 2
FullNghs:          110 ave         296 max           0 min
Histogram: 4 0 0 0 2 0 0 0 0 2

Total # of neighbors = 880
Ave neighs/atom = 73.333333
Neighbor list builds = 0
Dangerous builds = 0
variable  natoms equal "count(all)"
variable xlength equal "lx"
variable  volume equal "vol"
variable  etotal equal "etotal"
variable    ecoh equal "pe/v_natoms"
print "${xlength}, ${volume}, ${etotal}, ${ecoh}" append lattice_cohesive_energy.txt screen no

next i
jump SELF loop

change_box all x scale 1.0025 y scale 1.0025 z scale 1.0025 remap
Changing box ...
  orthogonal box = (0.12234446 0.17163367 0.5300401) to (3.3308735 4.5193943 13.95682)
  orthogonal box = (0.12234446 0.16619897 0.5300401) to (3.3308735 4.524829 13.95682)
  orthogonal box = (0.12234446 0.16619897 0.51325663) to (3.3308735 4.524829 13.973603)

run 1
WARNING: No fixes with time integration, atoms won't move (src/verlet.cpp:60)
Per MPI rank memory allocation (min/avg/max) = 8.564 | 8.565 | 8.566 Mbytes
   Step         PotEng         TotEng           Lx             Ly             Lz           Volume         Press           Pxx            Pyy            Pzz      
        87  -65.635452     -65.635452      3.2085291      4.3586301      13.460347      188.24014      183480.49      188207.72      262229.67      100004.09    
        88  -65.635452     -65.635452      3.2085291      4.3586301      13.460347      188.24014      183480.49      188207.72      262229.67      100004.09    
Loop time of 0.00027 on 8 procs for 1 steps with 12 atoms

Performance: 320.000 ns/day, 0.075 hours/ns, 3703.704 timesteps/s, 44.444 katom-step/s
0.0% CPU use with 8 MPI tasks x 1 OpenMP threads

MPI task timing breakdown:
Section |  min time  |  avg time  |  max time  |%varavg| %total
---------------------------------------------------------------
Pair    | 0.000196   | 0.00021113 | 0.000228   |   0.0 | 78.19
Neigh   | 0          | 0          | 0          |   0.0 |  0.00
Comm    | 1.8e-05    | 3.3e-05    | 4.8e-05    |   0.0 | 12.22
Output  | 1.6e-05    | 1.75e-05   | 2e-05      |   0.0 |  6.48
Modify  | 0          | 5e-07      | 2e-06      |   0.0 |  0.19
Other   |            | 7.875e-06  |            |       |  2.92

Nlocal:            1.5 ave           4 max           0 min
Histogram: 4 0 0 0 0 2 0 0 0 2
Nghost:          350.5 ave         352 max         348 min
Histogram: 2 0 0 0 0 2 0 0 0 4
Neighs:             55 ave         144 max           0 min
Histogram: 4 0 0 0 0 2 0 0 0 2
FullNghs:          110 ave         296 max           0 min
Histogram: 4 0 0 0 2 0 0 0 0 2

Total # of neighbors = 880
Ave neighs/atom = 73.333333
Neighbor list builds = 0
Dangerous builds = 0
variable  natoms equal "count(all)"
variable xlength equal "lx"
variable  volume equal "vol"
variable  etotal equal "etotal"
variable    ecoh equal "pe/v_natoms"
print "${xlength}, ${volume}, ${etotal}, ${ecoh}" append lattice_cohesive_energy.txt screen no

next i
jump SELF loop

change_box all x scale 1.0025 y scale 1.0025 z scale 1.0025 remap
Changing box ...
  orthogonal box = (0.1183338 0.16619897 0.51325663) to (3.3348842 4.524829 13.973603)
  orthogonal box = (0.1183338 0.16075068 0.51325663) to (3.3348842 4.5302773 13.973603)
  orthogonal box = (0.1183338 0.16075068 0.49643119) to (3.3348842 4.5302773 13.990429)

run 1
WARNING: No fixes with time integration, atoms won't move (src/verlet.cpp:60)
Per MPI rank memory allocation (min/avg/max) = 8.564 | 8.565 | 8.566 Mbytes
   Step         PotEng         TotEng           Lx             Ly             Lz           Volume         Press           Pxx            Pyy            Pzz      
        88  -65.791524     -65.791524      3.2165504      4.3695266      13.493998      189.65547      169946.18      174545.44      247407.94      87885.177    
        89  -65.791524     -65.791524      3.2165504      4.3695266      13.493998      189.65547      169946.18      174545.44      247407.94      87885.177    
Loop time of 0.00026425 on 8 procs for 1 steps with 12 atoms

Performance: 326.963 ns/day, 0.073 hours/ns, 3784.295 timesteps/s, 45.412 katom-step/s
0.0% CPU use with 8 MPI tasks x 1 OpenMP threads

MPI task timing breakdown:
Section |  min time  |  avg time  |  max time  |%varavg| %total
---------------------------------------------------------------
Pair    | 0.000196   | 0.00020888 | 0.000225   |   0.0 | 79.04
Neigh   | 0          | 0          | 0          |   0.0 |  0.00
Comm    | 1.4e-05    | 2.9625e-05 | 4.2e-05    |   0.0 | 11.21
Output  | 1.6e-05    | 1.7625e-05 | 1.9e-05    |   0.0 |  6.67
Modify  | 0          | 1.25e-07   | 1e-06      |   0.0 |  0.05
Other   |            | 8e-06      |            |       |  3.03

Nlocal:            1.5 ave           4 max           0 min
Histogram: 4 0 0 0 0 2 0 0 0 2
Nghost:          328.5 ave         352 max         306 min
Histogram: 4 0 0 0 0 0 0 0 0 4
Neighs:             53 ave         136 max           0 min
Histogram: 4 0 0 0 0 2 0 0 0 2
FullNghs:          106 ave         280 max           0 min
Histogram: 4 0 0 0 0 2 0 0 0 2

Total # of neighbors = 848
Ave neighs/atom = 70.666667
Neighbor list builds = 0
Dangerous builds = 0
variable  natoms equal "count(all)"
variable xlength equal "lx"
variable  volume equal "vol"
variable  etotal equal "etotal"
variable    ecoh equal "pe/v_natoms"
print "${xlength}, ${volume}, ${etotal}, ${ecoh}" append lattice_cohesive_energy.txt screen no

next i
jump SELF loop

change_box all x scale 1.0025 y scale 1.0025 z scale 1.0025 remap
Changing box ...
  orthogonal box = (0.11431311 0.16075068 0.49643119) to (3.3389049 4.5302773 13.990429)
  orthogonal box = (0.11431311 0.15528877 0.49643119) to (3.3389049 4.5357392 13.990429)
  orthogonal box = (0.11431311 0.15528877 0.47956369) to (3.3389049 4.5357392 14.007296)

run 1
WARNING: No fixes with time integration, atoms won't move (src/verlet.cpp:60)
Per MPI rank memory allocation (min/avg/max) = 8.564 | 8.565 | 8.566 Mbytes
   Step         PotEng         TotEng           Lx             Ly             Lz           Volume         Press           Pxx            Pyy            Pzz      
        89  -65.93688      -65.93688       3.2245918      4.3804505      13.527733      191.08145      156762.4       161243.66      232959.64      76083.909    
        90  -65.93688      -65.93688       3.2245918      4.3804505      13.527733      191.08145      156762.4       161243.66      232959.64      76083.909    
Loop time of 0.00026125 on 8 procs for 1 steps with 12 atoms

Performance: 330.718 ns/day, 0.073 hours/ns, 3827.751 timesteps/s, 45.933 katom-step/s
0.0% CPU use with 8 MPI tasks x 1 OpenMP threads

MPI task timing breakdown:
Section |  min time  |  avg time  |  max time  |%varavg| %total
---------------------------------------------------------------
Pair    | 0.00019    | 0.000204   | 0.000218   |   0.0 | 78.09
Neigh   | 0          | 0          | 0          |   0.0 |  0.00
Comm    | 1.7e-05    | 3.05e-05   | 4.4e-05    |   0.0 | 11.67
Output  | 1.6e-05    | 1.8375e-05 | 2.1e-05    |   0.0 |  7.03
Modify  | 0          | 1.25e-07   | 1e-06      |   0.0 |  0.05
Other   |            | 8.25e-06   |            |       |  3.16

Nlocal:            1.5 ave           4 max           0 min
Histogram: 4 0 0 0 0 2 0 0 0 2
Nghost:          328.5 ave         352 max         306 min
Histogram: 4 0 0 0 0 0 0 0 0 4
Neighs:             53 ave         136 max           0 min
Histogram: 4 0 0 0 0 2 0 0 0 2
FullNghs:          106 ave         280 max           0 min
Histogram: 4 0 0 0 0 2 0 0 0 2

Total # of neighbors = 848
Ave neighs/atom = 70.666667
Neighbor list builds = 0
Dangerous builds = 0
variable  natoms equal "count(all)"
variable xlength equal "lx"
variable  volume equal "vol"
variable  etotal equal "etotal"
variable    ecoh equal "pe/v_natoms"
print "${xlength}, ${volume}, ${etotal}, ${ecoh}" append lattice_cohesive_energy.txt screen no

next i
jump SELF loop

change_box all x scale 1.0025 y scale 1.0025 z scale 1.0025 remap
Changing box ...
  orthogonal box = (0.11028237 0.15528877 0.47956369) to (3.3429356 4.5357392 14.007296)
  orthogonal box = (0.11028237 0.14981321 0.47956369) to (3.3429356 4.5412148 14.007296)
  orthogonal box = (0.11028237 0.14981321 0.46265403) to (3.3429356 4.5412148 14.024206)

run 1
WARNING: No fixes with time integration, atoms won't move (src/verlet.cpp:60)
Per MPI rank memory allocation (min/avg/max) = 8.564 | 8.565 | 8.566 Mbytes
   Step         PotEng         TotEng           Lx             Ly             Lz           Volume         Press           Pxx            Pyy            Pzz      
        90  -66.071665     -66.071665      3.2326533      4.3914016      13.561552      192.51815      143932.58      148295         218877.67      64625.077    
        91  -66.071665     -66.071665      3.2326533      4.3914016      13.561552      192.51815      143932.58      148295         218877.67      64625.077    
Loop time of 0.0002355 on 8 procs for 1 steps with 12 atoms

Performance: 366.879 ns/day, 0.065 hours/ns, 4246.285 timesteps/s, 50.955 katom-step/s
0.0% CPU use with 8 MPI tasks x 1 OpenMP threads

MPI task timing breakdown:
Section |  min time  |  avg time  |  max time  |%varavg| %total
---------------------------------------------------------------
Pair    | 0.000173   | 0.00018112 | 0.000196   |   0.0 | 76.91
Neigh   | 0          | 0          | 0          |   0.0 |  0.00
Comm    | 1.5e-05    | 2.775e-05  | 3.5e-05    |   0.0 | 11.78
Output  | 1.6e-05    | 1.825e-05  | 2.1e-05    |   0.0 |  7.75
Modify  | 0          | 2.5e-07    | 1e-06      |   0.0 |  0.11
Other   |            | 8.125e-06  |            |       |  3.45

Nlocal:            1.5 ave           4 max           0 min
Histogram: 4 0 0 0 0 2 0 0 0 2
Nghost:          328.5 ave         352 max         306 min
Histogram: 4 0 0 0 0 0 0 0 0 4
Neighs:             53 ave         136 max           0 min
Histogram: 4 0 0 0 0 2 0 0 0 2
FullNghs:          106 ave         280 max           0 min
Histogram: 4 0 0 0 0 2 0 0 0 2

Total # of neighbors = 848
Ave neighs/atom = 70.666667
Neighbor list builds = 0
Dangerous builds = 0
variable  natoms equal "count(all)"
variable xlength equal "lx"
variable  volume equal "vol"
variable  etotal equal "etotal"
variable    ecoh equal "pe/v_natoms"
print "${xlength}, ${volume}, ${etotal}, ${ecoh}" append lattice_cohesive_energy.txt screen no

next i
jump SELF loop

change_box all x scale 1.0025 y scale 1.0025 z scale 1.0025 remap
Changing box ...
  orthogonal box = (0.10624155 0.14981321 0.46265403) to (3.3469764 4.5412148 14.024206)
  orthogonal box = (0.10624155 0.14432396 0.46265403) to (3.3469764 4.546704 14.024206)
  orthogonal box = (0.10624155 0.14432396 0.44570209) to (3.3469764 4.546704 14.041158)

run 1
WARNING: No fixes with time integration, atoms won't move (src/verlet.cpp:60)
Per MPI rank memory allocation (min/avg/max) = 8.564 | 8.565 | 8.566 Mbytes
   Step         PotEng         TotEng           Lx             Ly             Lz           Volume         Press           Pxx            Pyy            Pzz      
        91  -66.196038     -66.196038      3.2407349      4.4023801      13.595456      193.96564      131474.49      135694.54      205156.01      53572.904    
        92  -66.196038     -66.196038      3.2407349      4.4023801      13.595456      193.96564      131474.49      135694.54      205156.01      53572.904    
Loop time of 0.00043375 on 8 procs for 1 steps with 12 atoms

Performance: 199.193 ns/day, 0.120 hours/ns, 2305.476 timesteps/s, 27.666 katom-step/s
0.0% CPU use with 8 MPI tasks x 1 OpenMP threads

MPI task timing breakdown:
Section |  min time  |  avg time  |  max time  |%varavg| %total
---------------------------------------------------------------
Pair    | 0.000157   | 0.000175   | 0.000203   |   0.0 | 40.35
Neigh   | 0          | 0          | 0          |   0.0 |  0.00
Comm    | 8.8e-05    | 0.00013275 | 0.000224   |   0.0 | 30.61
Output  | 1.8e-05    | 9.3625e-05 | 0.000121   |   0.0 | 21.59
Modify  | 0          | 5e-07      | 1e-06      |   0.0 |  0.12
Other   |            | 3.188e-05  |            |       |  7.35

Nlocal:            1.5 ave           4 max           0 min
Histogram: 4 0 0 0 0 2 0 0 0 2
Nghost:          328.5 ave         352 max         306 min
Histogram: 4 0 0 0 0 0 0 0 0 4
Neighs:             53 ave         136 max           0 min
Histogram: 4 0 0 0 0 2 0 0 0 2
FullNghs:          106 ave         280 max           0 min
Histogram: 4 0 0 0 0 2 0 0 0 2

Total # of neighbors = 848
Ave neighs/atom = 70.666667
Neighbor list builds = 0
Dangerous builds = 0
variable  natoms equal "count(all)"
variable xlength equal "lx"
variable  volume equal "vol"
variable  etotal equal "etotal"
variable    ecoh equal "pe/v_natoms"
print "${xlength}, ${volume}, ${etotal}, ${ecoh}" append lattice_cohesive_energy.txt screen no

next i
jump SELF loop

change_box all x scale 1.0025 y scale 1.0025 z scale 1.0025 remap
Changing box ...
  orthogonal box = (0.10219063 0.14432396 0.44570209) to (3.3510274 4.546704 14.041158)
  orthogonal box = (0.10219063 0.13882098 0.44570209) to (3.3510274 4.552207 14.041158)
  orthogonal box = (0.10219063 0.13882098 0.42870777) to (3.3510274 4.552207 14.058152)

run 1
WARNING: No fixes with time integration, atoms won't move (src/verlet.cpp:60)
Per MPI rank memory allocation (min/avg/max) = 8.556 | 8.557 | 8.558 Mbytes
   Step         PotEng         TotEng           Lx             Ly             Lz           Volume         Press           Pxx            Pyy            Pzz      
        92  -66.31019      -66.31019       3.2488367      4.413386       13.629444      195.42403      119429.15      123442.49      191790.84      43054.127    
        93  -66.31019      -66.31019       3.2488367      4.413386       13.629444      195.42403      119429.15      123442.49      191790.84      43054.127    
Loop time of 0.0002205 on 8 procs for 1 steps with 12 atoms

Performance: 391.837 ns/day, 0.061 hours/ns, 4535.147 timesteps/s, 54.422 katom-step/s
0.0% CPU use with 8 MPI tasks x 1 OpenMP threads

MPI task timing breakdown:
Section |  min time  |  avg time  |  max time  |%varavg| %total
---------------------------------------------------------------
Pair    | 0.000144   | 0.0001585  | 0.000181   |   0.0 | 71.88
Neigh   | 0          | 0          | 0          |   0.0 |  0.00
Comm    | 1.5e-05    | 3.6625e-05 | 5.1e-05    |   0.0 | 16.61
Output  | 1.6e-05    | 1.7e-05    | 1.9e-05    |   0.0 |  7.71
Modify  | 0          | 1.25e-07   | 1e-06      |   0.0 |  0.06
Other   |            | 8.25e-06   |            |       |  3.74

Nlocal:            1.5 ave           4 max           0 min
Histogram: 4 0 0 0 0 2 0 0 0 2
Nghost:          328.5 ave         352 max         306 min
Histogram: 4 0 0 0 0 0 0 0 0 4
Neighs:             48 ave         128 max           0 min
Histogram: 4 0 0 0 0 2 0 0 0 2
FullNghs:           96 ave         256 max           0 min
Histogram: 4 0 0 0 0 2 0 0 0 2

Total # of neighbors = 768
Ave neighs/atom = 64
Neighbor list builds = 0
Dangerous builds = 0
variable  natoms equal "count(all)"
variable xlength equal "lx"
variable  volume equal "vol"
variable  etotal equal "etotal"
variable    ecoh equal "pe/v_natoms"
print "${xlength}, ${volume}, ${etotal}, ${ecoh}" append lattice_cohesive_energy.txt screen no

next i
jump SELF loop

change_box all x scale 1.0025 y scale 1.0025 z scale 1.0025 remap
Changing box ...
  orthogonal box = (0.098129587 0.13882098 0.42870777) to (3.3550884 4.552207 14.058152)
  orthogonal box = (0.098129587 0.13330425 0.42870777) to (3.3550884 4.5577237 14.058152)
  orthogonal box = (0.098129587 0.13330425 0.41167096) to (3.3550884 4.5577237 14.075189)

run 1
WARNING: No fixes with time integration, atoms won't move (src/verlet.cpp:60)
Per MPI rank memory allocation (min/avg/max) = 8.556 | 8.557 | 8.558 Mbytes
   Step         PotEng         TotEng           Lx             Ly             Lz           Volume         Press           Pxx            Pyy            Pzz      
        93  -66.414309     -66.414309      3.2569588      4.4244195      13.663518      196.89337      107675.78      111538.45      178778.25      32710.635    
        94  -66.414309     -66.414309      3.2569588      4.4244195      13.663518      196.89337      107675.78      111538.45      178778.25      32710.635    
Loop time of 0.00021225 on 8 procs for 1 steps with 12 atoms

Performance: 407.067 ns/day, 0.059 hours/ns, 4711.425 timesteps/s, 56.537 katom-step/s
0.0% CPU use with 8 MPI tasks x 1 OpenMP threads

MPI task timing breakdown:
Section |  min time  |  avg time  |  max time  |%varavg| %total
---------------------------------------------------------------
Pair    | 0.000136   | 0.0001495  | 0.000169   |   0.0 | 70.44
Neigh   | 0          | 0          | 0          |   0.0 |  0.00
Comm    | 1.4e-05    | 3.25e-05   | 4.5e-05    |   0.0 | 15.31
Output  | 1.6e-05    | 1.775e-05  | 2.4e-05    |   0.0 |  8.36
Modify  | 0          | 2.5e-07    | 1e-06      |   0.0 |  0.12
Other   |            | 1.225e-05  |            |       |  5.77

Nlocal:            1.5 ave           4 max           0 min
Histogram: 4 0 0 0 0 2 0 0 0 2
Nghost:          328.5 ave         352 max         306 min
Histogram: 4 0 0 0 0 0 0 0 0 4
Neighs:             48 ave         128 max           0 min
Histogram: 4 0 0 0 0 2 0 0 0 2
FullNghs:           96 ave         256 max           0 min
Histogram: 4 0 0 0 0 2 0 0 0 2

Total # of neighbors = 768
Ave neighs/atom = 64
Neighbor list builds = 0
Dangerous builds = 0
variable  natoms equal "count(all)"
variable xlength equal "lx"
variable  volume equal "vol"
variable  etotal equal "etotal"
variable    ecoh equal "pe/v_natoms"
print "${xlength}, ${volume}, ${etotal}, ${ecoh}" append lattice_cohesive_energy.txt screen no

next i
jump SELF loop

change_box all x scale 1.0025 y scale 1.0025 z scale 1.0025 remap
Changing box ...
  orthogonal box = (0.094058388 0.13330425 0.41167096) to (3.3591596 4.5577237 14.075189)
  orthogonal box = (0.094058388 0.12777373 0.41167096) to (3.3591596 4.5632543 14.075189)
  orthogonal box = (0.094058388 0.12777373 0.39459157) to (3.3591596 4.5632543 14.092268)

run 1
WARNING: No fixes with time integration, atoms won't move (src/verlet.cpp:60)
Per MPI rank memory allocation (min/avg/max) = 8.556 | 8.557 | 8.558 Mbytes
   Step         PotEng         TotEng           Lx             Ly             Lz           Volume         Press           Pxx            Pyy            Pzz      
        94  -66.508473     -66.508473      3.2651012      4.4354805      13.697677      198.37377      96213.412      99965.22       166107.59      22567.43     
        95  -66.508473     -66.508473      3.2651012      4.4354805      13.697677      198.37377      96213.412      99965.22       166107.59      22567.43     
Loop time of 0.000212 on 8 procs for 1 steps with 12 atoms

Performance: 407.547 ns/day, 0.059 hours/ns, 4716.981 timesteps/s, 56.604 katom-step/s
0.0% CPU use with 8 MPI tasks x 1 OpenMP threads

MPI task timing breakdown:
Section |  min time  |  avg time  |  max time  |%varavg| %total
---------------------------------------------------------------
Pair    | 0.000143   | 0.00015363 | 0.000171   |   0.0 | 72.46
Neigh   | 0          | 0          | 0          |   0.0 |  0.00
Comm    | 1.6e-05    | 3.1375e-05 | 4.2e-05    |   0.0 | 14.80
Output  | 1.5e-05    | 1.6875e-05 | 1.9e-05    |   0.0 |  7.96
Modify  | 0          | 1.25e-07   | 1e-06      |   0.0 |  0.06
Other   |            | 1e-05      |            |       |  4.72

Nlocal:            1.5 ave           4 max           0 min
Histogram: 4 0 0 0 0 2 0 0 0 2
Nghost:          328.5 ave         352 max         306 min
Histogram: 4 0 0 0 0 0 0 0 0 4
Neighs:             48 ave         128 max           0 min
Histogram: 4 0 0 0 0 2 0 0 0 2
FullNghs:           96 ave         256 max           0 min
Histogram: 4 0 0 0 0 2 0 0 0 2

Total # of neighbors = 768
Ave neighs/atom = 64
Neighbor list builds = 0
Dangerous builds = 0
variable  natoms equal "count(all)"
variable xlength equal "lx"
variable  volume equal "vol"
variable  etotal equal "etotal"
variable    ecoh equal "pe/v_natoms"
print "${xlength}, ${volume}, ${etotal}, ${ecoh}" append lattice_cohesive_energy.txt screen no

next i
jump SELF loop

change_box all x scale 1.0025 y scale 1.0025 z scale 1.0025 remap
Changing box ...
  orthogonal box = (0.089977011 0.12777373 0.39459157) to (3.363241 4.5632543 14.092268)
  orthogonal box = (0.089977011 0.12222938 0.39459157) to (3.363241 4.5687986 14.092268)
  orthogonal box = (0.089977011 0.12222938 0.37746947) to (3.363241 4.5687986 14.109391)

run 1
WARNING: No fixes with time integration, atoms won't move (src/verlet.cpp:60)
Per MPI rank memory allocation (min/avg/max) = 8.556 | 8.557 | 8.558 Mbytes
   Step         PotEng         TotEng           Lx             Ly             Lz           Volume         Press           Pxx            Pyy            Pzz      
        95  -66.592824     -66.592824      3.273264       4.4465692      13.731921      199.8653       85070.193      88715.39       153772.43      12722.759    
        96  -66.592824     -66.592824      3.273264       4.4465692      13.731921      199.8653       85070.193      88715.39       153772.43      12722.759    
Loop time of 0.000200875 on 8 procs for 1 steps with 12 atoms

Performance: 430.118 ns/day, 0.056 hours/ns, 4978.220 timesteps/s, 59.739 katom-step/s
0.0% CPU use with 8 MPI tasks x 1 OpenMP threads

MPI task timing breakdown:
Section |  min time  |  avg time  |  max time  |%varavg| %total
---------------------------------------------------------------
Pair    | 0.000138   | 0.000147   | 0.000162   |   0.0 | 73.18
Neigh   | 0          | 0          | 0          |   0.0 |  0.00
Comm    | 1.5e-05    | 2.8875e-05 | 3.8e-05    |   0.0 | 14.37
Output  | 1.5e-05    | 1.6875e-05 | 1.9e-05    |   0.0 |  8.40
Modify  | 0          | 1.25e-07   | 1e-06      |   0.0 |  0.06
Other   |            | 8e-06      |            |       |  3.98

Nlocal:            1.5 ave           4 max           0 min
Histogram: 4 0 0 0 0 2 0 0 0 2
Nghost:          306.5 ave         308 max         304 min
Histogram: 2 0 0 0 0 2 0 0 0 4
Neighs:             48 ave         128 max           0 min
Histogram: 4 0 0 0 0 2 0 0 0 2
FullNghs:           96 ave         256 max           0 min
Histogram: 4 0 0 0 0 2 0 0 0 2

Total # of neighbors = 768
Ave neighs/atom = 64
Neighbor list builds = 0
Dangerous builds = 0
variable  natoms equal "count(all)"
variable xlength equal "lx"
variable  volume equal "vol"
variable  etotal equal "etotal"
variable    ecoh equal "pe/v_natoms"
print "${xlength}, ${volume}, ${etotal}, ${ecoh}" append lattice_cohesive_energy.txt screen no

next i
jump SELF loop

change_box all x scale 1.0025 y scale 1.0025 z scale 1.0025 remap
Changing box ...
  orthogonal box = (0.085885431 0.12222938 0.37746947) to (3.3673326 4.5687986 14.109391)
  orthogonal box = (0.085885431 0.11667116 0.37746947) to (3.3673326 4.5743568 14.109391)
  orthogonal box = (0.085885431 0.11667116 0.36030457) to (3.3673326 4.5743568 14.126555)

run 1
WARNING: No fixes with time integration, atoms won't move (src/verlet.cpp:60)
Per MPI rank memory allocation (min/avg/max) = 8.556 | 8.557 | 8.558 Mbytes
   Step         PotEng         TotEng           Lx             Ly             Lz           Volume         Press           Pxx            Pyy            Pzz      
        96  -66.667505     -66.667505      3.2814471      4.4576857      13.766251      201.36804      74239.947      77782.176      141766.63      3171.0364    
        97  -66.667505     -66.667505      3.2814471      4.4576857      13.766251      201.36804      74239.947      77782.176      141766.63      3171.0364    
Loop time of 0.00020525 on 8 procs for 1 steps with 12 atoms

Performance: 420.950 ns/day, 0.057 hours/ns, 4872.107 timesteps/s, 58.465 katom-step/s
0.0% CPU use with 8 MPI tasks x 1 OpenMP threads

MPI task timing breakdown:
Section |  min time  |  avg time  |  max time  |%varavg| %total
---------------------------------------------------------------
Pair    | 0.000137   | 0.00014775 | 0.000166   |   0.0 | 71.99
Neigh   | 0          | 0          | 0          |   0.0 |  0.00
Comm    | 1.6e-05    | 3.25e-05   | 4.4e-05    |   0.0 | 15.83
Output  | 1.6e-05    | 1.775e-05  | 2.1e-05    |   0.0 |  8.65
Modify  | 0          | 2.5e-07    | 1e-06      |   0.0 |  0.12
Other   |            | 7e-06      |            |       |  3.41

Nlocal:            1.5 ave           4 max           0 min
Histogram: 4 0 0 0 0 2 0 0 0 2
Nghost:          306.5 ave         308 max         304 min
Histogram: 2 0 0 0 0 2 0 0 0 4
Neighs:             48 ave         128 max           0 min
Histogram: 4 0 0 0 0 2 0 0 0 2
FullNghs:           96 ave         256 max           0 min
Histogram: 4 0 0 0 0 2 0 0 0 2

Total # of neighbors = 768
Ave neighs/atom = 64
Neighbor list builds = 0
Dangerous builds = 0
variable  natoms equal "count(all)"
variable xlength equal "lx"
variable  volume equal "vol"
variable  etotal equal "etotal"
variable    ecoh equal "pe/v_natoms"
print "${xlength}, ${volume}, ${etotal}, ${ecoh}" append lattice_cohesive_energy.txt screen no

next i
jump SELF loop

change_box all x scale 1.0025 y scale 1.0025 z scale 1.0025 remap
Changing box ...
  orthogonal box = (0.081783623 0.11667116 0.36030457) to (3.3714344 4.5743568 14.126555)
  orthogonal box = (0.081783623 0.11109906 0.36030457) to (3.3714344 4.5799289 14.126555)
  orthogonal box = (0.081783623 0.11109906 0.34309676) to (3.3714344 4.5799289 14.143763)

run 1
WARNING: No fixes with time integration, atoms won't move (src/verlet.cpp:60)
Per MPI rank memory allocation (min/avg/max) = 8.556 | 8.557 | 8.558 Mbytes
   Step         PotEng         TotEng           Lx             Ly             Lz           Volume         Press           Pxx            Pyy            Pzz      
        97  -66.732658     -66.732658      3.2896508      4.4688299      13.800666      202.88207      63716.456      67159.009      130083.86     -6093.5044    
        98  -66.732658     -66.732658      3.2896508      4.4688299      13.800666      202.88207      63716.456      67159.009      130083.86     -6093.5044    
Loop time of 0.000222625 on 8 procs for 1 steps with 12 atoms

Performance: 388.097 ns/day, 0.062 hours/ns, 4491.859 timesteps/s, 53.902 katom-step/s
0.0% CPU use with 8 MPI tasks x 1 OpenMP threads

MPI task timing breakdown:
Section |  min time  |  avg time  |  max time  |%varavg| %total
---------------------------------------------------------------
Pair    | 0.000155   | 0.00017575 | 0.000184   |   0.0 | 78.94
Neigh   | 0          | 0          | 0          |   0.0 |  0.00
Comm    | 1.3e-05    | 2.1875e-05 | 4.1e-05    |   0.0 |  9.83
Output  | 1.6e-05    | 1.7625e-05 | 2e-05      |   0.0 |  7.92
Modify  | 0          | 2.5e-07    | 2e-06      |   0.0 |  0.11
Other   |            | 7.125e-06  |            |       |  3.20

Nlocal:            1.5 ave           4 max           0 min
Histogram: 4 0 0 0 0 2 0 0 0 2
Nghost:          306.5 ave         308 max         304 min
Histogram: 2 0 0 0 0 2 0 0 0 4
Neighs:             48 ave         128 max           0 min
Histogram: 4 0 0 0 0 2 0 0 0 2
FullNghs:           96 ave         256 max           0 min
Histogram: 4 0 0 0 0 2 0 0 0 2

Total # of neighbors = 768
Ave neighs/atom = 64
Neighbor list builds = 0
Dangerous builds = 0
variable  natoms equal "count(all)"
variable xlength equal "lx"
variable  volume equal "vol"
variable  etotal equal "etotal"
variable    ecoh equal "pe/v_natoms"
print "${xlength}, ${volume}, ${etotal}, ${ecoh}" append lattice_cohesive_energy.txt screen no

next i
jump SELF loop

change_box all x scale 1.0025 y scale 1.0025 z scale 1.0025 remap
Changing box ...
  orthogonal box = (0.077671559 0.11109906 0.34309676) to (3.3755464 4.5799289 14.143763)
  orthogonal box = (0.077671559 0.10551302 0.34309676) to (3.3755464 4.585515 14.143763)
  orthogonal box = (0.077671559 0.10551302 0.32584592) to (3.3755464 4.585515 14.161014)

run 1
WARNING: No fixes with time integration, atoms won't move (src/verlet.cpp:60)
Per MPI rank memory allocation (min/avg/max) = 8.556 | 8.557 | 8.558 Mbytes
   Step         PotEng         TotEng           Lx             Ly             Lz           Volume         Press           Pxx            Pyy            Pzz      
        98  -66.788426     -66.788426      3.2978749      4.480002       13.835168      204.4075       53493.431      56840.049      118717.39     -15077.149    
        99  -66.788426     -66.788426      3.2978749      4.480002       13.835168      204.4075       53493.431      56840.049      118717.39     -15077.149    
Loop time of 0.000176375 on 8 procs for 1 steps with 12 atoms

Performance: 489.865 ns/day, 0.049 hours/ns, 5669.738 timesteps/s, 68.037 katom-step/s
0.0% CPU use with 8 MPI tasks x 1 OpenMP threads

MPI task timing breakdown:
Section |  min time  |  avg time  |  max time  |%varavg| %total
---------------------------------------------------------------
Pair    | 0.000127   | 0.000132   | 0.000144   |   0.0 | 74.84
Neigh   | 0          | 0          | 0          |   0.0 |  0.00
Comm    | 1.3e-05    | 2.4e-05    | 2.9e-05    |   0.0 | 13.61
Output  | 1.3e-05    | 1.525e-05  | 1.8e-05    |   0.0 |  8.65
Modify  | 0          | 1.25e-07   | 1e-06      |   0.0 |  0.07
Other   |            | 5e-06      |            |       |  2.83

Nlocal:            1.5 ave           4 max           0 min
Histogram: 4 0 0 0 0 2 0 0 0 2
Nghost:          306.5 ave         308 max         304 min
Histogram: 2 0 0 0 0 2 0 0 0 4
Neighs:             48 ave         128 max           0 min
Histogram: 4 0 0 0 0 2 0 0 0 2
FullNghs:           96 ave         256 max           0 min
Histogram: 4 0 0 0 0 2 0 0 0 2

Total # of neighbors = 768
Ave neighs/atom = 64
Neighbor list builds = 0
Dangerous builds = 0
variable  natoms equal "count(all)"
variable xlength equal "lx"
variable  volume equal "vol"
variable  etotal equal "etotal"
variable    ecoh equal "pe/v_natoms"
print "${xlength}, ${volume}, ${etotal}, ${ecoh}" append lattice_cohesive_energy.txt screen no

next i
jump SELF loop

change_box all x scale 1.0025 y scale 1.0025 z scale 1.0025 remap
Changing box ...
  orthogonal box = (0.073549216 0.10551302 0.32584592) to (3.3796688 4.585515 14.161014)
  orthogonal box = (0.073549216 0.099913017 0.32584592) to (3.3796688 4.591115 14.161014)
  orthogonal box = (0.073549216 0.099913017 0.30855196) to (3.3796688 4.591115 14.178308)

run 1
WARNING: No fixes with time integration, atoms won't move (src/verlet.cpp:60)
Per MPI rank memory allocation (min/avg/max) = 8.556 | 8.557 | 8.558 Mbytes
   Step         PotEng         TotEng           Lx             Ly             Lz           Volume         Press           Pxx            Pyy            Pzz      
        99  -66.834949     -66.834949      3.3061196      4.491202       13.869756      205.94439      43564.37       46820.979      107659.41     -23787.28     
       100  -66.834949     -66.834949      3.3061196      4.491202       13.869756      205.94439      43564.37       46820.979      107659.41     -23787.28     
Loop time of 0.000172375 on 8 procs for 1 steps with 12 atoms

Performance: 501.233 ns/day, 0.048 hours/ns, 5801.305 timesteps/s, 69.616 katom-step/s
0.0% CPU use with 8 MPI tasks x 1 OpenMP threads

MPI task timing breakdown:
Section |  min time  |  avg time  |  max time  |%varavg| %total
---------------------------------------------------------------
Pair    | 0.000124   | 0.00012863 | 0.000139   |   0.0 | 74.62
Neigh   | 0          | 0          | 0          |   0.0 |  0.00
Comm    | 1.4e-05    | 2.3e-05    | 2.8e-05    |   0.0 | 13.34
Output  | 1.4e-05    | 1.5375e-05 | 1.8e-05    |   0.0 |  8.92
Modify  | 0          | 2.5e-07    | 1e-06      |   0.0 |  0.15
Other   |            | 5.125e-06  |            |       |  2.97

Nlocal:            1.5 ave           4 max           0 min
Histogram: 4 0 0 0 0 2 0 0 0 2
Nghost:          306.5 ave         308 max         304 min
Histogram: 2 0 0 0 0 2 0 0 0 4
Neighs:             48 ave         128 max           0 min
Histogram: 4 0 0 0 0 2 0 0 0 2
FullNghs:           96 ave         256 max           0 min
Histogram: 4 0 0 0 0 2 0 0 0 2

Total # of neighbors = 768
Ave neighs/atom = 64
Neighbor list builds = 0
Dangerous builds = 0
variable  natoms equal "count(all)"
variable xlength equal "lx"
variable  volume equal "vol"
variable  etotal equal "etotal"
variable    ecoh equal "pe/v_natoms"
print "${xlength}, ${volume}, ${etotal}, ${ecoh}" append lattice_cohesive_energy.txt screen no

next i
jump SELF loop

change_box all x scale 1.0025 y scale 1.0025 z scale 1.0025 remap
Changing box ...
  orthogonal box = (0.069416566 0.099913017 0.30855196) to (3.3838014 4.591115 14.178308)
  orthogonal box = (0.069416566 0.094299015 0.30855196) to (3.3838014 4.596729 14.178308)
  orthogonal box = (0.069416566 0.094299015 0.29121477) to (3.3838014 4.596729 14.195645)

run 1
WARNING: No fixes with time integration, atoms won't move (src/verlet.cpp:60)
Per MPI rank memory allocation (min/avg/max) = 8.556 | 8.557 | 8.558 Mbytes
   Step         PotEng         TotEng           Lx             Ly             Lz           Volume         Press           Pxx            Pyy            Pzz      
       100  -66.872365     -66.872365      3.3143849      4.50243        13.90443       207.49284      33925.693      37099.527      96904.921     -32227.369    
       101  -66.872365     -66.872365      3.3143849      4.50243        13.90443       207.49284      33925.693      37099.527      96904.921     -32227.369    
Loop time of 0.00016775 on 8 procs for 1 steps with 12 atoms

Performance: 515.052 ns/day, 0.047 hours/ns, 5961.252 timesteps/s, 71.535 katom-step/s
0.0% CPU use with 8 MPI tasks x 1 OpenMP threads

MPI task timing breakdown:
Section |  min time  |  avg time  |  max time  |%varavg| %total
---------------------------------------------------------------
Pair    | 0.000123   | 0.00012525 | 0.000132   |   0.0 | 74.66
Neigh   | 0          | 0          | 0          |   0.0 |  0.00
Comm    | 1.4e-05    | 1.95e-05   | 2.2e-05    |   0.0 | 11.62
Output  | 1.4e-05    | 1.55e-05   | 1.8e-05    |   0.0 |  9.24
Modify  | 0          | 5e-07      | 2e-06      |   0.0 |  0.30
Other   |            | 7e-06      |            |       |  4.17

Nlocal:            1.5 ave           4 max           0 min
Histogram: 4 0 0 0 0 2 0 0 0 2
Nghost:          306.5 ave         308 max         304 min
Histogram: 2 0 0 0 0 2 0 0 0 4
Neighs:             48 ave         128 max           0 min
Histogram: 4 0 0 0 0 2 0 0 0 2
FullNghs:           96 ave         256 max           0 min
Histogram: 4 0 0 0 0 2 0 0 0 2

Total # of neighbors = 768
Ave neighs/atom = 64
Neighbor list builds = 0
Dangerous builds = 0
variable  natoms equal "count(all)"
variable xlength equal "lx"
variable  volume equal "vol"
variable  etotal equal "etotal"
variable    ecoh equal "pe/v_natoms"
print "${xlength}, ${volume}, ${etotal}, ${ecoh}" append lattice_cohesive_energy.txt screen no

next i
jump SELF loop

change_box all x scale 1.0025 y scale 1.0025 z scale 1.0025 remap
Changing box ...
  orthogonal box = (0.065273585 0.094299015 0.29121477) to (3.3879444 4.596729 14.195645)
  orthogonal box = (0.065273585 0.088670977 0.29121477) to (3.3879444 4.602357 14.195645)
  orthogonal box = (0.065273585 0.088670977 0.27383423) to (3.3879444 4.602357 14.213026)

run 1
WARNING: No fixes with time integration, atoms won't move (src/verlet.cpp:60)
Per MPI rank memory allocation (min/avg/max) = 8.556 | 8.557 | 8.558 Mbytes
   Step         PotEng         TotEng           Lx             Ly             Lz           Volume         Press           Pxx            Pyy            Pzz      
       101  -66.900817     -66.900817      3.3226708      4.513686       13.939192      209.05293      24570.831      27665.657      86448.768     -40401.931    
       102  -66.900817     -66.900817      3.3226708      4.513686       13.939192      209.05293      24570.831      27665.657      86448.768     -40401.931    
Loop time of 0.000163625 on 8 procs for 1 steps with 12 atoms

Performance: 528.037 ns/day, 0.045 hours/ns, 6111.536 timesteps/s, 73.338 katom-step/s
0.0% CPU use with 8 MPI tasks x 1 OpenMP threads

MPI task timing breakdown:
Section |  min time  |  avg time  |  max time  |%varavg| %total
---------------------------------------------------------------
Pair    | 0.000119   | 0.0001225  | 0.00013    |   0.0 | 74.87
Neigh   | 0          | 0          | 0          |   0.0 |  0.00
Comm    | 1.3e-05    | 1.9375e-05 | 2.3e-05    |   0.0 | 11.84
Output  | 1.4e-05    | 1.6125e-05 | 1.9e-05    |   0.0 |  9.85
Modify  | 0          | 0          | 0          |   0.0 |  0.00
Other   |            | 5.625e-06  |            |       |  3.44

Nlocal:            1.5 ave           4 max           0 min
Histogram: 4 0 0 0 0 2 0 0 0 2
Nghost:          306.5 ave         308 max         304 min
Histogram: 2 0 0 0 0 2 0 0 0 4
Neighs:             48 ave         128 max           0 min
Histogram: 4 0 0 0 0 2 0 0 0 2
FullNghs:           96 ave         256 max           0 min
Histogram: 4 0 0 0 0 2 0 0 0 2

Total # of neighbors = 768
Ave neighs/atom = 64
Neighbor list builds = 0
Dangerous builds = 0
variable  natoms equal "count(all)"
variable xlength equal "lx"
variable  volume equal "vol"
variable  etotal equal "etotal"
variable    ecoh equal "pe/v_natoms"
print "${xlength}, ${volume}, ${etotal}, ${ecoh}" append lattice_cohesive_energy.txt screen no

next i
jump SELF loop

change_box all x scale 1.0025 y scale 1.0025 z scale 1.0025 remap
Changing box ...
  orthogonal box = (0.061120246 0.088670977 0.27383423) to (3.3920978 4.602357 14.213026)
  orthogonal box = (0.061120246 0.08302887 0.27383423) to (3.3920978 4.6079991 14.213026)
  orthogonal box = (0.061120246 0.08302887 0.25641024) to (3.3920978 4.6079991 14.23045)

run 1
WARNING: No fixes with time integration, atoms won't move (src/verlet.cpp:60)
Per MPI rank memory allocation (min/avg/max) = 8.556 | 8.557 | 8.558 Mbytes
   Step         PotEng         TotEng           Lx             Ly             Lz           Volume         Press           Pxx            Pyy            Pzz      
       102  -66.920442     -66.920442      3.3309775      4.5249703      13.97404       210.62475      15494.285      18513.714      76285.163     -48316.021    
       103  -66.920442     -66.920442      3.3309775      4.5249703      13.97404       210.62475      15494.285      18513.714      76285.163     -48316.021    
Loop time of 0.000160875 on 8 procs for 1 steps with 12 atoms

Performance: 537.063 ns/day, 0.045 hours/ns, 6216.006 timesteps/s, 74.592 katom-step/s
0.0% CPU use with 8 MPI tasks x 1 OpenMP threads

MPI task timing breakdown:
Section |  min time  |  avg time  |  max time  |%varavg| %total
---------------------------------------------------------------
Pair    | 0.000117   | 0.00012038 | 0.000127   |   0.0 | 74.83
Neigh   | 0          | 0          | 0          |   0.0 |  0.00
Comm    | 1.4e-05    | 1.9e-05    | 2.2e-05    |   0.0 | 11.81
Output  | 1.4e-05    | 1.5375e-05 | 1.8e-05    |   0.0 |  9.56
Modify  | 0          | 3.75e-07   | 1e-06      |   0.0 |  0.23
Other   |            | 5.75e-06   |            |       |  3.57

Nlocal:            1.5 ave           4 max           0 min
Histogram: 4 0 0 0 0 2 0 0 0 2
Nghost:          306.5 ave         308 max         304 min
Histogram: 2 0 0 0 0 2 0 0 0 4
Neighs:             48 ave         128 max           0 min
Histogram: 4 0 0 0 0 2 0 0 0 2
FullNghs:           96 ave         256 max           0 min
Histogram: 4 0 0 0 0 2 0 0 0 2

Total # of neighbors = 768
Ave neighs/atom = 64
Neighbor list builds = 0
Dangerous builds = 0
variable  natoms equal "count(all)"
variable xlength equal "lx"
variable  volume equal "vol"
variable  etotal equal "etotal"
variable    ecoh equal "pe/v_natoms"
print "${xlength}, ${volume}, ${etotal}, ${ecoh}" append lattice_cohesive_energy.txt screen no

next i
jump SELF loop

change_box all x scale 1.0025 y scale 1.0025 z scale 1.0025 remap
Changing box ...
  orthogonal box = (0.056956525 0.08302887 0.25641024) to (3.3962615 4.6079991 14.23045)
  orthogonal box = (0.056956525 0.077372657 0.25641024) to (3.3962615 4.6136553 14.23045)
  orthogonal box = (0.056956525 0.077372657 0.23894269) to (3.3962615 4.6136553 14.247917)

run 1
WARNING: No fixes with time integration, atoms won't move (src/verlet.cpp:60)
Per MPI rank memory allocation (min/avg/max) = 8.548 | 8.549 | 8.551 Mbytes
   Step         PotEng         TotEng           Lx             Ly             Lz           Volume         Press           Pxx            Pyy            Pzz      
       103  -66.931378     -66.931378      3.339305       4.5362827      14.008975      212.20839      6690.5035      9638.1959      66408.38      -55975.065    
       104  -66.931378     -66.931378      3.339305       4.5362827      14.008975      212.20839      6690.5035      9638.1959      66408.38      -55975.065    
Loop time of 0.00013925 on 8 procs for 1 steps with 12 atoms

Performance: 620.467 ns/day, 0.039 hours/ns, 7181.329 timesteps/s, 86.176 katom-step/s
0.0% CPU use with 8 MPI tasks x 1 OpenMP threads

MPI task timing breakdown:
Section |  min time  |  avg time  |  max time  |%varavg| %total
---------------------------------------------------------------
Pair    | 9.7e-05    | 0.0001     | 0.000107   |   0.0 | 71.81
Neigh   | 0          | 0          | 0          |   0.0 |  0.00
Comm    | 1.2e-05    | 1.7125e-05 | 2.1e-05    |   0.0 | 12.30
Output  | 1.5e-05    | 1.65e-05   | 1.9e-05    |   0.0 | 11.85
Modify  | 0          | 1.25e-07   | 1e-06      |   0.0 |  0.09
Other   |            | 5.5e-06    |            |       |  3.95

Nlocal:            1.5 ave           4 max           0 min
Histogram: 4 0 0 0 0 2 0 0 0 2
Nghost:          229.5 ave         231 max         227 min
Histogram: 2 0 0 0 0 2 0 0 0 4
Neighs:             48 ave         128 max           0 min
Histogram: 4 0 0 0 0 2 0 0 0 2
FullNghs:           96 ave         256 max           0 min
Histogram: 4 0 0 0 0 2 0 0 0 2

Total # of neighbors = 768
Ave neighs/atom = 64
Neighbor list builds = 0
Dangerous builds = 0
variable  natoms equal "count(all)"
variable xlength equal "lx"
variable  volume equal "vol"
variable  etotal equal "etotal"
variable    ecoh equal "pe/v_natoms"
print "${xlength}, ${volume}, ${etotal}, ${ecoh}" append lattice_cohesive_energy.txt screen no

next i
jump SELF loop

change_box all x scale 1.0025 y scale 1.0025 z scale 1.0025 remap
Changing box ...
  orthogonal box = (0.052782393 0.077372657 0.23894269) to (3.4004356 4.6136553 14.247917)
  orthogonal box = (0.052782393 0.071702304 0.23894269) to (3.4004356 4.6193257 14.247917)
  orthogonal box = (0.052782393 0.071702304 0.22143147) to (3.4004356 4.6193257 14.265429)

run 1
WARNING: No fixes with time integration, atoms won't move (src/verlet.cpp:60)
Per MPI rank memory allocation (min/avg/max) = 8.548 | 8.549 | 8.551 Mbytes
   Step         PotEng         TotEng           Lx             Ly             Lz           Volume         Press           Pxx            Pyy            Pzz      
       104  -66.933763     -66.933763      3.3476532      4.5476234      14.043997      213.80393     -1846.3159      1033.6306      56812.805     -63385.383    
       105  -66.933763     -66.933763      3.3476532      4.5476234      14.043997      213.80393     -1846.3159      1033.6306      56812.805     -63385.383    
Loop time of 0.00013625 on 8 procs for 1 steps with 12 atoms

Performance: 634.128 ns/day, 0.038 hours/ns, 7339.450 timesteps/s, 88.073 katom-step/s
0.0% CPU use with 8 MPI tasks x 1 OpenMP threads

MPI task timing breakdown:
Section |  min time  |  avg time  |  max time  |%varavg| %total
---------------------------------------------------------------
Pair    | 9.7e-05    | 9.9625e-05 | 0.000105   |   0.0 | 73.12
Neigh   | 0          | 0          | 0          |   0.0 |  0.00
Comm    | 1.1e-05    | 1.525e-05  | 1.8e-05    |   0.0 | 11.19
Output  | 1.4e-05    | 1.5e-05    | 1.7e-05    |   0.0 | 11.01
Modify  | 0          | 1.25e-07   | 1e-06      |   0.0 |  0.09
Other   |            | 6.25e-06   |            |       |  4.59

Nlocal:            1.5 ave           4 max           0 min
Histogram: 4 0 0 0 0 2 0 0 0 2
Nghost:          229.5 ave         231 max         227 min
Histogram: 2 0 0 0 0 2 0 0 0 4
Neighs:             48 ave         128 max           0 min
Histogram: 4 0 0 0 0 2 0 0 0 2
FullNghs:           96 ave         256 max           0 min
Histogram: 4 0 0 0 0 2 0 0 0 2

Total # of neighbors = 768
Ave neighs/atom = 64
Neighbor list builds = 0
Dangerous builds = 0
variable  natoms equal "count(all)"
variable xlength equal "lx"
variable  volume equal "vol"
variable  etotal equal "etotal"
variable    ecoh equal "pe/v_natoms"
print "${xlength}, ${volume}, ${etotal}, ${ecoh}" append lattice_cohesive_energy.txt screen no

next i
jump SELF loop

change_box all x scale 1.0025 y scale 1.0025 z scale 1.0025 remap
Changing box ...
  orthogonal box = (0.048597827 0.071702304 0.22143147) to (3.4046202 4.6193257 14.265429)
  orthogonal box = (0.048597827 0.066017774 0.22143147) to (3.4046202 4.6250102 14.265429)
  orthogonal box = (0.048597827 0.066017774 0.20387648) to (3.4046202 4.6250102 14.282984)

run 1
WARNING: No fixes with time integration, atoms won't move (src/verlet.cpp:60)
Per MPI rank memory allocation (min/avg/max) = 8.548 | 8.549 | 8.551 Mbytes
   Step         PotEng         TotEng           Lx             Ly             Lz           Volume         Press           Pxx            Pyy            Pzz      
       105  -66.927732     -66.927732      3.3560223      4.5589925      14.079107      215.41147     -10122.584     -7305.6212      47492.911     -70555.042    
       106  -66.927732     -66.927732      3.3560223      4.5589925      14.079107      215.41147     -10122.584     -7305.6212      47492.911     -70555.042    
Loop time of 0.00019175 on 8 procs for 1 steps with 12 atoms

Performance: 450.587 ns/day, 0.053 hours/ns, 5215.124 timesteps/s, 62.581 katom-step/s
0.0% CPU use with 8 MPI tasks x 1 OpenMP threads

MPI task timing breakdown:
Section |  min time  |  avg time  |  max time  |%varavg| %total
---------------------------------------------------------------
Pair    | 0.000101   | 0.000129   | 0.00016    |   0.0 | 67.28
Neigh   | 0          | 0          | 0          |   0.0 |  0.00
Comm    | 1.1e-05    | 4.0875e-05 | 6.9e-05    |   0.0 | 21.32
Output  | 1.5e-05    | 1.575e-05  | 1.8e-05    |   0.0 |  8.21
Modify  | 0          | 2.5e-07    | 1e-06      |   0.0 |  0.13
Other   |            | 5.875e-06  |            |       |  3.06

Nlocal:            1.5 ave           4 max           0 min
Histogram: 4 0 0 0 0 2 0 0 0 2
Nghost:          229.5 ave         231 max         227 min
Histogram: 2 0 0 0 0 2 0 0 0 4
Neighs:             48 ave         128 max           0 min
Histogram: 4 0 0 0 0 2 0 0 0 2
FullNghs:           96 ave         256 max           0 min
Histogram: 4 0 0 0 0 2 0 0 0 2

Total # of neighbors = 768
Ave neighs/atom = 64
Neighbor list builds = 0
Dangerous builds = 0
variable  natoms equal "count(all)"
variable xlength equal "lx"
variable  volume equal "vol"
variable  etotal equal "etotal"
variable    ecoh equal "pe/v_natoms"
print "${xlength}, ${volume}, ${etotal}, ${ecoh}" append lattice_cohesive_energy.txt screen no

next i
jump SELF loop

change_box all x scale 1.0025 y scale 1.0025 z scale 1.0025 remap
Changing box ...
  orthogonal box = (0.044402799 0.066017774 0.20387648) to (3.4088152 4.6250102 14.282984)
  orthogonal box = (0.044402799 0.060319034 0.20387648) to (3.4088152 4.630709 14.282984)
  orthogonal box = (0.044402799 0.060319034 0.18627759) to (3.4088152 4.630709 14.300582)

run 1
WARNING: No fixes with time integration, atoms won't move (src/verlet.cpp:60)
Per MPI rank memory allocation (min/avg/max) = 8.548 | 8.549 | 8.551 Mbytes
   Step         PotEng         TotEng           Lx             Ly             Lz           Volume         Press           Pxx            Pyy            Pzz      
       106  -66.913418     -66.913418      3.3644124      4.5703899      14.114305      217.0311      -18145.872     -15385.79       38443.183     -77495.01     
       107  -66.913418     -66.913418      3.3644124      4.5703899      14.114305      217.0311      -18145.872     -15385.79       38443.183     -77495.01     
Loop time of 0.000137125 on 8 procs for 1 steps with 12 atoms

Performance: 630.082 ns/day, 0.038 hours/ns, 7292.616 timesteps/s, 87.511 katom-step/s
0.0% CPU use with 8 MPI tasks x 1 OpenMP threads

MPI task timing breakdown:
Section |  min time  |  avg time  |  max time  |%varavg| %total
---------------------------------------------------------------
Pair    | 9.4e-05    | 9.8e-05    | 0.000105   |   0.0 | 71.47
Neigh   | 0          | 0          | 0          |   0.0 |  0.00
Comm    | 1.1e-05    | 1.775e-05  | 2.1e-05    |   0.0 | 12.94
Output  | 1.4e-05    | 1.5e-05    | 1.8e-05    |   0.0 | 10.94
Modify  | 0          | 1.25e-07   | 1e-06      |   0.0 |  0.09
Other   |            | 6.25e-06   |            |       |  4.56

Nlocal:            1.5 ave           4 max           0 min
Histogram: 4 0 0 0 0 2 0 0 0 2
Nghost:          229.5 ave         231 max         227 min
Histogram: 2 0 0 0 0 2 0 0 0 4
Neighs:             48 ave         128 max           0 min
Histogram: 4 0 0 0 0 2 0 0 0 2
FullNghs:           96 ave         256 max           0 min
Histogram: 4 0 0 0 0 2 0 0 0 2

Total # of neighbors = 768
Ave neighs/atom = 64
Neighbor list builds = 0
Dangerous builds = 0
variable  natoms equal "count(all)"
variable xlength equal "lx"
variable  volume equal "vol"
variable  etotal equal "etotal"
variable    ecoh equal "pe/v_natoms"
print "${xlength}, ${volume}, ${etotal}, ${ecoh}" append lattice_cohesive_energy.txt screen no

next i
jump SELF loop

change_box all x scale 1.0025 y scale 1.0025 z scale 1.0025 remap
Changing box ...
  orthogonal box = (0.040197283 0.060319034 0.18627759) to (3.4130207 4.630709 14.300582)
  orthogonal box = (0.040197283 0.054606046 0.18627759) to (3.4130207 4.636422 14.300582)
  orthogonal box = (0.040197283 0.054606046 0.16863471) to (3.4130207 4.636422 14.318225)

run 1
WARNING: No fixes with time integration, atoms won't move (src/verlet.cpp:60)
Per MPI rank memory allocation (min/avg/max) = 8.548 | 8.549 | 8.551 Mbytes
   Step         PotEng         TotEng           Lx             Ly             Lz           Volume         Press           Pxx            Pyy            Pzz      
       107  -66.890951     -66.890951      3.3728234      4.5818159      14.149591      218.66291     -25919.462     -23213.751      29658.171     -84202.806    
       108  -66.890951     -66.890951      3.3728234      4.5818159      14.149591      218.66291     -25919.462     -23213.751      29658.171     -84202.806    
Loop time of 0.000130375 on 8 procs for 1 steps with 12 atoms

Performance: 662.704 ns/day, 0.036 hours/ns, 7670.182 timesteps/s, 92.042 katom-step/s
0.0% CPU use with 8 MPI tasks x 1 OpenMP threads

MPI task timing breakdown:
Section |  min time  |  avg time  |  max time  |%varavg| %total
---------------------------------------------------------------
Pair    | 9.2e-05    | 9.5e-05    | 0.000101   |   0.0 | 72.87
Neigh   | 0          | 0          | 0          |   0.0 |  0.00
Comm    | 1e-05      | 1.5125e-05 | 1.7e-05    |   0.0 | 11.60
Output  | 1.3e-05    | 1.4375e-05 | 1.7e-05    |   0.0 | 11.03
Modify  | 0          | 1.25e-07   | 1e-06      |   0.0 |  0.10
Other   |            | 5.75e-06   |            |       |  4.41

Nlocal:            1.5 ave           4 max           0 min
Histogram: 4 0 0 0 0 2 0 0 0 2
Nghost:          229.5 ave         231 max         227 min
Histogram: 2 0 0 0 0 2 0 0 0 4
Neighs:             48 ave         128 max           0 min
Histogram: 4 0 0 0 0 2 0 0 0 2
FullNghs:           96 ave         256 max           0 min
Histogram: 4 0 0 0 0 2 0 0 0 2

[...]
Neigh   | 0          | 0          | 0          |   0.0 |  0.00
Comm    | 1.2e-05    | 1.475e-05  | 2.1e-05    |   0.0 |  9.61
Output  | 1.5e-05    | 1.7375e-05 | 2e-05      |   0.0 | 11.32
Modify  | 0          | 1.25e-07   | 1e-06      |   0.0 |  0.08
Other   |            | 6.75e-06   |            |       |  4.40

Nlocal:            1.5 ave           4 max           0 min
Histogram: 4 0 0 0 0 2 0 0 0 2
Nghost:          187.5 ave         189 max         185 min
Histogram: 2 0 0 0 0 2 0 0 0 4
Neighs:           44.5 ave         116 max           0 min
Histogram: 4 0 0 0 0 2 0 0 0 2
FullNghs:           89 ave         236 max           0 min
Histogram: 4 0 0 0 0 2 0 0 0 2

Total # of neighbors = 712
Ave neighs/atom = 59.333333
Neighbor list builds = 0
Dangerous builds = 0
variable  natoms equal "count(all)"
variable xlength equal "lx"
variable  volume equal "vol"
variable  etotal equal "etotal"
variable    ecoh equal "pe/v_natoms"
print "${xlength}, ${volume}, ${etotal}, ${ecoh}" append lattice_cohesive_energy.txt screen no

next i
jump SELF loop

change_box all x scale 1.0025 y scale 1.0025 z scale 1.0025 remap
Changing box ...
  orthogonal box = (-0.024161943 -0.026891806 -0.083047431) to (3.4773799 4.7179198 14.569907)
  orthogonal box = (-0.024161943 -0.03282282 -0.083047431) to (3.4773799 4.7238508 14.569907)
  orthogonal box = (-0.024161943 -0.03282282 -0.10136362) to (3.4773799 4.7238508 14.588224)

run 1
WARNING: No fixes with time integration, atoms won't move (src/verlet.cpp:60)
Per MPI rank memory allocation (min/avg/max) = 8.54 | 8.541 | 8.543 Mbytes
   Step         PotEng         TotEng           Lx             Ly             Lz           Volume         Press           Pxx            Pyy            Pzz      
       122  -65.664372     -65.664372      3.5015419      4.7566736      14.689587      244.66524     -115714.76     -113612.64     -73789.868     -159741.78    
       123  -65.664372     -65.664372      3.5015419      4.7566736      14.689587      244.66524     -115714.76     -113612.64     -73789.868     -159741.78    
Loop time of 0.000152875 on 8 procs for 1 steps with 12 atoms

Performance: 565.168 ns/day, 0.042 hours/ns, 6541.292 timesteps/s, 78.496 katom-step/s
0.0% CPU use with 8 MPI tasks x 1 OpenMP threads

MPI task timing breakdown:
Section |  min time  |  avg time  |  max time  |%varavg| %total
---------------------------------------------------------------
Pair    | 0.000111   | 0.00011487 | 0.000117   |   0.0 | 75.14
Neigh   | 0          | 0          | 0          |   0.0 |  0.00
Comm    | 1.2e-05    | 1.45e-05   | 1.9e-05    |   0.0 |  9.48
Output  | 1.5e-05    | 1.6625e-05 | 1.9e-05    |   0.0 | 10.87
Modify  | 0          | 0          | 0          |   0.0 |  0.00
Other   |            | 6.875e-06  |            |       |  4.50

Nlocal:            1.5 ave           4 max           0 min
Histogram: 4 0 0 0 0 2 0 0 0 2
Nghost:          187.5 ave         189 max         185 min
Histogram: 2 0 0 0 0 2 0 0 0 4
Neighs:           44.5 ave         116 max           0 min
Histogram: 4 0 0 0 0 2 0 0 0 2
FullNghs:           89 ave         236 max           0 min
Histogram: 4 0 0 0 0 2 0 0 0 2

Total # of neighbors = 712
Ave neighs/atom = 59.333333
Neighbor list builds = 0
Dangerous builds = 0
variable  natoms equal "count(all)"
variable xlength equal "lx"
variable  volume equal "vol"
variable  etotal equal "etotal"
variable    ecoh equal "pe/v_natoms"
print "${xlength}, ${volume}, ${etotal}, ${ecoh}" append lattice_cohesive_energy.txt screen no

next i
jump SELF loop

change_box all x scale 1.0025 y scale 1.0025 z scale 1.0025 remap
Changing box ...
  orthogonal box = (-0.028538871 -0.03282282 -0.10136362) to (3.4817569 4.7238508 14.588224)
  orthogonal box = (-0.028538871 -0.038768662 -0.10136362) to (3.4817569 4.7297967 14.588224)
  orthogonal box = (-0.028538871 -0.038768662 -0.11972561) to (3.4817569 4.7297967 14.606586)

run 1
WARNING: No fixes with time integration, atoms won't move (src/verlet.cpp:60)
Per MPI rank memory allocation (min/avg/max) = 8.54 | 8.541 | 8.543 Mbytes
   Step         PotEng         TotEng           Lx             Ly             Lz           Volume         Press           Pxx            Pyy            Pzz      
       123  -65.528954     -65.528954      3.5102957      4.7685653      14.726311      246.50482     -120134.15     -118054.84     -79023.762     -163323.85    
       124  -65.528954     -65.528954      3.5102957      4.7685653      14.726311      246.50482     -120134.15     -118054.84     -79023.762     -163323.85    
Loop time of 0.0001605 on 8 procs for 1 steps with 12 atoms

Performance: 538.318 ns/day, 0.045 hours/ns, 6230.530 timesteps/s, 74.766 katom-step/s
0.0% CPU use with 8 MPI tasks x 1 OpenMP threads

MPI task timing breakdown:
Section |  min time  |  avg time  |  max time  |%varavg| %total
---------------------------------------------------------------
Pair    | 0.000113   | 0.00011938 | 0.000124   |   0.0 | 74.38
Neigh   | 0          | 0          | 0          |   0.0 |  0.00
Comm    | 1.2e-05    | 1.625e-05  | 2.3e-05    |   0.0 | 10.12
Output  | 1.6e-05    | 1.8e-05    | 2e-05      |   0.0 | 11.21
Modify  | 0          | 1.25e-07   | 1e-06      |   0.0 |  0.08
Other   |            | 6.75e-06   |            |       |  4.21

Nlocal:            1.5 ave           4 max           0 min
Histogram: 4 0 0 0 0 2 0 0 0 2
Nghost:          187.5 ave         189 max         185 min
Histogram: 2 0 0 0 0 2 0 0 0 4
Neighs:           44.5 ave         116 max           0 min
Histogram: 4 0 0 0 0 2 0 0 0 2
FullNghs:           89 ave         236 max           0 min
Histogram: 4 0 0 0 0 2 0 0 0 2

Total # of neighbors = 712
Ave neighs/atom = 59.333333
Neighbor list builds = 0
Dangerous builds = 0
variable  natoms equal "count(all)"
variable xlength equal "lx"
variable  volume equal "vol"
variable  etotal equal "etotal"
variable    ecoh equal "pe/v_natoms"
print "${xlength}, ${volume}, ${etotal}, ${ecoh}" append lattice_cohesive_energy.txt screen no

next i
jump SELF loop

change_box all x scale 1.0025 y scale 1.0025 z scale 1.0025 remap
Changing box ...
  orthogonal box = (-0.03292674 -0.038768662 -0.11972561) to (3.4861447 4.7297967 14.606586)
  orthogonal box = (-0.03292674 -0.044729369 -0.11972561) to (3.4861447 4.7357574 14.606586)
  orthogonal box = (-0.03292674 -0.044729369 -0.1381335) to (3.4861447 4.7357574 14.624993)

run 1
WARNING: No fixes with time integration, atoms won't move (src/verlet.cpp:60)
Per MPI rank memory allocation (min/avg/max) = 8.54 | 8.541 | 8.543 Mbytes
   Step         PotEng         TotEng           Lx             Ly             Lz           Volume         Press           Pxx            Pyy            Pzz      
       124  -65.387511     -65.387511      3.5190715      4.7804867      14.763127      248.35823     -124368.99     -122301.19     -84065.908     -166739.88    
       125  -65.387511     -65.387511      3.5190715      4.7804867      14.763127      248.35823     -124368.99     -122301.19     -84065.908     -166739.88    
Loop time of 0.000161 on 8 procs for 1 steps with 12 atoms

Performance: 536.646 ns/day, 0.045 hours/ns, 6211.180 timesteps/s, 74.534 katom-step/s
0.0% CPU use with 8 MPI tasks x 1 OpenMP threads

MPI task timing breakdown:
Section |  min time  |  avg time  |  max time  |%varavg| %total
---------------------------------------------------------------
Pair    | 0.000118   | 0.00012238 | 0.000126   |   0.0 | 76.01
Neigh   | 0          | 0          | 0          |   0.0 |  0.00
Comm    | 1.2e-05    | 1.525e-05  | 2e-05      |   0.0 |  9.47
Output  | 1.5e-05    | 1.6875e-05 | 1.9e-05    |   0.0 | 10.48
Modify  | 0          | 3.75e-07   | 2e-06      |   0.0 |  0.23
Other   |            | 6.125e-06  |            |       |  3.80

Nlocal:            1.5 ave           4 max           0 min
Histogram: 4 0 0 0 0 2 0 0 0 2
Nghost:          187.5 ave         189 max         185 min
Histogram: 2 0 0 0 0 2 0 0 0 4
Neighs:           44.5 ave         116 max           0 min
Histogram: 4 0 0 0 0 2 0 0 0 2
FullNghs:           89 ave         236 max           0 min
Histogram: 4 0 0 0 0 2 0 0 0 2

Total # of neighbors = 712
Ave neighs/atom = 59.333333
Neighbor list builds = 0
Dangerous builds = 0
variable  natoms equal "count(all)"
variable xlength equal "lx"
variable  volume equal "vol"
variable  etotal equal "etotal"
variable    ecoh equal "pe/v_natoms"
print "${xlength}, ${volume}, ${etotal}, ${ecoh}" append lattice_cohesive_energy.txt screen no

next i
jump SELF loop

change_box all x scale 1.0025 y scale 1.0025 z scale 1.0025 remap
Changing box ...
  orthogonal box = (-0.03732558 -0.044729369 -0.1381335) to (3.4905436 4.7357574 14.624993)
  orthogonal box = (-0.03732558 -0.050704977 -0.1381335) to (3.4905436 4.741733 14.624993)
  orthogonal box = (-0.03732558 -0.050704977 -0.15658741) to (3.4905436 4.741733 14.643447)

run 1
WARNING: No fixes with time integration, atoms won't move (src/verlet.cpp:60)
Per MPI rank memory allocation (min/avg/max) = 8.54 | 8.541 | 8.543 Mbytes
   Step         PotEng         TotEng           Lx             Ly             Lz           Volume         Press           Pxx            Pyy            Pzz      
       125  -65.240184     -65.240184      3.5278692      4.792438       14.800035      250.22558     -128401.73     -126326.88     -88901.216     -169977.1     
       126  -65.240184     -65.240184      3.5278692      4.792438       14.800035      250.22558     -128401.73     -126326.88     -88901.216     -169977.1     
Loop time of 0.00015125 on 8 procs for 1 steps with 12 atoms

Performance: 571.240 ns/day, 0.042 hours/ns, 6611.570 timesteps/s, 79.339 katom-step/s
0.0% CPU use with 8 MPI tasks x 1 OpenMP threads

MPI task timing breakdown:
Section |  min time  |  avg time  |  max time  |%varavg| %total
---------------------------------------------------------------
Pair    | 0.00011    | 0.00011238 | 0.000116   |   0.0 | 74.30
Neigh   | 0          | 0          | 0          |   0.0 |  0.00
Comm    | 1.2e-05    | 1.5125e-05 | 1.8e-05    |   0.0 | 10.00
Output  | 1.4e-05    | 1.6625e-05 | 1.9e-05    |   0.0 | 10.99
Modify  | 0          | 2.5e-07    | 1e-06      |   0.0 |  0.17
Other   |            | 6.875e-06  |            |       |  4.55

Nlocal:            1.5 ave           4 max           0 min
Histogram: 4 0 0 0 0 2 0 0 0 2
Nghost:          187.5 ave         189 max         185 min
Histogram: 2 0 0 0 0 2 0 0 0 4
Neighs:           44.5 ave         116 max           0 min
Histogram: 4 0 0 0 0 2 0 0 0 2
FullNghs:           89 ave         236 max           0 min
Histogram: 4 0 0 0 0 2 0 0 0 2

Total # of neighbors = 712
Ave neighs/atom = 59.333333
Neighbor list builds = 0
Dangerous builds = 0
variable  natoms equal "count(all)"
variable xlength equal "lx"
variable  volume equal "vol"
variable  etotal equal "etotal"
variable    ecoh equal "pe/v_natoms"
print "${xlength}, ${volume}, ${etotal}, ${ecoh}" append lattice_cohesive_energy.txt screen no

next i
jump SELF loop

change_box all x scale 1.0025 y scale 1.0025 z scale 1.0025 remap
Changing box ...
  orthogonal box = (-0.041735416 -0.050704977 -0.15658741) to (3.4949534 4.741733 14.643447)
  orthogonal box = (-0.041735416 -0.056695525 -0.15658741) to (3.4949534 4.7477235 14.643447)
  orthogonal box = (-0.041735416 -0.056695525 -0.17508745) to (3.4949534 4.7477235 14.661947)

run 1
WARNING: No fixes with time integration, atoms won't move (src/verlet.cpp:60)
Per MPI rank memory allocation (min/avg/max) = 8.54 | 8.541 | 8.543 Mbytes
   Step         PotEng         TotEng           Lx             Ly             Lz           Volume         Press           Pxx            Pyy            Pzz      
       126  -65.087129     -65.087129      3.5366888      4.804419       14.837035      252.10697     -132262.96     -130189.14     -93548.783     -173050.96    
       127  -65.087129     -65.087129      3.5366888      4.804419       14.837035      252.10697     -132262.96     -130189.14     -93548.783     -173050.96    
Loop time of 0.000152625 on 8 procs for 1 steps with 12 atoms

Performance: 566.093 ns/day, 0.042 hours/ns, 6552.007 timesteps/s, 78.624 katom-step/s
0.0% CPU use with 8 MPI tasks x 1 OpenMP threads

MPI task timing breakdown:
Section |  min time  |  avg time  |  max time  |%varavg| %total
---------------------------------------------------------------
Pair    | 0.000111   | 0.000113   | 0.000117   |   0.0 | 74.04
Neigh   | 0          | 0          | 0          |   0.0 |  0.00
Comm    | 1.3e-05    | 1.6375e-05 | 1.9e-05    |   0.0 | 10.73
Output  | 1.5e-05    | 1.7e-05    | 1.9e-05    |   0.0 | 11.14
Modify  | 0          | 3.75e-07   | 1e-06      |   0.0 |  0.25
Other   |            | 5.875e-06  |            |       |  3.85

Nlocal:            1.5 ave           4 max           0 min
Histogram: 4 0 0 0 0 2 0 0 0 2
Nghost:          187.5 ave         189 max         185 min
Histogram: 2 0 0 0 0 2 0 0 0 4
Neighs:           44.5 ave         116 max           0 min
Histogram: 4 0 0 0 0 2 0 0 0 2
FullNghs:           89 ave         236 max           0 min
Histogram: 4 0 0 0 0 2 0 0 0 2

Total # of neighbors = 712
Ave neighs/atom = 59.333333
Neighbor list builds = 0
Dangerous builds = 0
variable  natoms equal "count(all)"
variable xlength equal "lx"
variable  volume equal "vol"
variable  etotal equal "etotal"
variable    ecoh equal "pe/v_natoms"
print "${xlength}, ${volume}, ${etotal}, ${ecoh}" append lattice_cohesive_energy.txt screen no

next i
jump SELF loop

change_box all x scale 1.0025 y scale 1.0025 z scale 1.0025 remap
Changing box ...
  orthogonal box = (-0.046156277 -0.056695525 -0.17508745) to (3.4993743 4.7477235 14.661947)
  orthogonal box = (-0.046156277 -0.062701048 -0.17508745) to (3.4993743 4.753729 14.661947)
  orthogonal box = (-0.046156277 -0.062701048 -0.19363374) to (3.4993743 4.753729 14.680494)

run 1
WARNING: No fixes with time integration, atoms won't move (src/verlet.cpp:60)
Per MPI rank memory allocation (min/avg/max) = 8.54 | 8.541 | 8.543 Mbytes
   Step         PotEng         TotEng           Lx             Ly             Lz           Volume         Press           Pxx            Pyy            Pzz      
       127  -64.928423     -64.928423      3.5455306      4.8164301      14.874127      254.0025      -135995.69     -133945.2      -98047.129     -175994.74    
       128  -64.928423     -64.928423      3.5455306      4.8164301      14.874127      254.0025      -135995.69     -133945.2      -98047.129     -175994.74    
Loop time of 0.0001525 on 8 procs for 1 steps with 12 atoms

Performance: 566.557 ns/day, 0.042 hours/ns, 6557.377 timesteps/s, 78.689 katom-step/s
0.0% CPU use with 8 MPI tasks x 1 OpenMP threads

MPI task timing breakdown:
Section |  min time  |  avg time  |  max time  |%varavg| %total
---------------------------------------------------------------
Pair    | 0.000108   | 0.00011162 | 0.000117   |   0.0 | 73.20
Neigh   | 0          | 0          | 0          |   0.0 |  0.00
Comm    | 1.1e-05    | 1.6125e-05 | 2.1e-05    |   0.0 | 10.57
Output  | 1.5e-05    | 1.6625e-05 | 1.9e-05    |   0.0 | 10.90
Modify  | 0          | 3.75e-07   | 1e-06      |   0.0 |  0.25
Other   |            | 7.75e-06   |            |       |  5.08

Nlocal:            1.5 ave           4 max           0 min
Histogram: 4 0 0 0 0 2 0 0 0 2
Nghost:          187.5 ave         189 max         185 min
Histogram: 2 0 0 0 0 2 0 0 0 4
Neighs:           44.5 ave         116 max           0 min
Histogram: 4 0 0 0 0 2 0 0 0 2
FullNghs:           89 ave         236 max           0 min
Histogram: 4 0 0 0 0 2 0 0 0 2

Total # of neighbors = 712
Ave neighs/atom = 59.333333
Neighbor list builds = 0
Dangerous builds = 0
variable  natoms equal "count(all)"
variable xlength equal "lx"
variable  volume equal "vol"
variable  etotal equal "etotal"
variable    ecoh equal "pe/v_natoms"
print "${xlength}, ${volume}, ${etotal}, ${ecoh}" append lattice_cohesive_energy.txt screen no

next i
jump SELF loop

change_box all x scale 1.0025 y scale 1.0025 z scale 1.0025 remap
Changing box ...
  orthogonal box = (-0.05058819 -0.062701048 -0.19363374) to (3.5038062 4.753729 14.680494)
  orthogonal box = (-0.05058819 -0.068721586 -0.19363374) to (3.5038062 4.7597496 14.680494)
  orthogonal box = (-0.05058819 -0.068721586 -0.2122264) to (3.5038062 4.7597496 14.699086)

run 1
WARNING: No fixes with time integration, atoms won't move (src/verlet.cpp:60)
Per MPI rank memory allocation (min/avg/max) = 8.54 | 8.541 | 8.543 Mbytes
   Step         PotEng         TotEng           Lx             Ly             Lz           Volume         Press           Pxx            Pyy            Pzz      
       128  -64.764168     -64.764168      3.5543944      4.8284712      14.911313      255.91229     -139570.16     -137542.04     -102376.17     -178792.27    
       129  -64.764168     -64.764168      3.5543944      4.8284712      14.911313      255.91229     -139570.16     -137542.04     -102376.17     -178792.27    
Loop time of 0.000152875 on 8 procs for 1 steps with 12 atoms

Performance: 565.168 ns/day, 0.042 hours/ns, 6541.292 timesteps/s, 78.496 katom-step/s
0.0% CPU use with 8 MPI tasks x 1 OpenMP threads

MPI task timing breakdown:
Section |  min time  |  avg time  |  max time  |%varavg| %total
---------------------------------------------------------------
Pair    | 0.00011    | 0.000113   | 0.000117   |   0.0 | 73.92
Neigh   | 0          | 0          | 0          |   0.0 |  0.00
Comm    | 1.2e-05    | 1.6375e-05 | 2e-05      |   0.0 | 10.71
Output  | 1.5e-05    | 1.7e-05    | 1.9e-05    |   0.0 | 11.12
Modify  | 0          | 0          | 0          |   0.0 |  0.00
Other   |            | 6.5e-06    |            |       |  4.25

Nlocal:            1.5 ave           4 max           0 min
Histogram: 4 0 0 0 0 2 0 0 0 2
Nghost:          187.5 ave         189 max         185 min
Histogram: 2 0 0 0 0 2 0 0 0 4
Neighs:           44.5 ave         116 max           0 min
Histogram: 4 0 0 0 0 2 0 0 0 2
FullNghs:           89 ave         236 max           0 min
Histogram: 4 0 0 0 0 2 0 0 0 2

Total # of neighbors = 712
Ave neighs/atom = 59.333333
Neighbor list builds = 0
Dangerous builds = 0
variable  natoms equal "count(all)"
variable xlength equal "lx"
variable  volume equal "vol"
variable  etotal equal "etotal"
variable    ecoh equal "pe/v_natoms"
print "${xlength}, ${volume}, ${etotal}, ${ecoh}" append lattice_cohesive_energy.txt screen no

next i
jump SELF loop

print "-------------------------------------------------------------"
-------------------------------------------------------------
print "Show results of 1st step (Running Minimization)"
Show results of 1st step (Running Minimization)
print "The number of atoms = ${natoms};"
The number of atoms = 12;
print "The lattice constant, x (Angstoms) = ${x0};"
The lattice constant, x (Angstoms) = 3.55439438093788;
print "The lattice constant, y (Angstoms) = ${y0};"
The lattice constant, y (Angstoms) = 4.82847117211316;
print "The lattice constant, z (Angstoms) = ${z0};"
The lattice constant, z (Angstoms) = 14.9113128048775;
print "The volume (Angstoms^3) = ${v0};"
The volume (Angstoms^3) = 255.912286607028;
print "The total energy (eV) = ${etot0};"
The total energy (eV) = -64.7641679271938;
print "The cohesive energy (eV/atom) = ${ecoh0};"
The cohesive energy (eV/atom) = -5.39701399393281;
print "-------------------------------------------------------------"
-------------------------------------------------------------
print "Simulations completed !"
Simulations completed !
Total wall time: 0:00:00
