 # Voronoi polycrystal with 2 grains
  
       35612  atoms
           2  atom types
 
      0.000000000000      80.000000000000  xlo xhi
      0.000000000000      80.000000000000  ylo yhi
      0.000000000000      80.000000000000  zlo zhi
 
Masses
 
            1   15.99900000             # O
            2   232.03806000            # Th
 
Atoms # charge
 
         1    1  -1.110400       15.261723200000     -13.377604800000       1.713188000000
         2    1  -1.110400       12.635282400000     -12.421658400000       1.713188000000
         3    1  -1.110400       20.514605600000     -15.289497600000       1.713188000000
         4    1  -1.110400       19.558659200000     -17.915938400000       1.713188000000
         5    1  -1.110400       17.888164000000     -14.333551200000       1.713188000000
         6    2   2.220800       16.096970400000     -15.168798400000       0.315688000000
         7    1  -1.110400       23.141046400000     -16.245444000000       1.713188000000
         8    2   2.220800       21.349852800000     -17.080691200000       0.315688000000
         9    1  -1.110400        6.667852000000      -4.300937600000       1.713188000000
        10    1  -1.110400        4.041411200000      -3.344991200000       1.713188000000
        11    1  -1.110400       11.920734400000      -6.212830400000       1.713188000000
        12    1  -1.110400        8.338347200000      -7.883324800000       1.713188000000
        13    1  -1.110400       10.964788000000      -8.839271200000       1.713188000000
        14    1  -1.110400        9.294292800000      -5.256884000000       1.713188000000
        15    2   2.220800        7.503099200000      -6.092131200000       0.315688000000
        16    1  -1.110400       17.173616000000      -8.124723200000       1.713188000000
        17    1  -1.110400       13.591228800000      -9.795217600000       1.713188000000
        18    1  -1.110400       16.217669600000     -10.751164000000       1.713188000000
        19    1  -1.110400       14.547175200000      -7.168776800000       1.713188000000
        20    2   2.220800       12.755981600000      -8.004024000000       0.315688000000
        21    2   2.220800       14.426476000000     -11.586411200000       0.315688000000
        22    1  -1.110400       22.426497600000     -10.036616000000       1.713188000000
        23    1  -1.110400       18.844110400000     -11.707110400000       1.713188000000
        24    1  -1.110400       21.470551200000     -12.663056800000       1.713188000000
        25    1  -1.110400       19.800056800000      -9.080669600000       1.713188000000
        26    2   2.220800       18.008863200000      -9.915916800000       0.315688000000
        27    2   2.220800       19.679357600000     -13.498304000000       0.315688000000
        28    1  -1.110400       27.679380000000     -11.948508000000       1.713188000000
        29    1  -1.110400       24.096992800000     -13.619003200000       1.713188000000
        30    1  -1.110400       25.052939200000     -10.992562400000       1.713188000000
        31    2   2.220800       23.261744800000     -11.827809600000       0.315688000000
        32    1  -1.110400       -1.926019200000       4.775729600000       1.713188000000
        33    1  -1.110400       -4.552460000000       5.731676000000       1.713188000000
        34    1  -1.110400        3.326863200000       2.863836800000       1.713188000000
        35    1  -1.110400       -0.255524000000       1.193342400000       1.713188000000
        36    1  -1.110400        2.370916800000       0.237396000000       1.713188000000
        37    1  -1.110400        0.700422400000       3.819783200000       1.713188000000
        38    2   2.220800       -1.090772000000       2.984536000000       0.315688000000
        39    1  -1.110400        8.579744800000       0.951944000000       1.713188000000
        40    1  -1.110400        4.997357600000      -0.718550400000       1.713188000000
        41    1  -1.110400        7.623798400000      -1.674496800000       1.713188000000
        42    1  -1.110400        5.953304000000       1.907890400000       1.713188000000
        43    2   2.220800        4.162110400000       1.072643200000       0.315688000000
        44    2   2.220800        5.832604800000      -2.509744000000       0.315688000000
        45    1  -1.110400       13.832626400000      -0.959948800000       1.713188000000
        46    1  -1.110400       10.250239200000      -2.630443200000       1.713188000000
        47    1  -1.110400       12.876680800000      -3.586389600000       1.713188000000
        48    1  -1.110400       11.206185600000      -0.004002400000       1.713188000000
        49    2   2.220800        9.414992000000      -0.839249600000       0.315688000000
        50    2   2.220800       11.085486400000      -4.421636800000       0.315688000000
        51    1  -1.110400       19.085508800000      -2.871840800000       1.713188000000
        52    1  -1.110400       15.503121600000      -4.542336000000       1.713188000000
        53    1  -1.110400       18.129562400000      -5.498282400000       1.713188000000
        54    1  -1.110400       16.459068000000      -1.915895200000       1.713188000000
        55    2   2.220800       14.667874400000      -2.751142400000       0.315688000000
        56    2   2.220800       16.338368800000      -6.333529600000       0.315688000000
        57    1  -1.110400       24.338390400000      -4.783733600000       1.713188000000
        58    1  -1.110400       20.756003200000      -6.454228800000       1.713188000000
        59    1  -1.110400       23.382444000000      -7.410174400000       1.713188000000
        60    1  -1.110400       21.711949600000      -3.827787200000       1.713188000000
        61    2   2.220800       19.920756000000      -4.663034400000       0.315688000000
        62    2   2.220800       21.591250400000      -8.245422400000       0.315688000000
        63    1  -1.110400       29.591272800000      -6.695626400000       1.713188000000
        64    1  -1.110400       26.008884800000      -8.366120800000       1.713188000000
        65    1  -1.110400       28.635326400000      -9.322067200000       1.713188000000
        66    1  -1.110400       26.964831200000      -5.739680000000       1.713188000000
        67    2   2.220800       25.173637600000      -6.574927200000       0.315688000000
        68    2   2.220800       26.844132800000     -10.157314400000       0.315688000000
        69    1  -1.110400       32.217713600000      -7.651572800000       1.713188000000
        70    2   2.220800       30.426520000000      -8.486820000000       0.315688000000
        71    1  -1.110400      -10.519890400000      13.852396800000       1.713188000000
        72    1  -1.110400      -13.146331200000      14.808343200000       1.713188000000
        73    1  -1.110400       -5.267008000000      11.940504000000       1.713188000000
        74    1  -1.110400       -8.849395200000      10.270009600000       1.713188000000
        75    1  -1.110400       -6.222954400000       9.314063200000       1.713188000000
        76    1  -1.110400       -7.893448800000      12.896450400000       1.713188000000
        77    2   2.220800       -9.684642400000      12.061203200000       0.315688000000
        78    2   2.220800       -8.014148000000       8.478816000000       0.315688000000
        79    1  -1.110400       -0.014126400000      10.028611200000       1.713188000000
        80    1  -1.110400       -3.596513600000       8.358116800000       1.713188000000
        81    1  -1.110400       -0.970072800000       7.402170400000       1.713188000000
        82    1  -1.110400       -2.640567200000      10.984557600000       1.713188000000
        83    2   2.220800       -4.431760800000      10.149310400000       0.315688000000
        84    2   2.220800       -2.761266400000       6.566923200000       0.315688000000
        85    1  -1.110400        5.238756000000       8.116718400000       1.713188000000
        86    1  -1.110400        1.656368000000       6.446224000000       1.713188000000
        87    1  -1.110400        4.282809600000       5.490277600000       1.713188000000
        88    1  -1.110400        2.612314400000       9.072664800000       1.713188000000
        89    2   2.220800        0.821120800000       8.237417600000       0.315688000000
        90    2   2.220800        2.491616000000       4.655030400000       0.315688000000
        91    1  -1.110400       10.491637600000       6.204826400000       1.713188000000
        92    1  -1.110400        6.909250400000       4.534331200000       1.713188000000
        93    1  -1.110400        9.535691200000       3.578384800000       1.713188000000
        94    1  -1.110400        7.865196800000       7.160772000000       1.713188000000
        95    2   2.220800        6.074003200000       6.325524800000       0.315688000000
        96    2   2.220800        7.744497600000       2.743137600000       0.315688000000
        97    1  -1.110400       15.744519200000       4.292933600000       1.713188000000
        98    1  -1.110400       12.162132000000       2.622438400000       1.713188000000
        99    1  -1.110400       14.788572800000       1.666492800000       1.713188000000
       100    1  -1.110400       13.118078400000       5.248880000000       1.713188000000
       101    2   2.220800       11.326884800000       4.413632800000       0.315688000000
       102    2   2.220800       12.997379200000       0.831244800000       0.315688000000
       103    1  -1.110400       20.997401600000       2.381040800000       1.713188000000
       104    1  -1.110400       17.415014400000       0.710546400000       1.713188000000
       105    1  -1.110400       20.041455200000      -0.245400000000       1.713188000000
       106    1  -1.110400       18.370960000000       3.336987200000       1.713188000000
       107    2   2.220800       16.579766400000       2.501740000000       0.315688000000
       108    2   2.220800       18.250261600000      -1.080647200000       0.315688000000
       109    1  -1.110400       26.250283200000       0.469148000000       1.713188000000
       110    1  -1.110400       22.667896000000      -1.201346400000       1.713188000000
       111    1  -1.110400       25.294336800000      -2.157292800000       1.713188000000
       112    1  -1.110400       23.623842400000       1.425094400000       1.713188000000
       113    2   2.220800       21.832648800000       0.589847200000       0.315688000000
       114    2   2.220800       23.503143200000      -2.992540000000       0.315688000000
       115    1  -1.110400       31.503164800000      -1.442744800000       1.713188000000
       116    1  -1.110400       27.920777600000      -3.113239200000       1.713188000000
       117    1  -1.110400       30.547218400000      -4.069185600000       1.713188000000
       118    1  -1.110400       28.876724000000      -0.486798400000       1.713188000000
       119    2   2.220800       27.085530400000      -1.322045600000       0.315688000000
       120    2   2.220800       28.756024800000      -4.904432800000       0.315688000000
       121    1  -1.110400       33.173660000000      -5.025132000000       1.713188000000
       122    1  -1.110400       34.129606400000      -2.398691200000       1.713188000000
       123    2   2.220800       32.338412000000      -3.233938400000       0.315688000000
       124    1  -1.110400      -13.860879200000      21.017171200000       1.713188000000
       125    1  -1.110400      -17.443266400000      19.346676800000       1.713188000000
       126    1  -1.110400      -14.816825600000      18.390730400000       1.713188000000
       127    1  -1.110400      -16.487320000000      21.973117600000       1.713188000000
       128    2   2.220800      -18.278513600000      21.137870400000       0.315688000000
       129    2   2.220800      -16.608019200000      17.555483200000       0.315688000000
       130    1  -1.110400       -8.607997600000      19.105278400000       1.713188000000
       131    1  -1.110400      -12.190384800000      17.434784000000       1.713188000000
       132    1  -1.110400       -9.563944000000      16.478837600000       1.713188000000
       133    1  -1.110400      -11.234438400000      20.061224800000       1.713188000000
       134    2   2.220800      -13.025632000000      19.225977600000       0.315688000000
       135    2   2.220800      -11.355137600000      15.643590400000       0.315688000000
       136    1  -1.110400       -3.355115200000      17.193385600000       1.713188000000
       137    1  -1.110400       -6.937502400000      15.522891200000       1.713188000000
       138    1  -1.110400       -4.311061600000      14.566944800000       1.713188000000
       139    1  -1.110400       -5.981556800000      18.149332000000       1.713188000000
       140    2   2.220800       -7.772750400000      17.314084800000       0.315688000000
       141    2   2.220800       -6.102255200000      13.731697600000       0.315688000000
       142    1  -1.110400        1.897766400000      15.281493600000       1.713188000000
       143    1  -1.110400       -1.684620800000      13.610998400000       1.713188000000
       144    1  -1.110400        0.941820000000      12.655052000000       1.713188000000
       145    1  -1.110400       -0.728674400000      16.237439200000       1.713188000000
       146    2   2.220800       -2.519868000000      15.402192000000       0.315688000000
       147    2   2.220800       -0.849373600000      11.819804800000       0.315688000000
       148    1  -1.110400        7.150648000000      13.369600800000       1.713188000000
       149    1  -1.110400        3.568260800000      11.699105600000       1.713188000000
       150    1  -1.110400        6.194701600000      10.743160000000       1.713188000000
       151    1  -1.110400        4.524207200000      14.325547200000       1.713188000000
       152    2   2.220800        2.733013600000      13.490300000000       0.315688000000
       153    2   2.220800        4.403508000000       9.907912000000       0.315688000000
       154    1  -1.110400       12.403530400000      11.457708000000       1.713188000000
       155    1  -1.110400        8.821143200000       9.787213600000       1.713188000000
       156    1  -1.110400       11.447584000000       8.831267200000       1.713188000000
       157    1  -1.110400        9.777089600000      12.413654400000       1.713188000000
       158    2   2.220800        7.985895200000      11.578407200000       0.315688000000
       159    2   2.220800        9.656390400000       7.996020000000       0.315688000000
       160    1  -1.110400       17.656412000000       9.545815200000       1.713188000000
       161    1  -1.110400       14.074024800000       7.875320800000       1.713188000000
       162    1  -1.110400       16.700465600000       6.919374400000       1.713188000000
       163    1  -1.110400       15.029971200000      10.501761600000       1.713188000000
       164    2   2.220800       13.238777600000       9.666514400000       0.315688000000
       165    2   2.220800       14.909272000000       6.084127200000       0.315688000000
       166    1  -1.110400       22.909293600000       7.633922400000       1.713188000000
       167    1  -1.110400       19.326906400000       5.963428000000       1.713188000000
       168    1  -1.110400       21.953348000000       5.007481600000       1.713188000000
       169    1  -1.110400       20.282852800000       8.589868800000       1.713188000000
       170    2   2.220800       18.491659200000       7.754621600000       0.315688000000
       171    2   2.220800       20.162153600000       4.172234400000       0.315688000000
       172    1  -1.110400       28.162176000000       5.722029600000       1.713188000000
       173    1  -1.110400       24.579788800000       4.051535200000       1.713188000000
       174    1  -1.110400       27.206229600000       3.095588800000       1.713188000000
       175    1  -1.110400       25.535735200000       6.677976000000       1.713188000000
       176    2   2.220800       23.744541600000       5.842728800000       0.315688000000
       177    2   2.220800       25.415036000000       2.260341600000       0.315688000000
       178    1  -1.110400       33.415057600000       3.810137600000       1.713188000000
       179    1  -1.110400       29.832670400000       2.139642400000       1.713188000000
       180    1  -1.110400       32.459111200000       1.183696000000       1.713188000000
       181    1  -1.110400       30.788616800000       4.766084000000       1.713188000000
       182    2   2.220800       28.997423200000       3.930836000000       0.315688000000
       183    2   2.220800       30.667917600000       0.348448800000       0.315688000000
       184    1  -1.110400       38.667940000000       1.898244800000       1.713188000000
       185    1  -1.110400       35.085552000000       0.227750400000       1.713188000000
       186    1  -1.110400       37.711993600000      -0.728196000000       1.713188000000
       187    1  -1.110400       36.041498400000       2.854191200000       1.713188000000
       188    2   2.220800       34.250304800000       2.018944000000       0.315688000000
       189    2   2.220800       35.920800000000      -1.563443200000       0.315688000000
       190    2   2.220800       39.503187200000       0.107051200000       0.315688000000
       191    1  -1.110400      -11.948986400000      26.270052800000       1.713188000000
       192    1  -1.110400      -12.904932800000      23.643612000000       1.713188000000
       193    2   2.220800      -14.696126400000      22.808364800000       0.315688000000
       194    1  -1.110400       -6.696104800000      24.358160800000       1.713188000000
       195    1  -1.110400      -10.278492000000      22.687665600000       1.713188000000
       196    1  -1.110400       -7.652051200000      21.731719200000       1.713188000000
       197    1  -1.110400       -9.322545600000      25.314106400000       1.713188000000
       198    2   2.220800      -11.113739200000      24.478859200000       0.315688000000
       199    2   2.220800       -9.443244800000      20.896472000000       0.315688000000
       200    1  -1.110400       -1.443223200000      22.446268000000       1.713188000000
       201    1  -1.110400       -5.025610400000      20.775772800000       1.713188000000
       202    1  -1.110400       -2.399168800000      19.819827200000       1.713188000000
       203    1  -1.110400       -4.069664000000      23.402214400000       1.713188000000
       204    2   2.220800       -5.860857600000      22.566967200000       0.315688000000
       205    2   2.220800       -4.190363200000      18.984579200000       0.315688000000
       206    1  -1.110400        3.809659200000      20.534375200000       1.713188000000
       207    1  -1.110400        0.227272000000      18.863880800000       1.713188000000
       208    1  -1.110400        2.853712800000      17.907934400000       1.713188000000
       209    1  -1.110400        1.183218400000      21.490321600000       1.713188000000
       210    2   2.220800       -0.607975200000      20.655074400000       0.315688000000
       211    2   2.220800        1.062519200000      17.072687200000       0.315688000000
       212    1  -1.110400        9.062540800000      18.622482400000       1.713188000000
       213    1  -1.110400        5.480153600000      16.951988000000       1.713188000000
       214    1  -1.110400        8.106594400000      15.996041600000       1.713188000000
       215    1  -1.110400        6.436100000000      19.578428800000       1.713188000000
       216    2   2.220800        4.644906400000      18.743181600000       0.315688000000
       217    2   2.220800        6.315400800000      15.160794400000       0.315688000000
       218    1  -1.110400       14.315423200000      16.710589600000       1.713188000000
       219    1  -1.110400       10.733035200000      15.040095200000       1.713188000000
       220    1  -1.110400       13.359476800000      14.084148800000       1.713188000000
       221    1  -1.110400       11.688981600000      17.666536000000       1.713188000000
       222    2   2.220800        9.897788000000      16.831288800000       0.315688000000
       223    2   2.220800       11.568283200000      13.248901600000       0.315688000000
       224    1  -1.110400       19.568304800000      14.798696800000       1.713188000000
       225    1  -1.110400       15.985917600000      13.128202400000       1.713188000000
       226    1  -1.110400       18.612358400000      12.172256000000       1.713188000000
       227    1  -1.110400       16.941864000000      15.754643200000       1.713188000000
       228    2   2.220800       15.150670400000      14.919396000000       0.315688000000
       229    2   2.220800       16.821164800000      11.337008800000       0.315688000000
       230    1  -1.110400       24.821186400000      12.886804800000       1.713188000000
       231    1  -1.110400       21.238799200000      11.216309600000       1.713188000000
       232    1  -1.110400       23.865240000000      10.260363200000       1.713188000000
       233    1  -1.110400       22.194745600000      13.842751200000       1.713188000000
       234    2   2.220800       20.403552000000      13.007503200000       0.315688000000
       235    2   2.220800       22.074046400000       9.425116000000       0.315688000000
       236    1  -1.110400       30.074068800000      10.974912000000       1.713188000000
       237    1  -1.110400       26.491681600000       9.304417600000       1.713188000000
       238    1  -1.110400       29.118122400000       8.348471200000       1.713188000000
       239    1  -1.110400       27.447627200000      11.930858400000       1.713188000000
       240    2   2.220800       25.656433600000      11.095611200000       0.315688000000
       241    2   2.220800       27.326928800000       7.513224000000       0.315688000000
       242    1  -1.110400       35.326950400000       9.063019200000       1.713188000000
       243    1  -1.110400       31.744563200000       7.392524800000       1.713188000000
       244    1  -1.110400       34.371004000000       6.436578400000       1.713188000000
       245    1  -1.110400       32.700509600000      10.018965600000       1.713188000000
       246    2   2.220800       30.909316000000       9.183718400000       0.315688000000
       247    2   2.220800       32.579810400000       5.601331200000       0.315688000000
       248    1  -1.110400       40.579832000000       7.151126400000       1.713188000000
       249    1  -1.110400       36.997444800000       5.480632000000       1.713188000000
       250    1  -1.110400       39.623885600000       4.524685600000       1.713188000000
       251    1  -1.110400       37.953391200000       8.107072800000       1.713188000000
       252    2   2.220800       36.162197600000       7.271825600000       0.315688000000
       253    2   2.220800       37.832692000000       3.689438400000       0.315688000000
       254    1  -1.110400       42.250327200000       3.568739200000       1.713188000000
       255    1  -1.110400       43.206273600000       6.195180000000       1.713188000000
       256    2   2.220800       41.415079200000       5.359932800000       0.315688000000
       257    1  -1.110400      -10.993040000000      28.896494400000       1.713188000000
       258    1  -1.110400       -4.784212000000      29.611042400000       1.713188000000
       259    1  -1.110400       -8.366599200000      27.940548000000       1.713188000000
       260    1  -1.110400       -5.740158400000      26.984601600000       1.713188000000
       261    1  -1.110400       -7.410652800000      30.566988800000       1.713188000000
       262    2   2.220800       -9.201846400000      29.731741600000       0.315688000000
       263    2   2.220800       -7.531352000000      26.149354400000       0.315688000000
       264    1  -1.110400        0.468669600000      27.699149600000       1.713188000000
       265    1  -1.110400       -3.113717600000      26.028655200000       1.713188000000
       266    1  -1.110400       -0.487276800000      25.072708800000       1.713188000000
       267    1  -1.110400       -2.157771200000      28.655096000000       1.713188000000
       268    2   2.220800       -3.948964800000      27.819848800000       0.315688000000
       269    2   2.220800       -2.278470400000      24.237461600000       0.315688000000
       270    1  -1.110400        5.721552000000      25.787256800000       1.713188000000
       271    1  -1.110400        2.139164800000      24.116762400000       1.713188000000
       272    1  -1.110400        4.765605600000      23.160816000000       1.713188000000
       273    1  -1.110400        3.095110400000      26.743203200000       1.713188000000
       274    2   2.220800        1.303916800000      25.907956000000       0.315688000000
       275    2   2.220800        2.974412000000      22.325568800000       0.315688000000
       276    1  -1.110400       10.974433600000      23.875364000000       1.713188000000
       277    1  -1.110400        7.392046400000      22.204869600000       1.713188000000
       278    1  -1.110400       10.018487200000      21.248923200000       1.713188000000
       279    1  -1.110400        8.347992800000      24.831310400000       1.713188000000
       280    2   2.220800        6.556799200000      23.996063200000       0.315688000000
       281    2   2.220800        8.227293600000      20.413676000000       0.315688000000
       282    1  -1.110400       16.227315200000      21.963472000000       1.713188000000
       283    1  -1.110400       12.644928000000      20.292976800000       1.713188000000
       284    1  -1.110400       15.271368800000      19.337030400000       1.713188000000
       285    1  -1.110400       13.600874400000      22.919418400000       1.713188000000
       286    2   2.220800       11.809680800000      22.084170400000       0.315688000000
       287    2   2.220800       13.480175200000      18.501783200000       0.315688000000
       288    1  -1.110400       21.480197600000      20.051579200000       1.713188000000
       289    1  -1.110400       17.897810400000      18.381084800000       1.713188000000
       290    1  -1.110400       20.524251200000      17.425138400000       1.713188000000
       291    1  -1.110400       18.853756800000      21.007525600000       1.713188000000
       292    2   2.220800       17.062562400000      20.172278400000       0.315688000000
       293    2   2.220800       18.733057600000      16.589891200000       0.315688000000
       294    1  -1.110400       26.733079200000      18.139686400000       1.713188000000
       295    1  -1.110400       23.150692000000      16.469192000000       1.713188000000
       296    1  -1.110400       25.777132800000      15.513245600000       1.713188000000
       297    1  -1.110400       24.106638400000      19.095632800000       1.713188000000
       298    2   2.220800       22.315444800000      18.260385600000       0.315688000000
       299    2   2.220800       23.985939200000      14.677998400000       0.315688000000
       300    1  -1.110400       31.985960800000      16.227793600000       1.713188000000
       301    1  -1.110400       28.403573600000      14.557299200000       1.713188000000
       302    1  -1.110400       31.030015200000      13.601352800000       1.713188000000
       303    1  -1.110400       29.359520000000      17.183740000000       1.713188000000
       304    2   2.220800       27.568326400000      16.348492800000       0.315688000000
       305    2   2.220800       29.238820800000      12.766105600000       0.315688000000
       306    1  -1.110400       37.238843200000      14.315900800000       1.713188000000
       307    1  -1.110400       33.656456000000      12.645406400000       1.713188000000
       308    1  -1.110400       36.282896800000      11.689460000000       1.713188000000
       309    1  -1.110400       34.612402400000      15.271847200000       1.713188000000
       310    2   2.220800       32.821208800000      14.436600000000       0.315688000000
       311    2   2.220800       34.491703200000      10.854212800000       0.315688000000
       312    1  -1.110400       42.491724800000      12.404008800000       1.713188000000
       313    1  -1.110400       38.909337600000      10.733513600000       1.713188000000
       314    1  -1.110400       41.535778400000       9.777567200000       1.713188000000
       315    1  -1.110400       39.865284000000      13.359954400000       1.713188000000
       316    2   2.220800       38.074090400000      12.524707200000       0.315688000000
       317    2   2.220800       39.744584800000       8.942320000000       0.315688000000
       318    1  -1.110400       47.744607200000      10.492116000000       1.713188000000
       319    1  -1.110400       44.162219200000       8.821620800000       1.713188000000
       320    1  -1.110400       46.788660800000       7.865675200000       1.713188000000
       321    1  -1.110400       45.118165600000      11.448062400000       1.713188000000
       322    2   2.220800       43.326972000000      10.612815200000       0.315688000000
       323    2   2.220800       44.997467200000       7.030427200000       0.315688000000
       324    2   2.220800       48.579854400000       8.700922400000       0.315688000000
       325    1  -1.110400       -2.872319200000      34.863924000000       1.713188000000