 # Voronoi polycrystal with 2 grains
  
       35175  atoms
           2  atom types
 
      0.000000000000      80.000000000000  xlo xhi
      0.000000000000      80.000000000000  ylo yhi
      0.000000000000      80.000000000000  zlo zhi
 
Masses
 
            1   15.99900000             # O
            2   232.03806000            # Th
 
Atoms # charge
 
         1    1  -1.110400      -13.860879200000      61.017171200000      21.123188000000
         2    1  -1.110400      -17.443266400000      59.346676800000      21.123188000000
         3    1  -1.110400       -8.607997600000      59.105278400000      21.123188000000
         4    1  -1.110400      -11.234438400000      60.061224800000      21.123188000000
         5    1  -1.110400       -5.025610400000      60.775772800000      21.123188000000
         6    1  -1.110400       -2.399168800000      59.819827200000      21.123188000000
         7    1  -1.110400        3.809659200000      60.534375200000      21.123188000000
         8    1  -1.110400        6.436100000000      59.578428800000      21.123188000000
         9    1  -1.110400       12.644928000000      60.292976800000      21.123188000000
        10    1  -1.110400       15.271368800000      59.337030400000      21.123188000000
        11    1  -1.110400       21.480197600000      60.051579200000      21.123188000000
        12    1  -1.110400       18.853756800000      61.007525600000      21.123188000000
        13    1  -1.110400       24.106638400000      59.095632800000      21.123188000000
        14    1  -1.110400       27.689025600000      60.766127200000      21.123188000000
        15    1  -1.110400       30.315466400000      59.810180800000      21.123188000000
        16    1  -1.110400       39.150736000000      59.568783200000      21.123188000000
        17    1  -1.110400       36.524294400000      60.524729600000      21.123188000000
        18    1  -1.110400       45.359564000000      60.283331200000      21.123188000000
        19    1  -1.110400       51.568392000000      60.997879200000      21.123188000000
        20    1  -1.110400       47.986004800000      59.327384800000      21.123188000000
        21    1  -1.110400       56.821274400000      59.085987200000      21.123188000000
        22    1  -1.110400       54.194832800000      60.041933600000      21.123188000000
        23    1  -1.110400      -15.772772000000      55.764289600000      26.713188000000
        24    1  -1.110400      -19.355159200000      54.093794400000      26.713188000000
        25    1  -1.110400      -18.399212800000      56.720236000000      23.918188000000
        26    1  -1.110400      -18.399212800000      56.720236000000      26.713188000000
        27    1  -1.110400      -10.519890400000      53.852396800000      26.713188000000
        28    1  -1.110400      -13.146331200000      54.808343200000      26.713188000000
        29    1  -1.110400      -19.113760800000      62.929064000000      26.713188000000
        30    1  -1.110400      -19.113760800000      62.929064000000      23.918188000000
        31    1  -1.110400      -17.443266400000      59.346676800000      23.918188000000
        32    1  -1.110400      -13.860879200000      61.017171200000      26.713188000000
        33    1  -1.110400      -13.860879200000      61.017171200000      23.918188000000
        34    1  -1.110400      -17.443266400000      59.346676800000      26.713188000000
        35    1  -1.110400      -14.816825600000      58.390730400000      26.713188000000
        36    1  -1.110400      -16.487320000000      61.973117600000      23.918188000000
        37    1  -1.110400      -16.487320000000      61.973117600000      26.713188000000
        38    1  -1.110400      -14.816825600000      58.390730400000      23.918188000000
        39    2   2.220800      -19.234460000000      58.511429600000      22.520688000000
        40    2   2.220800      -18.278513600000      61.137870400000      25.315688000000
        41    2   2.220800      -16.608019200000      57.555483200000      25.315688000000
        42    2   2.220800      -15.652072800000      60.181924000000      22.520688000000
        43    1  -1.110400      -12.190384800000      57.434784000000      23.918188000000
        44    1  -1.110400       -8.607997600000      59.105278400000      26.713188000000
        45    1  -1.110400       -8.607997600000      59.105278400000      23.918188000000
        46    1  -1.110400      -12.190384800000      57.434784000000      26.713188000000
        47    1  -1.110400       -9.563944000000      56.478837600000      26.713188000000
        48    1  -1.110400      -11.234438400000      60.061224800000      23.918188000000
        49    1  -1.110400      -11.234438400000      60.061224800000      26.713188000000
        50    1  -1.110400       -9.563944000000      56.478837600000      23.918188000000
        51    2   2.220800      -13.025632000000      59.225977600000      25.315688000000
        52    2   2.220800      -11.355137600000      55.643590400000      25.315688000000
        53    2   2.220800      -10.399191200000      58.270031200000      22.520688000000
        54    1  -1.110400       -3.355115200000      57.193385600000      26.713188000000
        55    1  -1.110400       -3.355115200000      57.193385600000      23.918188000000
        56    1  -1.110400       -6.937502400000      55.522891200000      26.713188000000
        57    1  -1.110400       -4.311061600000      54.566944800000      26.713188000000
        58    1  -1.110400       -5.981556800000      58.149332000000      23.918188000000
        59    1  -1.110400       -5.981556800000      58.149332000000      26.713188000000
        60    2   2.220800       -7.772750400000      57.314084800000      25.315688000000
        61    1  -1.110400        1.897766400000      55.281493600000      26.713188000000
        62    1  -1.110400       -1.684620800000      53.610998400000      26.713188000000
        63    1  -1.110400       -0.728674400000      56.237439200000      23.918188000000
        64    1  -1.110400       -0.728674400000      56.237439200000      26.713188000000
        65    2   2.220800       -2.519868000000      55.402192000000      25.315688000000
        66    1  -1.110400        7.150648000000      53.369600800000      26.713188000000
        67    1  -1.110400        4.524207200000      54.325547200000      26.713188000000
        68    1  -1.110400      -18.157815200000      65.555504800000      26.713188000000
        69    2   2.220800      -19.949008800000      64.720257600000      25.315688000000
        70    1  -1.110400      -11.948986400000      66.270052800000      26.713188000000
        71    1  -1.110400      -15.531373600000      64.599558400000      26.713188000000
        72    1  -1.110400      -12.904932800000      63.643612000000      26.713188000000
        73    1  -1.110400      -12.904932800000      63.643612000000      23.918188000000
        74    2   2.220800      -14.696126400000      62.808364800000      25.315688000000
        75    1  -1.110400      -10.278492000000      62.687665600000      23.918188000000
        76    1  -1.110400       -6.696104800000      64.358160800000      26.713188000000
        77    1  -1.110400      -10.278492000000      62.687665600000      26.713188000000
        78    1  -1.110400       -7.652051200000      61.731719200000      26.713188000000
        79    1  -1.110400       -9.322545600000      65.314106400000      26.713188000000
        80    1  -1.110400       -7.652051200000      61.731719200000      23.918188000000
        81    2   2.220800      -12.069685600000      61.852418400000      22.520688000000
        82    2   2.220800      -11.113739200000      64.478859200000      25.315688000000
        83    2   2.220800       -9.443244800000      60.896472000000      25.315688000000
        84    1  -1.110400       -5.025610400000      60.775772800000      23.918188000000
        85    1  -1.110400       -1.443223200000      62.446268000000      26.713188000000
        86    1  -1.110400       -1.443223200000      62.446268000000      23.918188000000
        87    1  -1.110400       -5.025610400000      60.775772800000      26.713188000000
        88    1  -1.110400       -2.399168800000      59.819827200000      26.713188000000
        89    1  -1.110400       -4.069664000000      63.402214400000      23.918188000000
        90    1  -1.110400       -4.069664000000      63.402214400000      26.713188000000
        91    1  -1.110400       -2.399168800000      59.819827200000      23.918188000000
        92    2   2.220800       -6.816804000000      59.940525600000      22.520688000000
        93    2   2.220800       -5.860857600000      62.566967200000      25.315688000000
        94    2   2.220800       -4.190363200000      58.984579200000      25.315688000000
        95    2   2.220800       -3.234416800000      61.611020800000      22.520688000000
        96    1  -1.110400        0.227272000000      58.863880800000      23.918188000000
        97    1  -1.110400        3.809659200000      60.534375200000      26.713188000000
        98    1  -1.110400        3.809659200000      60.534375200000      23.918188000000
        99    1  -1.110400        0.227272000000      58.863880800000      26.713188000000
       100    1  -1.110400        2.853712800000      57.907934400000      26.713188000000
       101    1  -1.110400        1.183218400000      61.490321600000      23.918188000000
       102    1  -1.110400        1.183218400000      61.490321600000      26.713188000000
       103    1  -1.110400        2.853712800000      57.907934400000      23.918188000000
       104    2   2.220800       -1.563921600000      58.028633600000      22.520688000000
       105    2   2.220800       -0.607975200000      60.655074400000      25.315688000000
       106    2   2.220800        1.062519200000      57.072687200000      25.315688000000
       107    2   2.220800        2.018465600000      59.699128000000      22.520688000000
       108    1  -1.110400        5.480153600000      56.951988000000      23.918188000000
       109    1  -1.110400        9.062540800000      58.622482400000      26.713188000000
       110    1  -1.110400        9.062540800000      58.622482400000      23.918188000000
       111    1  -1.110400        5.480153600000      56.951988000000      26.713188000000
       112    1  -1.110400        8.106594400000      55.996041600000      26.713188000000
       113    1  -1.110400        6.436100000000      59.578428800000      23.918188000000
       114    1  -1.110400        6.436100000000      59.578428800000      26.713188000000
       115    2   2.220800        4.644906400000      58.743181600000      25.315688000000
       116    2   2.220800        6.315400800000      55.160794400000      25.315688000000
       117    2   2.220800        7.271347200000      57.787235200000      22.520688000000
       118    1  -1.110400       14.315423200000      56.710589600000      26.713188000000
       119    1  -1.110400       14.315423200000      56.710589600000      23.918188000000
       120    1  -1.110400       10.733035200000      55.040095200000      26.713188000000
       121    1  -1.110400       13.359476800000      54.084148800000      26.713188000000
       122    1  -1.110400       11.688981600000      57.666536000000      23.918188000000
       123    1  -1.110400       11.688981600000      57.666536000000      26.713188000000
       124    2   2.220800        9.897788000000      56.831288800000      25.315688000000
       125    1  -1.110400       19.568304800000      54.798696800000      26.713188000000
       126    1  -1.110400       16.941864000000      55.754643200000      26.713188000000
       127    2   2.220800       15.150670400000      54.919396000000      25.315688000000
       128    1  -1.110400       22.194745600000      53.842751200000      26.713188000000
       129    1  -1.110400       -3.113717600000      66.028655200000      26.713188000000
       130    1  -1.110400       -0.487276800000      65.072708800000      26.713188000000
       131    2   2.220800       -2.278470400000      64.237461600000      25.315688000000
       132    1  -1.110400        5.721552000000      65.787256800000      26.713188000000
       133    1  -1.110400        2.139164800000      64.116762400000      26.713188000000
       134    1  -1.110400        4.765605600000      63.160816000000      26.713188000000
       135    1  -1.110400        4.765605600000      63.160816000000      23.918188000000
       136    2   2.220800        2.974412000000      62.325568800000      25.315688000000
       137    1  -1.110400        7.392046400000      62.204869600000      23.918188000000
       138    1  -1.110400       10.974433600000      63.875364000000      26.713188000000
       139    1  -1.110400       10.974433600000      63.875364000000      23.918188000000
       140    1  -1.110400        7.392046400000      62.204869600000      26.713188000000
       141    1  -1.110400       10.018487200000      61.248923200000      26.713188000000
       142    1  -1.110400        8.347992800000      64.831310400000      26.713188000000
       143    1  -1.110400       10.018487200000      61.248923200000      23.918188000000
       144    2   2.220800        5.600852800000      61.369622400000      22.520688000000
       145    2   2.220800        6.556799200000      63.996063200000      25.315688000000
       146    2   2.220800        8.227293600000      60.413676000000      25.315688000000
       147    1  -1.110400       12.644928000000      60.292976800000      23.918188000000
       148    1  -1.110400       16.227315200000      61.963472000000      26.713188000000
       149    1  -1.110400       16.227315200000      61.963472000000      23.918188000000
       150    1  -1.110400       12.644928000000      60.292976800000      26.713188000000
       151    1  -1.110400       15.271368800000      59.337030400000      26.713188000000
       152    1  -1.110400       13.600874400000      62.919418400000      23.918188000000
       153    1  -1.110400       13.600874400000      62.919418400000      26.713188000000
       154    1  -1.110400       15.271368800000      59.337030400000      23.918188000000
       155    2   2.220800       10.853734400000      59.457729600000      22.520688000000
       156    2   2.220800       11.809680800000      62.084170400000      25.315688000000
       157    2   2.220800       13.480175200000      58.501783200000      25.315688000000
       158    2   2.220800       14.436121600000      61.128224800000      22.520688000000
       159    1  -1.110400       17.897810400000      58.381084800000      23.918188000000
       160    1  -1.110400       21.480197600000      60.051579200000      26.713188000000
       161    1  -1.110400       21.480197600000      60.051579200000      23.918188000000
       162    1  -1.110400       17.897810400000      58.381084800000      26.713188000000
       163    1  -1.110400       20.524251200000      57.425138400000      26.713188000000
       164    1  -1.110400       18.853756800000      61.007525600000      23.918188000000
       165    1  -1.110400       18.853756800000      61.007525600000      26.713188000000
       166    1  -1.110400       20.524251200000      57.425138400000      23.918188000000
       167    2   2.220800       16.106616800000      57.545836800000      22.520688000000
       168    2   2.220800       17.062562400000      60.172278400000      25.315688000000
       169    2   2.220800       18.733057600000      56.589891200000      25.315688000000
       170    2   2.220800       19.689004000000      59.216332000000      22.520688000000
       171    1  -1.110400       23.150692000000      56.469192000000      23.918188000000
       172    1  -1.110400       26.733079200000      58.139686400000      26.713188000000
       173    1  -1.110400       26.733079200000      58.139686400000      23.918188000000
       174    1  -1.110400       23.150692000000      56.469192000000      26.713188000000
       175    1  -1.110400       25.777132800000      55.513245600000      26.713188000000
       176    1  -1.110400       24.106638400000      59.095632800000      23.918188000000
       177    1  -1.110400       24.106638400000      59.095632800000      26.713188000000
       178    2   2.220800       22.315444800000      58.260385600000      25.315688000000
       179    1  -1.110400       31.985960800000      56.227793600000      26.713188000000
       180    1  -1.110400       31.985960800000      56.227793600000      23.918188000000
       181    1  -1.110400       28.403573600000      54.557299200000      26.713188000000
       182    1  -1.110400       31.030015200000      53.601352800000      26.713188000000
       183    1  -1.110400       29.359520000000      57.183740000000      23.918188000000
       184    1  -1.110400       29.359520000000      57.183740000000      26.713188000000
       185    2   2.220800       27.568326400000      56.348492800000      25.315688000000
       186    1  -1.110400       37.238843200000      54.315900800000      26.713188000000
       187    1  -1.110400       34.612402400000      55.271847200000      26.713188000000
       188    1  -1.110400       39.865284000000      53.359954400000      26.713188000000
       189    1  -1.110400       11.930380000000      66.501805600000      26.713188000000
       190    1  -1.110400       14.556820800000      65.545859200000      26.713188000000
       191    1  -1.110400       17.183261600000      64.589912800000      26.713188000000
       192    2   2.220800       15.392068000000      63.754665600000      25.315688000000
       193    1  -1.110400       19.809702400000      63.633966400000      23.918188000000
       194    1  -1.110400       23.392090400000      65.304460800000      26.713188000000
       195    1  -1.110400       19.809702400000      63.633966400000      26.713188000000
       196    1  -1.110400       22.436144000000      62.678020000000      26.713188000000
       197    1  -1.110400       20.765648800000      66.260407200000      26.713188000000
       198    1  -1.110400       22.436144000000      62.678020000000      23.918188000000
       199    2   2.220800       20.644950400000      61.842772800000      25.315688000000
       200    1  -1.110400       25.062584800000      61.722073600000      23.918188000000
       201    1  -1.110400       28.644972000000      63.392568000000      26.713188000000
       202    1  -1.110400       28.644972000000      63.392568000000      23.918188000000
       203    1  -1.110400       25.062584800000      61.722073600000      26.713188000000
       204    1  -1.110400       27.689025600000      60.766127200000      26.713188000000
       205    1  -1.110400       26.018531200000      64.348514400000      26.713188000000
       206    1  -1.110400       27.689025600000      60.766127200000      23.918188000000
       207    2   2.220800       23.271391200000      60.886826400000      22.520688000000
       208    2   2.220800       24.227337600000      63.513267200000      25.315688000000
       209    2   2.220800       25.897832000000      59.930880000000      25.315688000000
       210    1  -1.110400       30.315466400000      59.810180800000      23.918188000000
       211    1  -1.110400       33.897853600000      61.480676000000      26.713188000000
       212    1  -1.110400       33.897853600000      61.480676000000      23.918188000000
       213    1  -1.110400       30.315466400000      59.810180800000      26.713188000000
       214    1  -1.110400       32.941907200000      58.854234400000      26.713188000000
       215    1  -1.110400       31.271412800000      62.436621600000      23.918188000000
       216    1  -1.110400       31.271412800000      62.436621600000      26.713188000000
       217    1  -1.110400       32.941907200000      58.854234400000      23.918188000000
       218    2   2.220800       28.524272800000      58.974933600000      22.520688000000
       219    2   2.220800       29.480219200000      61.601374400000      25.315688000000
       220    2   2.220800       31.150713600000      58.018987200000      25.315688000000
       221    2   2.220800       32.106660000000      60.645428000000      22.520688000000
       222    1  -1.110400       35.568348800000      57.898288000000      23.918188000000
       223    1  -1.110400       39.150736000000      59.568783200000      26.713188000000
       224    1  -1.110400       39.150736000000      59.568783200000      23.918188000000
       225    1  -1.110400       35.568348800000      57.898288000000      26.713188000000
       226    1  -1.110400       38.194789600000      56.942342400000      26.713188000000
       227    1  -1.110400       36.524294400000      60.524729600000      23.918188000000
       228    1  -1.110400       36.524294400000      60.524729600000      26.713188000000
       229    1  -1.110400       38.194789600000      56.942342400000      23.918188000000
       230    2   2.220800       34.733100800000      59.689482400000      25.315688000000
       231    2   2.220800       36.403596000000      56.107094400000      25.315688000000
       232    2   2.220800       37.359542400000      58.733536000000      22.520688000000
       233    1  -1.110400       44.403617600000      57.656890400000      26.713188000000
       234    1  -1.110400       44.403617600000      57.656890400000      23.918188000000
       235    1  -1.110400       40.821230400000      55.986396000000      26.713188000000
       236    1  -1.110400       43.447671200000      55.030449600000      26.713188000000
       237    1  -1.110400       41.777176800000      58.612836800000      23.918188000000
       238    1  -1.110400       41.777176800000      58.612836800000      26.713188000000
       239    2   2.220800       39.985983200000      57.777589600000      25.315688000000
       240    1  -1.110400       49.656499200000      55.744997600000      26.713188000000
       241    1  -1.110400       46.074112000000      54.074503200000      26.713188000000
       242    1  -1.110400       47.030058400000      56.700944000000      23.918188000000
       243    1  -1.110400       47.030058400000      56.700944000000      26.713188000000
       244    2   2.220800       45.238864800000      55.865696800000      25.315688000000
       245    1  -1.110400       54.909381600000      53.833104800000      26.713188000000
       246    1  -1.110400       52.282940800000      54.789051200000      26.713188000000
       247    1  -1.110400       29.600918400000      66.019009600000      26.713188000000
       248    2   2.220800       27.809724800000      65.183761600000      25.315688000000
       249    1  -1.110400       32.227359200000      65.063063200000      26.713188000000
       250    1  -1.110400       34.853800000000      64.107116800000      26.713188000000
       251    2   2.220800       33.062606400000      63.271869600000      25.315688000000
       252    1  -1.110400       37.480240800000      63.151170400000      23.918188000000
       253    1  -1.110400       41.062628000000      64.821664800000      26.713188000000
       254    1  -1.110400       37.480240800000      63.151170400000      26.713188000000
       255    1  -1.110400       40.106682400000      62.195224000000      26.713188000000
       256    1  -1.110400       38.436187200000      65.777611200000      26.713188000000
       257    1  -1.110400       40.106682400000      62.195224000000      23.918188000000
       258    2   2.220800       35.689047200000      62.315923200000      22.520688000000
       259    2   2.220800       36.644993600000      64.942364000000      25.315688000000
       260    2   2.220800       38.315488000000      61.359976800000      25.315688000000
       261    1  -1.110400       42.733123200000      61.239277600000      23.918188000000
       262    1  -1.110400       46.315510400000      62.909772000000      26.713188000000
       263    1  -1.110400       46.315510400000      62.909772000000      23.918188000000
       264    1  -1.110400       42.733123200000      61.239277600000      26.713188000000
       265    1  -1.110400       45.359564000000      60.283331200000      26.713188000000
       266    1  -1.110400       43.689069600000      63.865718400000      23.918188000000
       267    1  -1.110400       43.689069600000      63.865718400000      26.713188000000
       268    1  -1.110400       45.359564000000      60.283331200000      23.918188000000
       269    2   2.220800       40.941929600000      60.404030400000      22.520688000000
       270    2   2.220800       41.897876000000      63.030471200000      25.315688000000
       271    2   2.220800       43.568370400000      59.448084000000      25.315688000000
       272    2   2.220800       44.524316800000      62.074524800000      22.520688000000
       273    1  -1.110400       47.986004800000      59.327384800000      23.918188000000
       274    1  -1.110400       51.568392000000      60.997879200000      26.713188000000
       275    1  -1.110400       51.568392000000      60.997879200000      23.918188000000
       276    1  -1.110400       47.986004800000      59.327384800000      26.713188000000
       277    1  -1.110400       50.612445600000      58.371438400000      26.713188000000
       278    1  -1.110400       48.941951200000      61.953825600000      23.918188000000
       279    1  -1.110400       48.941951200000      61.953825600000      26.713188000000
       280    1  -1.110400       50.612445600000      58.371438400000      23.918188000000
       281    2   2.220800       46.194811200000      58.492137600000      22.520688000000
       282    2   2.220800       47.150757600000      61.118578400000      25.315688000000
       283    2   2.220800       48.821252000000      57.536191200000      25.315688000000
       284    2   2.220800       49.777198400000      60.162632000000      22.520688000000
       285    1  -1.110400       53.238886400000      57.415492000000      23.918188000000
       286    1  -1.110400       56.821274400000      59.085987200000      26.713188000000
       287    1  -1.110400       56.821274400000      59.085987200000      23.918188000000
       288    1  -1.110400       53.238886400000      57.415492000000      26.713188000000
       289    1  -1.110400       55.865328000000      56.459545600000      26.713188000000
       290    1  -1.110400       54.194832800000      60.041933600000      23.918188000000
       291    1  -1.110400       54.194832800000      60.041933600000      26.713188000000
       292    1  -1.110400       55.865328000000      56.459545600000      23.918188000000
       293    2   2.220800       52.403639200000      59.206685600000      25.315688000000
       294    2   2.220800       54.074134400000      55.624298400000      25.315688000000
       295    2   2.220800       55.030080000000      58.250740000000      22.520688000000
       296    1  -1.110400       58.491768800000      55.503600000000      26.713188000000
       297    1  -1.110400       59.447715200000      58.130040800000      23.918188000000
       298    1  -1.110400       59.447715200000      58.130040800000      26.713188000000
       299    2   2.220800       57.656521600000      57.294793600000      25.315688000000
       300    1  -1.110400       44.645016000000      66.492159200000      26.713188000000
       301    1  -1.110400       47.271456800000      65.536212800000      26.713188000000
       302    2   2.220800       45.480263200000      64.700965600000      25.315688000000
       303    1  -1.110400       53.480284800000      66.250761600000      26.713188000000
       304    1  -1.110400       49.897897600000      64.580267200000      26.713188000000
       305    1  -1.110400       52.524338400000      63.624320800000      26.713188000000
       306    1  -1.110400       52.524338400000      63.624320800000      23.918188000000
       307    2   2.220800       50.733144800000      62.789073600000      25.315688000000
       308    1  -1.110400       55.150779200000      62.668374400000      23.918188000000
       309    1  -1.110400       58.733166400000      64.338868800000      26.713188000000
       310    1  -1.110400       55.150779200000      62.668374400000      26.713188000000
       311    1  -1.110400       57.777220000000      61.712428000000      26.713188000000
       312    1  -1.110400       56.106725600000      65.294815200000      26.713188000000
       313    1  -1.110400       57.777220000000      61.712428000000      23.918188000000
       314    2   2.220800       53.359585600000      61.833127200000      22.520688000000
       315    2   2.220800       54.315532000000      64.459568000000      25.315688000000
       316    2   2.220800       55.986026400000      60.877180800000      25.315688000000
       317    2   2.220800       58.612468000000      59.921234400000      22.520688000000
       318    2   2.220800       59.568413600000      62.547675200000      25.315688000000
       319    1  -1.110400      -17.684664800000      50.511407200000      32.303188000000
       320    1  -1.110400      -17.684664800000      50.511407200000      29.508188000000
       321    1  -1.110400      -18.640611200000      47.884966400000      32.303188000000
       322    1  -1.110400      -12.431782400000      48.599514400000      32.303188000000
       323    1  -1.110400      -15.058224000000      49.555460800000      32.303188000000
       324    1  -1.110400      -19.355159200000      54.093794400000      29.508188000000
       325    1  -1.110400      -15.772772000000      55.764289600000      32.303188000000