 # Voronoi polycrystal with 2 grains
  
       35628  atoms
           2  atom types
 
      0.000000000000      80.000000000000  xlo xhi
      0.000000000000      80.000000000000  ylo yhi
      0.000000000000      80.000000000000  zlo zhi
 
Masses
 
            1   15.99900000             # O
            2   232.03806000            # Th
 
Atoms # charge
 
         1    1  -1.110400        2.844067200000       0.193298400000       1.713188000000
         2    1  -1.110400        0.217625600000       1.149244800000       1.713188000000
         3    1  -1.110400        4.755959200000       5.446180000000       1.713188000000
         4    1  -1.110400        1.173572000000       3.775685600000       1.713188000000
         5    1  -1.110400        3.800013600000       2.819739200000       1.713188000000
         6    1  -1.110400        2.129518400000       6.402126400000       1.713188000000
         7    2   2.220800        0.338324800000       5.566879200000       0.315688000000
         8    2   2.220800        2.008819200000       1.984492000000       0.315688000000
         9    1  -1.110400       10.008841600000       3.534288000000       1.713188000000
        10    1  -1.110400        6.426454400000       1.863792800000       1.713188000000
        11    1  -1.110400        9.052895200000       0.907846400000       1.713188000000
        12    1  -1.110400        7.382400800000       4.490234400000       1.713188000000
        13    2   2.220800        5.591207200000       3.654986400000       0.315688000000
        14    2   2.220800        7.261701600000       0.072599200000       0.315688000000
        15    1  -1.110400       15.261723200000       1.622395200000       1.713188000000
        16    1  -1.110400       12.635282400000       2.578341600000       1.713188000000
        17    2   2.220800       10.844088800000       1.743094400000       0.315688000000
        18    1  -1.110400       17.888164000000       0.666448800000       1.713188000000
        19    1  -1.110400        1.414970400000      12.610955200000       1.713188000000
        20    1  -1.110400        0.459024000000       9.984513600000       1.713188000000
        21    1  -1.110400        6.667852000000      10.699062400000       1.713188000000
        22    1  -1.110400        3.085464800000       9.028568000000       1.713188000000
        23    1  -1.110400        5.711905600000       8.072621600000       1.713188000000
        24    1  -1.110400        4.041411200000      11.655008800000       1.713188000000
        25    2   2.220800        2.250217600000      10.819761600000       0.315688000000
        26    2   2.220800        3.920712000000       7.237374400000       0.315688000000
        27    1  -1.110400       11.920734400000       8.787169600000       1.713188000000
        28    1  -1.110400        8.338347200000       7.116675200000       1.713188000000
        29    1  -1.110400       10.964788000000       6.160728800000       1.713188000000
        30    1  -1.110400        9.294292800000       9.743116000000       1.713188000000
        31    2   2.220800        7.503099200000       8.907868800000       0.315688000000
        32    2   2.220800        9.173594400000       5.325481600000       0.315688000000
        33    1  -1.110400       17.173616000000       6.875276800000       1.713188000000
        34    1  -1.110400       13.591228800000       5.204782400000       1.713188000000
        35    1  -1.110400       16.217669600000       4.248836000000       1.713188000000
        36    1  -1.110400       14.547175200000       7.831223200000       1.713188000000
        37    2   2.220800       12.755981600000       6.995976000000       0.315688000000
        38    2   2.220800       14.426476000000       3.413588800000       0.315688000000
        39    1  -1.110400       22.426497600000       4.963384000000       1.713188000000
        40    1  -1.110400       18.844110400000       3.292889600000       1.713188000000
        41    1  -1.110400       21.470551200000       2.336943200000       1.713188000000
        42    1  -1.110400       19.800056800000       5.919330400000       1.713188000000
        43    2   2.220800       18.008863200000       5.084083200000       0.315688000000
        44    2   2.220800       19.679357600000       1.501696000000       0.315688000000
        45    1  -1.110400       27.679380000000       3.051492000000       1.713188000000
        46    1  -1.110400       24.096992800000       1.380996800000       1.713188000000
        47    1  -1.110400       26.723433600000       0.425050400000       1.713188000000
        48    1  -1.110400       25.052939200000       4.007437600000       1.713188000000
        49    2   2.220800       23.261744800000       3.172190400000       0.315688000000
        50    1  -1.110400       32.932261600000       1.139599200000       1.713188000000
        51    1  -1.110400       30.305820800000       2.095545600000       1.713188000000
        52    2   2.220800       28.514627200000       1.260298400000       0.315688000000
        53    1  -1.110400       35.558702400000       0.183652800000       1.713188000000
        54    1  -1.110400        3.326863200000      17.863836800000       1.713188000000
        55    1  -1.110400        2.370916800000      15.237396000000       1.713188000000
        56    1  -1.110400        0.700422400000      18.819783200000       1.713188000000
        57    2   2.220800        0.579723200000      14.402148800000       0.315688000000
        58    1  -1.110400        8.579744800000      15.951944000000       1.713188000000
        59    1  -1.110400        4.997357600000      14.281449600000       1.713188000000
        60    1  -1.110400        7.623798400000      13.325503200000       1.713188000000
        61    1  -1.110400        5.953304000000      16.907890400000       1.713188000000
        62    2   2.220800        4.162110400000      16.072643200000       0.315688000000
        63    2   2.220800        5.832604800000      12.490256000000       0.315688000000
        64    1  -1.110400       13.832626400000      14.040051200000       1.713188000000
        65    1  -1.110400       10.250239200000      12.369556800000       1.713188000000
        66    1  -1.110400       12.876680800000      11.413610400000       1.713188000000
        67    1  -1.110400       11.206185600000      14.995997600000       1.713188000000
        68    2   2.220800        9.414992000000      14.160750400000       0.315688000000
        69    2   2.220800       11.085486400000      10.578363200000       0.315688000000
        70    1  -1.110400       19.085508800000      12.128159200000       1.713188000000
        71    1  -1.110400       15.503121600000      10.457664000000       1.713188000000
        72    1  -1.110400       18.129562400000       9.501717600000       1.713188000000
        73    1  -1.110400       16.459068000000      13.084104800000       1.713188000000
        74    2   2.220800       14.667874400000      12.248857600000       0.315688000000
        75    2   2.220800       16.338368800000       8.666470400000       0.315688000000
        76    1  -1.110400       24.338390400000      10.216266400000       1.713188000000
        77    1  -1.110400       20.756003200000       8.545771200000       1.713188000000
        78    1  -1.110400       23.382444000000       7.589825600000       1.713188000000
        79    1  -1.110400       21.711949600000      11.172212800000       1.713188000000
        80    2   2.220800       19.920756000000      10.336965600000       0.315688000000
        81    2   2.220800       21.591250400000       6.754577600000       0.315688000000
        82    1  -1.110400       29.591272800000       8.304373600000       1.713188000000
        83    1  -1.110400       26.008884800000       6.633879200000       1.713188000000
        84    1  -1.110400       28.635326400000       5.677932800000       1.713188000000
        85    1  -1.110400       26.964831200000       9.260320000000       1.713188000000
        86    2   2.220800       25.173637600000       8.425072800000       0.315688000000
        87    2   2.220800       26.844132800000       4.842685600000       0.315688000000
        88    1  -1.110400       34.844154400000       6.392480800000       1.713188000000
        89    1  -1.110400       31.261767200000       4.721986400000       1.713188000000
        90    1  -1.110400       33.888208000000       3.766040000000       1.713188000000
        91    1  -1.110400       32.217713600000       7.348427200000       1.713188000000
        92    2   2.220800       30.426520000000       6.513180000000       0.315688000000
        93    2   2.220800       32.097014400000       2.930792800000       0.315688000000
        94    1  -1.110400       36.514648800000       2.810093600000       1.713188000000
        95    1  -1.110400       39.141089600000       1.854147200000       1.713188000000
        96    1  -1.110400       37.470595200000       5.436534400000       1.713188000000
        97    2   2.220800       35.679401600000       4.601287200000       0.315688000000
        98    2   2.220800       37.349896000000       1.018900000000       0.315688000000
        99    1  -1.110400        5.238756000000      23.116718400000       1.713188000000
       100    1  -1.110400        1.656368000000      21.446224000000       1.713188000000
       101    1  -1.110400        4.282809600000      20.490277600000       1.713188000000
       102    1  -1.110400        2.612314400000      24.072664800000       1.713188000000
       103    2   2.220800        0.821120800000      23.237417600000       0.315688000000
       104    2   2.220800        2.491616000000      19.655030400000       0.315688000000
       105    1  -1.110400       10.491637600000      21.204826400000       1.713188000000
       106    1  -1.110400        6.909250400000      19.534331200000       1.713188000000
       107    1  -1.110400        9.535691200000      18.578384800000       1.713188000000
       108    1  -1.110400        7.865196800000      22.160772000000       1.713188000000
       109    2   2.220800        6.074003200000      21.325524800000       0.315688000000
       110    2   2.220800        7.744497600000      17.743137600000       0.315688000000
       111    1  -1.110400       15.744519200000      19.292933600000       1.713188000000
       112    1  -1.110400       12.162132000000      17.622438400000       1.713188000000
       113    1  -1.110400       14.788572800000      16.666492800000       1.713188000000
       114    1  -1.110400       13.118078400000      20.248880000000       1.713188000000
       115    2   2.220800       11.326884800000      19.413632800000       0.315688000000
       116    2   2.220800       12.997379200000      15.831244800000       0.315688000000
       117    1  -1.110400       20.997401600000      17.381040800000       1.713188000000
       118    1  -1.110400       17.415014400000      15.710546400000       1.713188000000
       119    1  -1.110400       20.041455200000      14.754600000000       1.713188000000
       120    1  -1.110400       18.370960000000      18.336987200000       1.713188000000
       121    2   2.220800       16.579766400000      17.501740000000       0.315688000000
       122    2   2.220800       18.250261600000      13.919352800000       0.315688000000
       123    1  -1.110400       26.250283200000      15.469148000000       1.713188000000
       124    1  -1.110400       22.667896000000      13.798653600000       1.713188000000
       125    1  -1.110400       25.294336800000      12.842707200000       1.713188000000
       126    1  -1.110400       23.623842400000      16.425094400000       1.713188000000
       127    2   2.220800       21.832648800000      15.589847200000       0.315688000000
       128    2   2.220800       23.503143200000      12.007460000000       0.315688000000
       129    1  -1.110400       31.503164800000      13.557255200000       1.713188000000
       130    1  -1.110400       27.920777600000      11.886760800000       1.713188000000
       131    1  -1.110400       30.547218400000      10.930814400000       1.713188000000
       132    1  -1.110400       28.876724000000      14.513201600000       1.713188000000
       133    2   2.220800       27.085530400000      13.677954400000       0.315688000000
       134    2   2.220800       28.756024800000      10.095567200000       0.315688000000
       135    1  -1.110400       36.756047200000      11.645362400000       1.713188000000
       136    1  -1.110400       33.173660000000       9.974868000000       1.713188000000
       137    1  -1.110400       35.800100800000       9.018921600000       1.713188000000
       138    1  -1.110400       34.129606400000      12.601308800000       1.713188000000
       139    2   2.220800       32.338412000000      11.766061600000       0.315688000000
       140    2   2.220800       34.008907200000       8.183674400000       0.315688000000
       141    1  -1.110400       38.426541600000       8.062975200000       1.713188000000
       142    1  -1.110400       39.382488000000      10.689416800000       1.713188000000
       143    2   2.220800       37.591294400000       9.854168800000       0.315688000000
       144    2   2.220800       39.261788800000       6.271781600000       0.315688000000
       145    1  -1.110400        1.897766400000      30.281493600000       1.713188000000
       146    1  -1.110400        0.941820000000      27.655052000000       1.713188000000
       147    1  -1.110400        7.150648000000      28.369600800000       1.713188000000
       148    1  -1.110400        3.568260800000      26.699105600000       1.713188000000
       149    1  -1.110400        6.194701600000      25.743160000000       1.713188000000
       150    1  -1.110400        4.524207200000      29.325547200000       1.713188000000
       151    2   2.220800        2.733013600000      28.490300000000       0.315688000000
       152    2   2.220800        4.403508000000      24.907912000000       0.315688000000
       153    1  -1.110400       12.403530400000      26.457708000000       1.713188000000
       154    1  -1.110400        8.821143200000      24.787213600000       1.713188000000
       155    1  -1.110400       11.447584000000      23.831267200000       1.713188000000
       156    1  -1.110400        9.777089600000      27.413654400000       1.713188000000
       157    2   2.220800        7.985895200000      26.578407200000       0.315688000000
       158    2   2.220800        9.656390400000      22.996020000000       0.315688000000
       159    1  -1.110400       17.656412000000      24.545815200000       1.713188000000
       160    1  -1.110400       14.074024800000      22.875320800000       1.713188000000
       161    1  -1.110400       16.700465600000      21.919374400000       1.713188000000
       162    1  -1.110400       15.029971200000      25.501761600000       1.713188000000
       163    2   2.220800       13.238777600000      24.666514400000       0.315688000000
       164    2   2.220800       14.909272000000      21.084127200000       0.315688000000
       165    1  -1.110400       22.909293600000      22.633922400000       1.713188000000
       166    1  -1.110400       19.326906400000      20.963428000000       1.713188000000
       167    1  -1.110400       21.953348000000      20.007481600000       1.713188000000
       168    1  -1.110400       20.282852800000      23.589868800000       1.713188000000
       169    2   2.220800       18.491659200000      22.754621600000       0.315688000000
       170    2   2.220800       20.162153600000      19.172234400000       0.315688000000
       171    1  -1.110400       28.162176000000      20.722029600000       1.713188000000
       172    1  -1.110400       24.579788800000      19.051535200000       1.713188000000
       173    1  -1.110400       27.206229600000      18.095588800000       1.713188000000
       174    1  -1.110400       25.535735200000      21.677976000000       1.713188000000
       175    2   2.220800       23.744541600000      20.842728800000       0.315688000000
       176    2   2.220800       25.415036000000      17.260341600000       0.315688000000
       177    1  -1.110400       33.415057600000      18.810137600000       1.713188000000
       178    1  -1.110400       29.832670400000      17.139642400000       1.713188000000
       179    1  -1.110400       32.459111200000      16.183696000000       1.713188000000
       180    1  -1.110400       30.788616800000      19.766084000000       1.713188000000
       181    2   2.220800       28.997423200000      18.930836000000       0.315688000000
       182    2   2.220800       30.667917600000      15.348448800000       0.315688000000
       183    1  -1.110400       38.667940000000      16.898244800000       1.713188000000
       184    1  -1.110400       35.085552000000      15.227750400000       1.713188000000
       185    1  -1.110400       37.711993600000      14.271804000000       1.713188000000
       186    1  -1.110400       36.041498400000      17.854191200000       1.713188000000
       187    2   2.220800       34.250304800000      17.018944000000       0.315688000000
       188    2   2.220800       35.920800000000      13.436556800000       0.315688000000
       189    2   2.220800       39.503187200000      15.107051200000       0.315688000000
       190    1  -1.110400        3.809659200000      35.534375200000       1.713188000000
       191    1  -1.110400        0.227272000000      33.863880800000       1.713188000000
       192    1  -1.110400        2.853712800000      32.907934400000       1.713188000000
       193    1  -1.110400        1.183218400000      36.490321600000       1.713188000000
       194    2   2.220800        1.062519200000      32.072687200000       0.315688000000
       195    1  -1.110400        9.062540800000      33.622482400000       1.713188000000
       196    1  -1.110400        5.480153600000      31.951988000000       1.713188000000
       197    1  -1.110400        8.106594400000      30.996041600000       1.713188000000
       198    1  -1.110400        6.436100000000      34.578428800000       1.713188000000
       199    2   2.220800        4.644906400000      33.743181600000       0.315688000000
       200    2   2.220800        6.315400800000      30.160794400000       0.315688000000
       201    1  -1.110400       14.315423200000      31.710589600000       1.713188000000
       202    1  -1.110400       10.733035200000      30.040095200000       1.713188000000
       203    1  -1.110400       13.359476800000      29.084148800000       1.713188000000
       204    1  -1.110400       11.688981600000      32.666536000000       1.713188000000
       205    2   2.220800        9.897788000000      31.831288800000       0.315688000000
       206    2   2.220800       11.568283200000      28.248901600000       0.315688000000
       207    1  -1.110400       19.568304800000      29.798696800000       1.713188000000
       208    1  -1.110400       15.985917600000      28.128202400000       1.713188000000
       209    1  -1.110400       18.612358400000      27.172256000000       1.713188000000
       210    1  -1.110400       16.941864000000      30.754643200000       1.713188000000
       211    2   2.220800       15.150670400000      29.919396000000       0.315688000000
       212    2   2.220800       16.821164800000      26.337008800000       0.315688000000
       213    1  -1.110400       24.821186400000      27.886804800000       1.713188000000
       214    1  -1.110400       21.238799200000      26.216309600000       1.713188000000
       215    1  -1.110400       23.865240000000      25.260363200000       1.713188000000
       216    1  -1.110400       22.194745600000      28.842751200000       1.713188000000
       217    2   2.220800       20.403552000000      28.007503200000       0.315688000000
       218    2   2.220800       22.074046400000      24.425116000000       0.315688000000
       219    1  -1.110400       30.074068800000      25.974912000000       1.713188000000
       220    1  -1.110400       26.491681600000      24.304417600000       1.713188000000
       221    1  -1.110400       29.118122400000      23.348471200000       1.713188000000
       222    1  -1.110400       27.447627200000      26.930858400000       1.713188000000
       223    2   2.220800       25.656433600000      26.095611200000       0.315688000000
       224    2   2.220800       27.326928800000      22.513224000000       0.315688000000
       225    1  -1.110400       35.326950400000      24.063019200000       1.713188000000
       226    1  -1.110400       31.744563200000      22.392524800000       1.713188000000
       227    1  -1.110400       34.371004000000      21.436578400000       1.713188000000
       228    1  -1.110400       32.700509600000      25.018965600000       1.713188000000
       229    2   2.220800       30.909316000000      24.183718400000       0.315688000000
       230    2   2.220800       32.579810400000      20.601331200000       0.315688000000
       231    1  -1.110400       36.997444800000      20.480632000000       1.713188000000
       232    1  -1.110400       39.623885600000      19.524685600000       1.713188000000
       233    1  -1.110400       37.953391200000      23.107072800000       1.713188000000
       234    2   2.220800       36.162197600000      22.271825600000       0.315688000000
       235    2   2.220800       37.832692000000      18.689438400000       0.315688000000
       236    1  -1.110400        0.468669600000      42.699149600000       1.713188000000
       237    1  -1.110400        5.721552000000      40.787256800000       1.713188000000
       238    1  -1.110400        2.139164800000      39.116762400000       1.713188000000
       239    1  -1.110400        4.765605600000      38.160816000000       1.713188000000
       240    1  -1.110400        3.095110400000      41.743203200000       1.713188000000
       241    2   2.220800        1.303916800000      40.907956000000       0.315688000000
       242    2   2.220800        2.974412000000      37.325568800000       0.315688000000
       243    1  -1.110400       10.974433600000      38.875364000000       1.713188000000
       244    1  -1.110400        7.392046400000      37.204869600000       1.713188000000
       245    1  -1.110400       10.018487200000      36.248923200000       1.713188000000
       246    1  -1.110400        8.347992800000      39.831310400000       1.713188000000
       247    2   2.220800        6.556799200000      38.996063200000       0.315688000000
       248    2   2.220800        8.227293600000      35.413676000000       0.315688000000
       249    1  -1.110400       16.227315200000      36.963472000000       1.713188000000
       250    1  -1.110400       12.644928000000      35.292976800000       1.713188000000
       251    1  -1.110400       15.271368800000      34.337030400000       1.713188000000
       252    1  -1.110400       13.600874400000      37.919418400000       1.713188000000
       253    2   2.220800       11.809680800000      37.084170400000       0.315688000000
       254    2   2.220800       13.480175200000      33.501783200000       0.315688000000
       255    1  -1.110400       21.480197600000      35.051579200000       1.713188000000
       256    1  -1.110400       17.897810400000      33.381084800000       1.713188000000
       257    1  -1.110400       20.524251200000      32.425138400000       1.713188000000
       258    1  -1.110400       18.853756800000      36.007525600000       1.713188000000
       259    2   2.220800       17.062562400000      35.172278400000       0.315688000000
       260    2   2.220800       18.733057600000      31.589891200000       0.315688000000
       261    1  -1.110400       26.733079200000      33.139686400000       1.713188000000
       262    1  -1.110400       23.150692000000      31.469192000000       1.713188000000
       263    1  -1.110400       25.777132800000      30.513245600000       1.713188000000
       264    1  -1.110400       24.106638400000      34.095632800000       1.713188000000
       265    2   2.220800       22.315444800000      33.260385600000       0.315688000000
       266    2   2.220800       23.985939200000      29.677998400000       0.315688000000
       267    1  -1.110400       31.985960800000      31.227793600000       1.713188000000
       268    1  -1.110400       28.403573600000      29.557299200000       1.713188000000
       269    1  -1.110400       31.030015200000      28.601352800000       1.713188000000
       270    1  -1.110400       29.359520000000      32.183740000000       1.713188000000
       271    2   2.220800       27.568326400000      31.348492800000       0.315688000000
       272    2   2.220800       29.238820800000      27.766105600000       0.315688000000
       273    1  -1.110400       37.238843200000      29.315900800000       1.713188000000
       274    1  -1.110400       33.656456000000      27.645406400000       1.713188000000
       275    1  -1.110400       36.282896800000      26.689460000000       1.713188000000
       276    1  -1.110400       34.612402400000      30.271847200000       1.713188000000
       277    2   2.220800       32.821208800000      29.436600000000       0.315688000000
       278    2   2.220800       34.491703200000      25.854212800000       0.315688000000
       279    1  -1.110400       38.909337600000      25.733513600000       1.713188000000
       280    1  -1.110400       39.865284000000      28.359954400000       1.713188000000
       281    2   2.220800       38.074090400000      27.524707200000       0.315688000000
       282    2   2.220800       39.744584800000      23.942320000000       0.315688000000
       283    1  -1.110400        2.380562400000      47.952031200000       1.713188000000
       284    1  -1.110400        1.424616000000      45.325590400000       1.713188000000
       285    1  -1.110400        7.633444000000      46.040139200000       1.713188000000
       286    1  -1.110400        4.051056800000      44.369644000000       1.713188000000
       287    1  -1.110400        6.677498400000      43.413697600000       1.713188000000
       288    1  -1.110400        5.007003200000      46.996085600000       1.713188000000
       289    2   2.220800        3.215809600000      46.160837600000       0.315688000000
       290    2   2.220800        4.886304000000      42.578450400000       0.315688000000
       291    1  -1.110400       12.886326400000      44.128246400000       1.713188000000
       292    1  -1.110400        9.303939200000      42.457752000000       1.713188000000
       293    1  -1.110400       11.930380000000      41.501805600000       1.713188000000
       294    1  -1.110400       10.259885600000      45.084192800000       1.713188000000
       295    2   2.220800        8.468692000000      44.248945600000       0.315688000000
       296    2   2.220800       10.139186400000      40.666558400000       0.315688000000
       297    1  -1.110400       18.139208000000      42.216353600000       1.713188000000
       298    1  -1.110400       14.556820800000      40.545859200000       1.713188000000
       299    1  -1.110400       17.183261600000      39.589912800000       1.713188000000
       300    1  -1.110400       15.512767200000      43.172300000000       1.713188000000
       301    2   2.220800       13.721573600000      42.337052800000       0.315688000000
       302    2   2.220800       15.392068000000      38.754665600000       0.315688000000
       303    1  -1.110400       23.392090400000      40.304460800000       1.713188000000
       304    1  -1.110400       19.809702400000      38.633966400000       1.713188000000
       305    1  -1.110400       22.436144000000      37.678020000000       1.713188000000
       306    1  -1.110400       20.765648800000      41.260407200000       1.713188000000
       307    2   2.220800       18.974455200000      40.425160000000       0.315688000000
       308    2   2.220800       20.644950400000      36.842772800000       0.315688000000
       309    1  -1.110400       28.644972000000      38.392568000000       1.713188000000
       310    1  -1.110400       25.062584800000      36.722073600000       1.713188000000
       311    1  -1.110400       27.689025600000      35.766127200000       1.713188000000
       312    1  -1.110400       26.018531200000      39.348514400000       1.713188000000
       313    2   2.220800       24.227337600000      38.513267200000       0.315688000000
       314    2   2.220800       25.897832000000      34.930880000000       0.315688000000
       315    1  -1.110400       33.897853600000      36.480676000000       1.713188000000
       316    1  -1.110400       30.315466400000      34.810180800000       1.713188000000
       317    1  -1.110400       32.941907200000      33.854234400000       1.713188000000
       318    1  -1.110400       31.271412800000      37.436621600000       1.713188000000
       319    2   2.220800       29.480219200000      36.601374400000       0.315688000000
       320    2   2.220800       31.150713600000      33.018987200000       0.315688000000
       321    1  -1.110400       39.150736000000      34.568783200000       1.713188000000
       322    1  -1.110400       35.568348800000      32.898288000000       1.713188000000
       323    1  -1.110400       38.194789600000      31.942342400000       1.713188000000
       324    1  -1.110400       36.524294400000      35.524729600000       1.713188000000
       325    2   2.220800       34.733100800000      34.689482400000       0.315688000000