 # Bcc CuZr alloy oriented X=[100], Y=[010], Z=[001].
  
        9216  atoms
           2  atom types
 
      0.000000000000      96.000000000000  xlo xhi
      0.000000000000      36.000000000000  ylo yhi
      0.000000000000      36.000000000000  zlo zhi
 
Masses
 
            1   63.54600000             # Cu
            2   91.22400000             # Zr
 
Atoms # atomic
 
         1    1        0.000000000000       0.000000000000       0.000000000000
         2    2        1.500000000000       1.500000120000       1.500000120000
         3    1        3.000000000000       0.000000000000       0.000000000000
         4    2        4.500000000000       1.500000120000       1.500000120000
         5    1        6.000000000000       0.000000000000       0.000000000000
         6    2        7.500000000000       1.500000120000       1.500000120000
         7    1        9.000000000000       0.000000000000       0.000000000000
         8    2       10.500000000000       1.500000120000       1.500000120000
         9    1       12.000000000000       0.000000000000       0.000000000000
        10    2       13.500000000000       1.500000120000       1.500000120000
        11    1       15.000000000000       0.000000000000       0.000000000000
        12    2       16.500000000000       1.500000120000       1.500000120000
        13    1       18.000000000000       0.000000000000       0.000000000000
        14    2       19.500000000000       1.500000120000       1.500000120000
        15    1       21.000000000000       0.000000000000       0.000000000000
        16    2       22.500000000000       1.500000120000       1.500000120000
        17    1       24.000000000000       0.000000000000       0.000000000000
        18    2       25.500000000000       1.500000120000       1.500000120000
        19    1       27.000000000000       0.000000000000       0.000000000000
        20    2       28.500000000000       1.500000120000       1.500000120000
        21    1       30.000000000000       0.000000000000       0.000000000000
        22    2       31.500000000000       1.500000120000       1.500000120000
        23    1       33.000000000000       0.000000000000       0.000000000000
        24    2       34.500000000000       1.500000120000       1.500000120000
        25    1       36.000000000000       0.000000000000       0.000000000000
        26    2       37.500000000000       1.500000120000       1.500000120000
        27    1       39.000000000000       0.000000000000       0.000000000000
        28    2       40.500000000000       1.500000120000       1.500000120000
        29    1       42.000000000000       0.000000000000       0.000000000000
        30    2       43.500000000000       1.500000120000       1.500000120000
        31    1       45.000000000000       0.000000000000       0.000000000000
        32    2       46.500000000000       1.500000120000       1.500000120000
        33    1       48.000000000000       0.000000000000       0.000000000000
        34    2       49.500000000000       1.500000120000       1.500000120000
        35    1       51.000000000000       0.000000000000       0.000000000000
        36    2       52.500000000000       1.500000120000       1.500000120000
        37    1       54.000000000000       0.000000000000       0.000000000000
        38    2       55.500000000000       1.500000120000       1.500000120000
        39    1       57.000000000000       0.000000000000       0.000000000000
        40    2       58.500000000000       1.500000120000       1.500000120000
        41    1       60.000000000000       0.000000000000       0.000000000000
        42    2       61.500000000000       1.500000120000       1.500000120000
        43    1       63.000000000000       0.000000000000       0.000000000000
        44    2       64.500000000000       1.500000120000       1.500000120000
        45    1       66.000000000000       0.000000000000       0.000000000000
        46    2       67.500000000000       1.500000120000       1.500000120000
        47    1       69.000000000000       0.000000000000       0.000000000000
        48    2       70.500000000000       1.500000120000       1.500000120000
        49    1       72.000000000000       0.000000000000       0.000000000000
        50    2       73.500000000000       1.500000120000       1.500000120000
        51    1       75.000000000000       0.000000000000       0.000000000000
        52    2       76.500000000000       1.500000120000       1.500000120000
        53    1       78.000000000000       0.000000000000       0.000000000000
        54    2       79.500000000000       1.500000120000       1.500000120000
        55    1       81.000000000000       0.000000000000       0.000000000000
        56    2       82.500000000000       1.500000120000       1.500000120000
        57    1       84.000000000000       0.000000000000       0.000000000000
        58    2       85.500000000000       1.500000120000       1.500000120000
        59    1       87.000000000000       0.000000000000       0.000000000000
        60    2       88.500000000000       1.500000120000       1.500000120000
        61    1       90.000000000000       0.000000000000       0.000000000000
        62    2       91.500000000000       1.500000120000       1.500000120000
        63    1       93.000000000000       0.000000000000       0.000000000000
        64    2       94.500000000000       1.500000120000       1.500000120000
        65    1        0.000000000000       2.999999880000       0.000000000000
        66    2        1.500000000000       4.500000000000       1.500000120000
        67    1        3.000000000000       2.999999880000       0.000000000000
        68    2        4.500000000000       4.500000000000       1.500000120000
        69    1        6.000000000000       2.999999880000       0.000000000000
        70    2        7.500000000000       4.500000000000       1.500000120000
        71    1        9.000000000000       2.999999880000       0.000000000000
        72    2       10.500000000000       4.500000000000       1.500000120000
        73    1       12.000000000000       2.999999880000       0.000000000000
        74    2       13.500000000000       4.500000000000       1.500000120000
        75    1       15.000000000000       2.999999880000       0.000000000000
        76    2       16.500000000000       4.500000000000       1.500000120000
        77    1       18.000000000000       2.999999880000       0.000000000000
        78    2       19.500000000000       4.500000000000       1.500000120000
        79    1       21.000000000000       2.999999880000       0.000000000000
        80    2       22.500000000000       4.500000000000       1.500000120000
        81    1       24.000000000000       2.999999880000       0.000000000000
        82    2       25.500000000000       4.500000000000       1.500000120000
        83    1       27.000000000000       2.999999880000       0.000000000000
        84    2       28.500000000000       4.500000000000       1.500000120000
        85    1       30.000000000000       2.999999880000       0.000000000000
        86    2       31.500000000000       4.500000000000       1.500000120000
        87    1       33.000000000000       2.999999880000       0.000000000000
        88    2       34.500000000000       4.500000000000       1.500000120000
        89    1       36.000000000000       2.999999880000       0.000000000000
        90    2       37.500000000000       4.500000000000       1.500000120000
        91    1       39.000000000000       2.999999880000       0.000000000000
        92    2       40.500000000000       4.500000000000       1.500000120000
        93    1       42.000000000000       2.999999880000       0.000000000000
        94    2       43.500000000000       4.500000000000       1.500000120000
        95    1       45.000000000000       2.999999880000       0.000000000000
        96    2       46.500000000000       4.500000000000       1.500000120000
        97    1       48.000000000000       2.999999880000       0.000000000000
        98    2       49.500000000000       4.500000000000       1.500000120000
        99    1       51.000000000000       2.999999880000       0.000000000000
       100    2       52.500000000000       4.500000000000       1.500000120000
       101    1       54.000000000000       2.999999880000       0.000000000000
       102    2       55.500000000000       4.500000000000       1.500000120000
       103    1       57.000000000000       2.999999880000       0.000000000000
       104    2       58.500000000000       4.500000000000       1.500000120000
       105    1       60.000000000000       2.999999880000       0.000000000000
       106    2       61.500000000000       4.500000000000       1.500000120000
       107    1       63.000000000000       2.999999880000       0.000000000000
       108    2       64.500000000000       4.500000000000       1.500000120000
       109    1       66.000000000000       2.999999880000       0.000000000000
       110    2       67.500000000000       4.500000000000       1.500000120000
       111    1       69.000000000000       2.999999880000       0.000000000000
       112    2       70.500000000000       4.500000000000       1.500000120000
       113    1       72.000000000000       2.999999880000       0.000000000000
       114    2       73.500000000000       4.500000000000       1.500000120000
       115    1       75.000000000000       2.999999880000       0.000000000000
       116    2       76.500000000000       4.500000000000       1.500000120000
       117    1       78.000000000000       2.999999880000       0.000000000000
       118    2       79.500000000000       4.500000000000       1.500000120000
       119    1       81.000000000000       2.999999880000       0.000000000000
       120    2       82.500000000000       4.500000000000       1.500000120000
       121    1       84.000000000000       2.999999880000       0.000000000000
       122    2       85.500000000000       4.500000000000       1.500000120000
       123    1       87.000000000000       2.999999880000       0.000000000000
       124    2       88.500000000000       4.500000000000       1.500000120000
       125    1       90.000000000000       2.999999880000       0.000000000000
       126    2       91.500000000000       4.500000000000       1.500000120000
       127    1       93.000000000000       2.999999880000       0.000000000000
       128    2       94.500000000000       4.500000000000       1.500000120000
       129    1        0.000000000000       6.000000120000       0.000000000000
       130    2        1.500000000000       7.499999880000       1.500000120000
       131    1        3.000000000000       6.000000120000       0.000000000000
       132    2        4.500000000000       7.499999880000       1.500000120000
       133    1        6.000000000000       6.000000120000       0.000000000000
       134    2        7.500000000000       7.499999880000       1.500000120000
       135    1        9.000000000000       6.000000120000       0.000000000000
       136    2       10.500000000000       7.499999880000       1.500000120000
       137    1       12.000000000000       6.000000120000       0.000000000000
       138    2       13.500000000000       7.499999880000       1.500000120000
       139    1       15.000000000000       6.000000120000       0.000000000000
       140    2       16.500000000000       7.499999880000       1.500000120000
       141    1       18.000000000000       6.000000120000       0.000000000000
       142    2       19.500000000000       7.499999880000       1.500000120000
       143    1       21.000000000000       6.000000120000       0.000000000000
       144    2       22.500000000000       7.499999880000       1.500000120000
       145    1       24.000000000000       6.000000120000       0.000000000000
       146    2       25.500000000000       7.499999880000       1.500000120000
       147    1       27.000000000000       6.000000120000       0.000000000000
       148    2       28.500000000000       7.499999880000       1.500000120000
       149    1       30.000000000000       6.000000120000       0.000000000000
       150    2       31.500000000000       7.499999880000       1.500000120000
       151    1       33.000000000000       6.000000120000       0.000000000000
       152    2       34.500000000000       7.499999880000       1.500000120000
       153    1       36.000000000000       6.000000120000       0.000000000000
       154    2       37.500000000000       7.499999880000       1.500000120000
       155    1       39.000000000000       6.000000120000       0.000000000000
       156    2       40.500000000000       7.499999880000       1.500000120000
       157    1       42.000000000000       6.000000120000       0.000000000000
       158    2       43.500000000000       7.499999880000       1.500000120000
       159    1       45.000000000000       6.000000120000       0.000000000000
       160    2       46.500000000000       7.499999880000       1.500000120000
       161    1       48.000000000000       6.000000120000       0.000000000000
       162    2       49.500000000000       7.499999880000       1.500000120000
       163    1       51.000000000000       6.000000120000       0.000000000000
       164    2       52.500000000000       7.499999880000       1.500000120000
       165    1       54.000000000000       6.000000120000       0.000000000000
       166    2       55.500000000000       7.499999880000       1.500000120000
       167    1       57.000000000000       6.000000120000       0.000000000000
       168    2       58.500000000000       7.499999880000       1.500000120000
       169    1       60.000000000000       6.000000120000       0.000000000000
       170    2       61.500000000000       7.499999880000       1.500000120000
       171    1       63.000000000000       6.000000120000       0.000000000000
       172    2       64.500000000000       7.499999880000       1.500000120000
       173    1       66.000000000000       6.000000120000       0.000000000000
       174    2       67.500000000000       7.499999880000       1.500000120000
       175    1       69.000000000000       6.000000120000       0.000000000000
       176    2       70.500000000000       7.499999880000       1.500000120000
       177    1       72.000000000000       6.000000120000       0.000000000000
       178    2       73.500000000000       7.499999880000       1.500000120000
       179    1       75.000000000000       6.000000120000       0.000000000000
       180    2       76.500000000000       7.499999880000       1.500000120000
       181    1       78.000000000000       6.000000120000       0.000000000000
       182    2       79.500000000000       7.499999880000       1.500000120000
       183    1       81.000000000000       6.000000120000       0.000000000000
       184    2       82.500000000000       7.499999880000       1.500000120000
       185    1       84.000000000000       6.000000120000       0.000000000000
       186    2       85.500000000000       7.499999880000       1.500000120000
       187    1       87.000000000000       6.000000120000       0.000000000000
       188    2       88.500000000000       7.499999880000       1.500000120000
       189    1       90.000000000000       6.000000120000       0.000000000000
       190    2       91.500000000000       7.499999880000       1.500000120000
       191    1       93.000000000000       6.000000120000       0.000000000000
       192    2       94.500000000000       7.499999880000       1.500000120000
       193    1        0.000000000000       9.000000000000       0.000000000000
       194    2        1.500000000000      10.500000120000       1.500000120000
       195    1        3.000000000000       9.000000000000       0.000000000000
       196    2        4.500000000000      10.500000120000       1.500000120000
       197    1        6.000000000000       9.000000000000       0.000000000000
       198    2        7.500000000000      10.500000120000       1.500000120000
       199    1        9.000000000000       9.000000000000       0.000000000000
       200    2       10.500000000000      10.500000120000       1.500000120000
       201    1       12.000000000000       9.000000000000       0.000000000000
       202    2       13.500000000000      10.500000120000       1.500000120000
       203    1       15.000000000000       9.000000000000       0.000000000000
       204    2       16.500000000000      10.500000120000       1.500000120000
       205    1       18.000000000000       9.000000000000       0.000000000000
       206    2       19.500000000000      10.500000120000       1.500000120000
       207    1       21.000000000000       9.000000000000       0.000000000000
       208    2       22.500000000000      10.500000120000       1.500000120000
       209    1       24.000000000000       9.000000000000       0.000000000000
       210    2       25.500000000000      10.500000120000       1.500000120000
       211    1       27.000000000000       9.000000000000       0.000000000000
       212    2       28.500000000000      10.500000120000       1.500000120000
       213    1       30.000000000000       9.000000000000       0.000000000000
       214    2       31.500000000000      10.500000120000       1.500000120000
       215    1       33.000000000000       9.000000000000       0.000000000000
       216    2       34.500000000000      10.500000120000       1.500000120000
       217    1       36.000000000000       9.000000000000       0.000000000000
       218    2       37.500000000000      10.500000120000       1.500000120000
       219    1       39.000000000000       9.000000000000       0.000000000000
       220    2       40.500000000000      10.500000120000       1.500000120000
       221    1       42.000000000000       9.000000000000       0.000000000000
       222    2       43.500000000000      10.500000120000       1.500000120000
       223    1       45.000000000000       9.000000000000       0.000000000000
       224    2       46.500000000000      10.500000120000       1.500000120000
       225    1       48.000000000000       9.000000000000       0.000000000000
       226    2       49.500000000000      10.500000120000       1.500000120000
       227    1       51.000000000000       9.000000000000       0.000000000000
       228    2       52.500000000000      10.500000120000       1.500000120000
       229    1       54.000000000000       9.000000000000       0.000000000000
       230    2       55.500000000000      10.500000120000       1.500000120000
       231    1       57.000000000000       9.000000000000       0.000000000000
       232    2       58.500000000000      10.500000120000       1.500000120000
       233    1       60.000000000000       9.000000000000       0.000000000000
       234    2       61.500000000000      10.500000120000       1.500000120000
       235    1       63.000000000000       9.000000000000       0.000000000000
       236    2       64.500000000000      10.500000120000       1.500000120000
       237    1       66.000000000000       9.000000000000       0.000000000000
       238    2       67.500000000000      10.500000120000       1.500000120000
       239    1       69.000000000000       9.000000000000       0.000000000000
       240    2       70.500000000000      10.500000120000       1.500000120000
       241    1       72.000000000000       9.000000000000       0.000000000000
       242    2       73.500000000000      10.500000120000       1.500000120000
       243    1       75.000000000000       9.000000000000       0.000000000000
       244    2       76.500000000000      10.500000120000       1.500000120000
       245    1       78.000000000000       9.000000000000       0.000000000000
       246    2       79.500000000000      10.500000120000       1.500000120000
       247    1       81.000000000000       9.000000000000       0.000000000000
       248    2       82.500000000000      10.500000120000       1.500000120000
       249    1       84.000000000000       9.000000000000       0.000000000000
       250    2       85.500000000000      10.500000120000       1.500000120000
       251    1       87.000000000000       9.000000000000       0.000000000000
       252    2       88.500000000000      10.500000120000       1.500000120000
       253    1       90.000000000000       9.000000000000       0.000000000000
       254    2       91.500000000000      10.500000120000       1.500000120000
       255    1       93.000000000000       9.000000000000       0.000000000000
       256    2       94.500000000000      10.500000120000       1.500000120000
       257    1        0.000000000000      11.999999880000       0.000000000000
       258    2        1.500000000000      13.500000000000       1.500000120000
       259    1        3.000000000000      11.999999880000       0.000000000000
       260    2        4.500000000000      13.500000000000       1.500000120000
       261    1        6.000000000000      11.999999880000       0.000000000000
       262    2        7.500000000000      13.500000000000       1.500000120000
       263    1        9.000000000000      11.999999880000       0.000000000000
       264    2       10.500000000000      13.500000000000       1.500000120000
       265    1       12.000000000000      11.999999880000       0.000000000000
       266    2       13.500000000000      13.500000000000       1.500000120000
       267    1       15.000000000000      11.999999880000       0.000000000000
       268    2       16.500000000000      13.500000000000       1.500000120000
       269    1       18.000000000000      11.999999880000       0.000000000000
       270    2       19.500000000000      13.500000000000       1.500000120000
       271    1       21.000000000000      11.999999880000       0.000000000000
       272    2       22.500000000000      13.500000000000       1.500000120000
       273    1       24.000000000000      11.999999880000       0.000000000000
       274    2       25.500000000000      13.500000000000       1.500000120000
       275    1       27.000000000000      11.999999880000       0.000000000000
       276    2       28.500000000000      13.500000000000       1.500000120000
       277    1       30.000000000000      11.999999880000       0.000000000000
       278    2       31.500000000000      13.500000000000       1.500000120000
       279    1       33.000000000000      11.999999880000       0.000000000000
       280    2       34.500000000000      13.500000000000       1.500000120000
       281    1       36.000000000000      11.999999880000       0.000000000000
       282    2       37.500000000000      13.500000000000       1.500000120000
       283    1       39.000000000000      11.999999880000       0.000000000000
       284    2       40.500000000000      13.500000000000       1.500000120000
       285    1       42.000000000000      11.999999880000       0.000000000000
       286    2       43.500000000000      13.500000000000       1.500000120000
       287    1       45.000000000000      11.999999880000       0.000000000000
       288    2       46.500000000000      13.500000000000       1.500000120000
       289    1       48.000000000000      11.999999880000       0.000000000000
       290    2       49.500000000000      13.500000000000       1.500000120000
       291    1       51.000000000000      11.999999880000       0.000000000000
       292    2       52.500000000000      13.500000000000       1.500000120000
       293    1       54.000000000000      11.999999880000       0.000000000000
       294    2       55.500000000000      13.500000000000       1.500000120000
       295    1       57.000000000000      11.999999880000       0.000000000000
       296    2       58.500000000000      13.500000000000       1.500000120000
       297    1       60.000000000000      11.999999880000       0.000000000000
       298    2       61.500000000000      13.500000000000       1.500000120000
       299    1       63.000000000000      11.999999880000       0.000000000000
       300    2       64.500000000000      13.500000000000       1.500000120000
       301    1       66.000000000000      11.999999880000       0.000000000000
       302    2       67.500000000000      13.500000000000       1.500000120000
       303    1       69.000000000000      11.999999880000       0.000000000000
       304    2       70.500000000000      13.500000000000       1.500000120000
       305    1       72.000000000000      11.999999880000       0.000000000000
       306    2       73.500000000000      13.500000000000       1.500000120000
       307    1       75.000000000000      11.999999880000       0.000000000000
       308    2       76.500000000000      13.500000000000       1.500000120000
       309    1       78.000000000000      11.999999880000       0.000000000000
       310    2       79.500000000000      13.500000000000       1.500000120000
       311    1       81.000000000000      11.999999880000       0.000000000000
       312    2       82.500000000000      13.500000000000       1.500000120000
       313    1       84.000000000000      11.999999880000       0.000000000000
       314    2       85.500000000000      13.500000000000       1.500000120000
       315    1       87.000000000000      11.999999880000       0.000000000000
       316    2       88.500000000000      13.500000000000       1.500000120000
       317    1       90.000000000000      11.999999880000       0.000000000000
       318    2       91.500000000000      13.500000000000       1.500000120000
       319    1       93.000000000000      11.999999880000       0.000000000000
       320    2       94.500000000000      13.500000000000       1.500000120000
       321    1        0.000000000000      15.000000120000       0.000000000000
       322    2        1.500000000000      16.499999880000       1.500000120000
       323    1        3.000000000000      15.000000120000       0.000000000000
       324    2        4.500000000000      16.499999880000       1.500000120000
       325    1        6.000000000000      15.000000120000       0.000000000000
       326    2        7.500000000000      16.499999880000       1.500000120000
       327    1        9.000000000000      15.000000120000       0.000000000000
       328    2       10.500000000000      16.499999880000       1.500000120000
       329    1       12.000000000000      15.000000120000       0.000000000000
       330    2       13.500000000000      16.499999880000       1.500000120000
       331    1       15.000000000000      15.000000120000       0.000000000000
       332    2       16.500000000000      16.499999880000       1.500000120000
       333    1       18.000000000000      15.000000120000       0.000000000000
       334    2       19.500000000000      16.499999880000       1.500000120000
       335    1       21.000000000000      15.000000120000       0.000000000000
       336    2       22.500000000000      16.499999880000       1.500000120000
       337    1       24.000000000000      15.000000120000       0.000000000000
       338    2       25.500000000000      16.499999880000       1.500000120000
       339    1       27.000000000000      15.000000120000       0.000000000000
       340    2       28.500000000000      16.499999880000       1.500000120000
       341    1       30.000000000000      15.000000120000       0.000000000000
       342    2       31.500000000000      16.499999880000       1.500000120000
       343    1       33.000000000000      15.000000120000       0.000000000000
       344    2       34.500000000000      16.499999880000       1.500000120000
       345    1       36.000000000000      15.000000120000       0.000000000000
       346    2       37.500000000000      16.499999880000       1.500000120000
       347    1       39.000000000000      15.000000120000       0.000000000000
       348    2       40.500000000000      16.499999880000       1.500000120000
       349    1       42.000000000000      15.000000120000       0.000000000000
       350    2       43.500000000000      16.499999880000       1.500000120000
       351    1       45.000000000000      15.000000120000       0.000000000000
       352    2       46.500000000000      16.499999880000       1.500000120000
       353    1       48.000000000000      15.000000120000       0.000000000000
       354    2       49.500000000000      16.499999880000       1.500000120000
       355    1       51.000000000000      15.000000120000       0.000000000000
       356    2       52.500000000000      16.499999880000       1.500000120000
       357    1       54.000000000000      15.000000120000       0.000000000000
       358    2       55.500000000000      16.499999880000       1.500000120000
       359    1       57.000000000000      15.000000120000       0.000000000000
       360    2       58.500000000000      16.499999880000       1.500000120000
       361    1       60.000000000000      15.000000120000       0.000000000000
       362    2       61.500000000000      16.499999880000       1.500000120000
       363    1       63.000000000000      15.000000120000       0.000000000000
       364    2       64.500000000000      16.499999880000       1.500000120000
       365    1       66.000000000000      15.000000120000       0.000000000000
       366    2       67.500000000000      16.499999880000       1.500000120000
       367    1       69.000000000000      15.000000120000       0.000000000000
       368    2       70.500000000000      16.499999880000       1.500000120000
       369    1       72.000000000000      15.000000120000       0.000000000000
       370    2       73.500000000000      16.499999880000       1.500000120000