LAMMPS data file via write_data, version 22 Dec 2022, timestep = 70000

21952 atoms
2 atom types

-4.123111731687533 54.1231117316882 xlo xhi
-8.246223463375067 108.2462234633764 ylo yhi
-4.123111731687533 54.1231117316882 zlo zhi

Masses

1 63.546
2 91.224

Atoms # atomic

787 2 -0.8007199921184025 -5.201417583596523 -2.257920038230714 0 0 0
10252 2 -2.1340555768124503 -4.0097942827651405 0.40098120594610975 0 0 1
115 1 -3.6826265560258826 -4.94810787134776 -1.7273680815639256 0 0 0
839 2 -2.563409823787145 -7.5445646797384445 -1.3096192513371299 1 0 0
51 2 -3.8654885020640024 -6.393681481651543 -3.9259549427634686 1 0 0
791 2 0.8746540692022995 -4.837915724461377 0.5584519755394624 0 0 0
10313 1 -2.693698733339585 -3.6184769794963927 -3.8413914518105408 0 0 1
9480 1 4.02537085920612 1.2877180207151167 -4.069263424384179 0 0 1
4 2 1.3401672235306856 -7.455906632870565 -1.5749548783595282 0 0 0
847 1 1.8782421323993006 -4.725224519656867 -2.310941827486164 0 0 0
12 1 4.4778340993569525 -3.836072782779456 -2.5060459370944543 0 0 0
9 2 5.448387957979431 -7.519362369819517 -1.5835668501958104 0 0 0
3 2 3.728375876906414 -5.385578103379496 -0.36080558518339245 0 0 0
8 1 3.4030175721933436 -6.151370580901877 -3.4790449173646305 0 0 0
16 1 6.183484256363235 -4.7368396190593876 -1.168638912556737 0 0 0
72 2 8.6321404451537 -4.727634128331485 -2.51567683668985 0 0 0
854 1 10.09970405984824 -3.9937194724138045 -0.07257983676035273 0 0 0
798 2 8.014769457312573 -6.191804280479417 0.4439841477157547 0 0 0
10 2 8.486282220094246 -7.891266439079859 -2.2529869634767286 0 0 0
853 1 10.482515338893169 -6.475262177256514 -0.7185237863033822 0 0 0
803 1 10.752552241912943 -6.447666799219701 -3.2279696618358433 0 0 0
13290 1 12.881860550380264 -6.977531365381244 -1.58806390368806 0 1 0
804 2 12.23577905628457 -3.8745918334406797 -1.8727273420731954 0 0 0
860 1 14.731234988704337 -4.918373951604559 -1.9954294582450265 0 0 0
13289 1 12.471743321752893 -5.352117520418217 0.4120803258891792 0 1 0
802 2 15.01863399659684 -6.586051165801509 0.20355377844902023 0 0 0
74 2 14.658459063160713 -3.5426648793695685 0.5305570783109772 0 0 0
10752 1 49.07907562290079 34.052322623598315 -3.8198549104907733 0 0 1
12501 2 15.279831547770318 -7.593452442611368 -2.9947139242173684 0 1 0
10220 2 17.56146707657697 -5.815917646724567 -2.0023553068976083 0 0 1
1586 1 17.894221212893868 -6.831787166897791 0.6706146328122333 0 0 0
1556 2 36.49638673356502 49.71960955499489 2.7043296336840825 0 0 0
22 2 18.06893920134487 -4.031320729216528 0.7915939604879805 0 0 0
809 1 20.041022280917588 -5.96630540708302 -0.5402371109756006 0 0 0
10219 2 22.712476594471532 -4.483663544209122 -1.2585727397156186 0 0 1
27 2 20.558053838318227 -7.7507736085783945 -3.957564306566498 0 0 0
10215 1 20.66454644826818 -5.3479330724362875 -2.9233797794002077 0 0 1
12516 1 24.531943144566554 -3.6364130550768845 -3.247179418571241 0 1 0
31 1 23.136412692870643 -6.444251204177271 -3.617208988612183 0 0 0
32 1 23.986396586506988 -7.3061040501659775 -0.46384380551853166 0 0 0
806 1 21.96498376581618 -7.32757719132363 -1.6456136549649245 0 0 0
83 1 20.832247082164468 -3.8043396834185446 0.5250748470983311 0 0 0
925 2 25.508219495250994 -6.083218153003767 -2.6276480854878432 0 0 0
814 2 26.77822290423318 -7.229488614571496 -0.3707637994019026 0 0 0
863 1 26.534496033110507 -4.11419190012675 -1.24870017956939 0 0 0
36 2 28.733651579302705 -6.151870434276212 -2.8453042639943114 0 0 0
873 2 29.38718594462105 -3.597326463966687 -1.2874314260740802 0 0 0
815 1 29.638786317783097 -6.505900737843074 -0.15661138389787554 0 0 0
21927 1 33.18911783833349 -7.684581424825923 -1.212231973919753 0 1 1
818 2 31.742903816050795 -5.335567604768962 -1.457172109338515 0 0 0
91 2 34.18342006706868 -6.342246303863843 -3.4473100392957363 0 0 0
90 1 34.33247627373963 -3.861227005347245 -3.111528196260962 0 0 0
828 1 34.22898983913949 -5.107482531473476 -0.5969871944790532 0 0 0
10232 1 36.54074751387367 -5.233930108128465 -2.2252359086127615 0 0 1
881 2 38.38896464347634 -6.589197445473201 -0.3412539968404418 0 0 0
827 1 38.203756815511596 -3.7985817703517952 -0.4113569830586776 0 0 0
829 2 39.47281509504357 -5.341707638539903 -2.943729030508587 0 0 0
882 1 36.2934845614477 -4.9925976749050465 0.49500823947413153 0 0 0
41 2 37.269010517676634 -7.531060007988314 -3.8808840712595267 0 0 0
43 2 35.45313412447025 -2.899464708617927 -0.9686106593642867 0 0 0
39 2 35.5941517656849 -7.721379271421083 -1.060253027900898 0 0 0
52 2 42.56145427781793 -3.9993786904362567 -2.8074781396132784 0 0 0
10244 1 43.32394603446269 -5.96535497973705 -0.989736746350582 0 0 1
21940 2 42.53741128470055 -7.102771918354565 -3.4545584934905866 0 1 1
11746 2 41.04209332546937 -7.685871350341687 -0.6768786718817457 0 1 0
824 1 40.660671489910115 -4.926762064857606 -0.502449393318738 0 0 0
837 1 44.73724523805424 -5.444817730992017 -3.5126055867248898 0 0 0
11696 2 45.91490959986466 -7.185348635140437 -1.813589832958654 0 1 0
56 2 47.74999631165997 -4.643014625111654 -1.6570035916695067 0 0 0
1673 1 48.5222470198071 -6.7728317849772 -0.17192867584635874 0 0 0
12534 1 48.6517672908805 -7.101101452596598 -3.030731185067123 0 1 0
1614 1 45.030440583668906 -4.323100445248238 -1.285770138616197 0 0 0
835 1 46.4153594371637 -3.562343678614811 -3.60294548163266 0 0 0
14076 2 16.984386740574447 -8.237552791467607 8.902631063833761 0 1 0
111 1 50.31206529958611 -5.504738657742244 -1.787214556201672 0 0 0
840 1 52.64545462945931 -6.379132360185478 -1.5885638824086872 0 0 0
1570 2 52.350632805044725 -4.057965555298864 -0.18169407457704523 -1 0 0
57 2 52.38981031860662 -3.942464396252851 -3.438316241666751 -1 0 0
1 1 53.87822980945805 -6.565715130800927 0.5738287951440064 -1 0 0
54 1 51.346044107968424 -6.438916860918331 -3.9350059643743593 0 0 0
786 1 -0.6943040876423381 -2.5843449844350896 -1.533078516167774 0 0 0
901 2 -1.9304266831923091 -0.5261568438255262 0.24080576568345613 0 0 0
955 2 -3.732171533484041 -1.9587308072156322 -1.972869003252962 0 0 0
117 2 -1.2618462610777286 -0.815730280383594 -3.546048352540906 0 0 0
849 1 0.38110809209501717 -0.39760811488233205 -1.2890166482550134 0 0 0
850 1 0.6336335391152046 1.571846732431192 -2.853234121755163 0 0 0
59 1 0.2001267698471123 -3.3023113997481053 -3.9129145565728525 0 0 0
3155 2 14.588104596869414 -8.130490690466736 14.9665279106747 0 0 0
790 2 2.3224378844028246 -2.4865538218448027 -1.3061666138966546 0 0 0
63 1 4.137697046409613 -1.3284773167159232 -3.2512302822941095 0 0 0
62 2 3.109714749101615 0.9102703439962934 -1.7387842560588584 0 0 0
1633 2 5.337634439395021 -1.8713497669132222 -0.5142208592410702 0 0 0
10260 1 1.7293016765540532 -0.7427108201764394 -3.6357567423365738 0 0 1
846 1 5.6131161900053055 0.8823529845391533 0.024849490914720107 0 0 0
794 1 7.932511448877246 -2.9403240890044717 -0.34213488338796205 0 0 0
68 1 5.836597723986136 0.3220904160414051 -2.4468107582544034 0 0 0
851 1 7.917033033670949 -0.5160377473961084 -1.0718058890272464 0 0 0
855 1 9.46625944600459 1.096390830774073 0.47574812410399936 0 0 0
66 2 7.018700251640142 -2.2544093278852806 -3.210290723696313 0 0 0
129 2 10.399572983015661 0.38007401212928293 -2.027437288763188 0 0 0
67 1 9.855498343946277 -2.4005461302174593 -2.0786624010325108 0 0 0
127 1 9.876483880271048 -1.441350470880181 0.28104130937625005 0 0 0
1549 2 37.00798359751508 44.465950386647314 -4.01078873952709 0 0 0
10320 1 11.933100113090376 -1.7142629673837195 -3.7575713034028895 0 0 1
801 1 12.181447773586306 -1.485095423107186 -0.7421595048058163 0 0 0
10266 2 13.446418035311016 0.4668422935591128 -2.6920334727970405 0 0 1
70 1 12.096784745744234 0.9313503681409241 -0.09436200564032582 0 0 0
75 1 14.804530898047108 -1.5829631955783245 -1.368249349186153 0 0 0
857 2 14.552054875915228 -2.718090401300527 -3.7534835858447018 0 0 0
10325 1 17.999165103548158 -0.9541984492790752 -1.7221139818224334 0 0 1
10271 1 16.631295139044262 -3.3382345527899746 -1.7324656004907837 0 0 1
25 2 19.870857058990794 -3.2196042179553626 -1.6906120633309034 0 0 0
136 2 16.173951758808222 1.0682402992346969 -0.8186546784952271 0 0 0
10270 1 16.11931105314161 -0.21447129363647122 -3.5246970843974097 0 0 1
10327 2 18.229733385615965 1.3801256095737546 -3.2322271745974627 0 0 1
26 1 19.93005313576152 -0.964948548969093 -3.4534544735113175 0 0 0
864 1 16.67350268832848 -1.5631418055325046 0.38111413421282414 0 0 0
10269 2 17.520403893817353 -2.5997402911597867 -4.057079681442342 0 0 1
80 1 20.52042725797161 -0.15191879269988462 -1.331572682275454 0 0 0
866 1 22.128365383765004 -1.7670322430586038 -0.1038821854672598 0 0 0
868 2 23.85382527903552 0.9072655251144983 -1.1724665763092523 0 0 0
10331 2 22.473603676751956 -1.8898129304199855 -3.2199757456542173 0 0 1
82 2 24.83665878457876 -2.1251507815650257 -0.8150329286442481 0 0 0
29 1 24.673404239180034 -0.501902948500776 -3.3143662325124934 0 0 0
79 2 21.795801784673387 1.3843715377699706 -3.159633189537705 0 0 0
1705 1 21.665931264101815 0.8398897416238569 0.35997440074752607 0 0 0
96 2 27.00703418944832 -2.330885450124537 -3.205740393924989 0 0 0
148 2 26.905362404705674 0.8323868192162394 -2.1982785469604105 0 0 0
1597 1 27.56669347411419 -1.792362020692921 -0.3425896846722658 0 0 0
929 1 29.32124876413106 -0.828475965855966 -1.864167337477845 0 0 0
88 1 25.83991204923447 0.239728359053764 0.5037657011577341 0 0 0
1653 2 28.50035811372972 0.7550893208573264 0.5622728940403121 0 0 0
93 1 32.651641218385066 -2.7993874433312174 -0.18495070012547954 0 0 0
878 2 31.615475196708953 -0.12678073046848404 -0.49006445558432166 0 0 0
145 2 31.641342031917898 -2.7155134209224165 -3.140979090287529 0 0 0
147 1 31.624260588984054 0.24655502519241423 -3.2583265780834245 0 0 0
1719 1 34.63497664268205 -1.0753829442079494 0.5789760805337725 0 0 0
152 2 33.89107857646732 -1.0983776179692697 -2.3946699332460764 0 0 0
100 2 37.3247030930235 -0.4270449555279674 -0.1552367241829562 0 0 0
10230 2 37.71429215384303 -2.6749533873930984 -3.1203617004089916 0 0 1
993 1 34.99534096137897 0.8178315531870286 -1.1768155664435662 0 0 0
155 1 39.20937110073662 1.5010138591226738 0.2212702802320905 0 0 0
97 1 36.588178128587074 -0.26462262351537547 -2.84129627404926 0 0 0
98 2 39.45735040648512 0.24689877689235296 -2.6471401386716584 0 0 0
883 2 42.694951910712916 -3.145220474238772 0.15941026819560022 0 0 0
45 1 40.14718872750335 -2.8059033692026905 -1.7459671414275393 0 0 0
48 1 41.82173866150971 -1.2989253416443258 -1.9678258587390873 0 0 0
102 2 41.77939203263442 1.0984676747812898 -0.551986148721475 0 0 0
10346 2 42.28239637424642 1.181075992108802 -3.5649542690668152 0 0 1
1663 2 40.11364527915373 -1.3287506260296924 0.48376011806771846 0 0 0
10287 1 44.4236290873785 1.0667305650407997 -1.6204827300027764 0 0 1
832 2 44.67093703600004 -1.5685825471472432 -2.296311448082628 0 0 0
1618 1 47.362768587104284 -1.7600984848591912 -2.1446849798245653 0 0 0
163 2 46.17988106509452 0.5815928650217472 0.05743229029487562 0 0 0
112 2 48.62736949578944 0.5562661451204995 -1.9825826975124512 0 0 0
885 2 46.255715389042805 -2.51993195450312 0.3468556030981196 0 0 0
166 2 49.057937539540774 -1.1750244557814336 0.555282463143139 0 0 0
1624 1 48.44686374156002 1.457828224323805 0.9339788713012052 0 0 0
58 1 53.731313470831566 0.5070276602235815 -1.6911934795942933 -1 0 0
893 2 50.02666741737599 -2.491538418451194 -2.004782037114719 0 0 0
895 2 52.047712719385515 -1.1650877676883766 -0.10264071334333114 0 0 0
109 2 51.741147407679236 -0.4582122859410278 -3.19815176752497 0 0 0
10311 2 -2.0029427696744198 1.6922715312060088 -2.0268746389826418 0 0 1
10367 1 -0.22220674139116703 4.181845909210239 -0.9154217910473559 0 0 1
10312 1 -2.3360871059232236 4.460307610682943 -1.909769915830561 0 0 1
10316 2 -0.03289849660112942 3.958698303608637 -3.5976779386995497 0 0 1
119 2 0.4568579934092307 1.8501661537044072 0.23139518862969854 0 0 0
173 1 -0.5295666045491507 6.28348993861419 -2.5962446149586107 0 0 0
10306 1 -3.3329798805124873 3.4127322218276035 -3.8575386277811954 0 0 1
175 1 1.9490595243104503 3.5930780560070588 -1.3138888975728644 0 0 0
179 2 4.809514784550315 3.503603835204201 -2.0443917680581203 0 0 0
900 1 3.621671692966281 2.575342334877895 0.3574793985758751 0 0 0
184 1 3.458238291116813 5.346841610617746 -0.43551647305766883 0 0 0
174 2 2.6207521073503077 5.85667867884124 -2.9581868623196863 0 0 0
124 1 2.7599003737056593 3.3284133378027576 -3.7678403480706226 0 0 0
856 1 6.172676836969893 4.969787287371055 -0.17791476277516471 0 0 0
909 2 7.577886035000368 2.1587785553163545 -1.3933659383371455 0 0 0
1690 2 7.58296688920796 5.0339706128396156 -2.5573437568863056 0 0 0
1694 1 8.660039756241506 4.675969154492588 0.05652457196072369 0 0 0
916 1 10.109354274823405 5.088307148376547 -3.4132379477069916 0 0 0
125 1 9.61554883162754 2.6342809873942805 -3.3215298175720065 0 0 0
76 2 10.621838559207472 3.2367183117719307 -1.0575525511431647 0 0 0
910 2 13.747326308372976 3.187971789800212 -0.4410524137428369 0 0 0
1696 1 11.395302622222161 5.14306208211986 0.41501232005042343 0 0 0
185 2 12.489654914287645 5.902264216233668 -1.8270641768284661 0 0 0
969 1 14.6326551757051 5.817460415038488 -0.3300578091436073 0 0 0
10272 1 15.389188769492044 2.3674465299740355 -2.951716887211928 0 0 1
132 2 12.777513728285623 3.542876640447311 -3.4058829081684974 0 0 0
131 2 15.482809758884084 5.407359603164858 -3.0647747164236243 0 0 0
914 1 17.458268403911482 3.6130802297994187 -2.0230167117902615 0 0 0
135 2 18.918635572395818 1.920448855741876 0.1797658427830866 0 0 0
973 2 16.765547014118805 4.076952276279259 0.532200408938599 0 0 0
251 1 19.91691612871553 3.3487347524023097 -2.2396232014574533 0 0 0
1031 1 19.402173985458578 4.876537094470647 -0.023869824245736915 0 0 0
974 2 19.011153694126033 5.974237785891891 -2.9599663340407467 0 0 0
1030 1 17.327390543279225 6.165541251661679 -0.9879384565269484 0 0 0
196 2 24.11680529100206 4.214176112417633 -2.2857138525132075 0 0 0
10385 1 21.32605302253366 5.710081948268142 -1.7836791755260855 0 0 1
919 2 21.7518870904744 3.39459800277972 -0.2812166555151032 0 0 0
1768 1 21.74507459922298 6.4599256409168735 0.5034004845324889 0 0 0
191 1 21.66765302779183 4.187208448656733 -3.736875609557471 0 0 0
1706 2 25.770113179505007 3.0475379416122212 -0.07946428333227651 0 0 0
923 2 27.25757665449259 4.108711397850524 -2.7576569215097955 0 0 0
1710 1 28.52236098352756 3.5047478736912243 -0.14485588631375101 0 0 0
10391 1 28.694607079980653 5.989686155809254 -0.8380859268819987 0 0 1
149 2 29.70623566865004 2.039589968622465 -2.246606922050794 0 0 0
922 1 26.093980075639966 6.126481690925235 -1.241745443546733 0 0 0
201 1 30.151422666099453 4.232764957823505 -3.818984356423908 0 0 0
933 2 32.78807775375712 2.603556927342648 -1.8970743580029588 0 0 0
205 1 30.857226527734706 4.518416982167439 -1.3505445804727523 0 0 0
146 2 33.241259372747294 6.055644837546096 -1.5681942170391374 0 0 0
822 1 31.00530085171258 2.451252664158467 0.32694355968615607 0 0 0
1670 2 36.99055118068654 2.329893969796686 -2.3927013983349026 0 0 0
151 1 35.03871589383681 3.305767827466381 -0.6570684917155662 0 0 0
1721 1 38.14484597231312 3.535739510832782 -0.30240388986790556 0 0 0
1718 1 38.59541261359007 5.832844021446354 -1.3317694029612825 0 0 0
994 2 36.027567801193484 5.18916117600258 -2.3293033756128043 0 0 0
989 2 36.33251549840777 5.076072021223387 0.8620464699699273 0 0 0
995 1 39.514086388932 5.652652236254003 0.9420530900191171 0 0 0
10405 2 43.78946392224417 3.602199609974628 -2.0359971546315503 0 0 1
937 2 40.22992452992705 3.345757922946918 -1.8646856628252606 0 0 0
211 2 42.02385489950039 5.621851924601685 -0.2218836703954743 0 0 0
10406 1 42.959240896263424 6.051431326590306 -2.8075569711664747 0 0 1
943 1 40.84635658361837 3.336426470579605 0.7972272214914877 0 0 0
14937 2 40.15886143017218 49.671958801356276 15.534995027860699 0 0 0
213 1 45.1490161696386 5.092430997731546 -0.4033935748833679 0 0 0
215 2 48.86691983082754 5.556819373108924 -3.19998343686173 0 0 0
158 2 46.95129150946133 3.1263474474330746 -1.6576918648805448 0 0 0
10407 2 45.67229774796118 5.227970228497396 -3.624957951469393 0 0 1
164 2 49.28570391543515 4.015735905116834 0.19487776176370897 0 0 0
60 2 51.10320010460015 1.6641666632071743 -0.6132239583443413 -1 0 0
950 1 53.98266959243091 5.253628167173721 -0.028126224708583614 0 0 0
114 1 53.68863698944851 2.9722987606419284 -1.1102002860426499 -1 0 0
217 1 51.55842615405048 4.514954766814574 -1.3196448869696575 0 0 0
113 2 53.79987012403947 5.827972536301704 -2.437907187779068 -1 0 0
110 1 49.68183036257933 3.0688498508611257 -2.4801092687518387 0 0 0
169 2 52.28341381331836 2.6380526464855247 -3.610391530301581 -1 0 0
1009 1 -1.9942256353982728 6.300282885454614 -0.054794382090431526 0 0 0
176 1 -1.170738972258405 8.606672940062701 -0.9874623493845078 0 0 0
223 1 -2.8778156537560395 7.829529383752213 -2.8167190299236107 1 0 0
278 2 -3.0945436161696875 10.468067581354347 -2.322280248871242 1 0 0
957 2 0.10448871356095779 10.90905789219508 -1.8486511338126101 0 0 0
1071 1 0.5784728707984144 9.275651611945012 0.510456588868986 0 0 0
953 2 -3.844133282195873 8.155120102439557 -0.07311348506403537 0 0 0
230 2 -1.9249065057230323 10.821342224831099 0.4785672738915121 0 0 0
3960 2 26.771875613414792 -8.065656111591178 19.802453288921775 0 0 0
1742 2 0.750201280012341 6.60563092388977 -0.26738928286563457 0 0 0
1015 1 0.9434484355710682 8.292234918983592 -2.5605382462054314 0 0 0
906 1 5.038881276322268 6.75545725211291 -2.5451722551166034 0 0 0
964 2 3.271059435461966 8.340179542563185 -0.9525738231803196 0 0 0
1018 1 2.7839407593894174 10.560924121721222 -2.5685257903992147 0 0 0
235 2 5.514226060880478 9.930372940230082 -2.619041933865157 0 0 0
1017 1 4.796307754250433 9.995585169441135 0.28866816241671955 0 0 0
2581 1 2.3527743775823744 11.002322174683524 0.06798472092878516 0 0 0
10424 1 3.1883523557478037 8.402412531250661 -3.8980118259888576 0 0 1
963 2 6.819397338036266 7.756465820325378 -0.5762564194771493 0 0 0
240 2 8.568089829961911 9.894883417604625 -2.5175786317532065 0 0 0
965 2 9.71836654823363 7.065332423803509 -0.9745778730483154 0 0 0
968 1 7.702305020924056 7.6425986023905885 -3.2640103274216745 0 0 0
967 2 7.426014409144374 10.770348741779767 -0.021350629364371265 0 0 0
1025 2 10.757578659151854 9.957926561068781 -0.27888059632567197 0 0 0
1028 1 11.848355059504723 8.501698617936427 -2.153306109645837 0 0 0
970 2 12.864149692220785 7.840043693210731 0.32012031692840637 0 0 0
247 1 14.377588414166812 8.041769023482214 -2.591906147374349 0 0 0
239 1 11.18418382420354 10.622560466416918 -2.9055358556500543 0 0 0
1081 2 13.713374613077296 10.689943712287377 -1.275407595722907 0 0 0
187 2 15.73423932621986 8.423357731916525 -0.26568962283309316 0 0 0
1026 2 16.33692835505774 10.354130022291024 -3.1031364567941564 0 0 0
977 1 17.02834560031646 7.769066759540429 -2.956144120400907 0 0 0
1089 1 17.896922158478258 10.053565809747145 -1.010892827955054 0 0 0
1085 1 19.097694240974622 9.209755270017265 -3.135929344946219 0 0 0
978 2 19.57167089794997 7.891940085851548 -0.4265550670119924 0 0 0
1087 1 20.514497305198653 10.402278445633744 -1.2731976361122546 0 0 0
1034 1 21.28124916176132 8.248658853496092 -2.3605859220752525 0 0 0
194 2 23.506951869128518 7.2681660496493325 -1.5787205522155405 0 0 0
192 2 23.179530387213095 10.6451276574968 -2.027847436396121 0 0 0
1035 2 22.311779546914355 9.324454174633313 0.6210800425673018 0 0 0
253 1 23.719581437882038 8.783438563217238 -3.8235569391741686 0 0 0
10499 1 25.50139569857603 9.094658376740448 -1.952063060150913 0 0 1
200 2 27.762012037108175 7.958983180867914 -2.7110433085455243 0 0 0
10452 2 27.518059958553227 11.171739110391616 -1.723581742950683 0 0 1
1044 2 28.081656840978997 8.67610455046636 0.1478877743459197 0 0 0
1094 2 25.23160475711584 10.967192765423988 0.2125715574220477 0 0 0
1037 2 25.12897554498449 8.187648438965489 0.8908913463653256 0 0 0
1098 1 29.042738810601566 10.64205162408603 -3.833141795196222 0 0 0
204 1 29.971066608216237 9.712819181009614 -1.8159228316935363 0 0 0
982 2 30.622350384903438 6.874379131035656 -2.7783447898684095 0 0 0
255 2 31.01817765025471 7.682667918587596 0.3835642791656779 0 0 0
1709 1 32.59652760399666 8.837693002250742 -1.7240069415083141 0 0 0
1893 1 31.5207886752618 10.158060826016495 -0.04153338657453709 0 0 0
264 2 34.491716379660716 10.349950320134894 -0.2720472616306253 0 0 0
1101 1 34.49378106386578 10.2199445024998 -3.1507149591699948 0 0 0
210 1 37.56130310200547 7.348120710547988 -3.2927239808135065 0 0 0
156 1 35.254465581419936 7.929791065302407 -2.0202396755745546 0 0 0
1051 2 37.342561119244266 7.877610589458339 0.09924150343952576 0 0 0
268 2 37.159579625392126 9.819779877163029 -2.3422484629137283 0 0 0
261 1 37.076433522746214 10.722814530287163 0.33630783939138276 0 0 0
212 2 40.312758157928315 6.778850173416743 -3.054165135381634 0 0 0
938 2 42.218093271359066 9.048724096659583 -2.839471969609178 0 0 0
216 1 39.863037229336186 10.15333214021398 -2.0607054414386137 0 0 0
997 2 40.44243136853578 8.096288259777257 -0.30229134453826045 0 0 0
220 2 42.72763057478397 10.71936784371125 -0.3368570415982175 0 0 0
998 1 43.10700739655864 8.16040010189634 0.5300723469392628 0 0 0
13334 2 1.7290571548119438 49.926540170785245 8.574325137693407 0 0 0
269 2 44.948757074906226 7.518021862276289 -1.2475444204925576 0 0 0
894 1 47.338608859773515 6.047728112921838 -1.1305356716146382 0 0 0
10352 1 46.98726459504077 7.649951274833892 -3.4478831936442935 0 0 1
10412 2 45.40481888729451 9.923342294721756 -3.0312102107282852 0 0 1
1061 2 47.87248828270954 8.935352907771247 -1.1874443784583675 0 0 0
1060 1 45.38694373817003 10.391064709774124 -0.3529441801212072 0 0 0
942 1 50.12284645328039 8.110045698995773 -3.530721589225868 0 0 0
1005 2 50.263816117866 6.995971219291585 -0.7670635308348057 0 0 0
224 2 50.6893342191988 10.357275660821053 -1.7558145752644978 0 0 0
218 1 52.751732974032294 8.65161591542805 -2.0302946447259362 0 0 0
225 1 53.33356899209039 10.6872379189004 -0.19470008405439287 -1 0 0
1785 1 49.42166537649382 10.682256874095867 0.6590300827837217 0 0 0
221 1 51.41270617896289 5.907339880004452 -3.453363477873155 0 0 0
291 1 -2.2724039958248867 12.871254675990375 -1.322933036282294 0 0 0
284 2 -3.369225062085393 15.051498162267858 -3.0240191509226246 0 0 0
232 2 -0.3888340145648823 13.994569867873448 -2.613332466574786 0 0 0
1797 1 0.10770532573520075 12.922156405086398 0.005313662567065336 0 0 0
285 2 -1.7281302567951586 15.20520451648347 -0.09353706577711485 0 0 0
10475 1 1.5613628180318537 12.57549797538578 -4.05713802097175 0 0 1
236 2 4.155500368734273 13.04493804051 -3.4915249036676372 0 0 0
1073 1 1.9925166975324693 13.014155338307994 -1.6774726435973517 0 0 0
10484 2 2.0779785136187865 15.517804634449405 -3.5337567913980417 0 0 1
172 1 1.1929683717946036 15.186467024221201 -0.6374823178363722 0 0 0
296 2 4.801678361931803 12.339183933502532 -0.5468580051772536 0 0 0
292 1 3.6229233502486355 14.923346348818587 -1.3770668362117444 0 0 0
10482 1 5.861198408196506 14.829094795024723 -1.1263185263538564 0 0 1
290 2 6.086380360093294 15.791623931481343 -3.736147170947642 0 0 0
10488 2 9.934221034516135 15.051700173178904 -3.5940008123619727 0 0 1
10487 2 7.23359635214034 12.878211887077295 -2.648146357237276 0 0 1
1130 1 8.187409264485758 15.179836354284461 -1.3325622945349327 0 0 0
1133 1 7.390988191461565 13.563786293705636 0.34395670849494486 0 0 0
293 2 9.895487491116588 12.776305734658319 -1.199247473875626 0 0 0
10328 1 14.543894493969074 12.213796242332918 -3.821874044491687 0 0 1
295 2 12.28265261267574 13.064023109141019 -2.802721342643334 0 0 0
300 1 12.093382586733497 15.63190434638841 -1.9598381928888449 0 0 0
1139 2 13.895156945777128 14.339925206499512 -0.6470818944406354 0 0 0
360 1 15.137275438739852 14.63433142320445 -3.527410587079335 0 0 0
1135 2 11.333015354857624 14.525821666502807 0.7862392566037615 0 0 0
1029 1 16.036572823158945 11.18859405563327 0.0728863361608072 0 0 0
304 2 18.472141340358316 12.736890945485491 -0.76829349469471 0 0 0
1137 1 15.776624146039495 12.700191965737215 -1.84306306971272 0 0 0
10500 2 19.70620425054266 14.427953395802849 -3.3853983327276334 0 0 1
299 2 17.36307385352401 15.467756353449392 -1.8387670190429448 0 0 0
308 1 17.183939425718812 13.257188185224365 -3.6871117280925954 0 0 0
1082 1 16.376142004342263 13.920609411000555 0.3448973997535374 0 0 0
1926 1 20.053364745526732 15.469406460468644 -0.844885173610685 0 0 0
245 1 19.38186427689902 11.761196121868405 -3.121206846789674 0 0 0
10446 1 23.969136706354323 13.019071821305637 -0.7228770980380048 0 0 1
359 2 21.330763878659198 13.14249443105954 -0.7636052234805346 0 0 0
10494 1 22.572209318137745 13.28349542788968 -3.315579090985199 0 0 1
364 2 23.155879639708 15.70043453058857 -1.3489817409946654 0 0 0
1193 1 18.306581162665328 21.576876962169077 -4.022026329987035 0 0 0
10555 2 25.34237612824217 12.77943152632719 -3.1422624135946076 0 0 1
1937 2 26.716173996780345 13.829298381172542 -0.4772504944172722 0 0 0
1099 2 29.294476113500803 13.299510658843591 -2.7387920845237357 0 0 0
1093 1 28.744491183694745 15.677010841447359 -1.3977163461743944 0 0 0
1209 1 25.92391263029998 16.158927362414556 -2.0958413325180767 0 0 0
423 2 27.332963720960556 15.158057293359487 -4.062873495794921 0 0 0
371 1 29.839143505116315 12.081937197431412 -0.3476283984720143 0 0 0
1042 2 32.268945542812006 11.947172297311369 -2.0715262064893016 0 0 0
1155 1 33.73003001802172 13.371818953285608 -0.16534155436384346 0 0 0
368 2 31.362906492545992 14.931460287285336 -0.5337701439107607 0 0 0
10623 2 34.2908244513838 15.570979603049473 -1.8118052505305147 0 0 1
429 2 31.76609493857462 14.87317967276547 -3.4024264968614526 0 0 0
10460 2 35.6869544178485 12.575989273518626 -2.0207064646548147 0 0 1
272 1 38.243544413706985 12.670711960389873 -1.0525877042207403 0 0 0
324 1 38.933770831020084 14.497288986168876 -2.5146417823929124 0 0 0
10519 1 38.50739287126861 12.011793135437198 -3.3924884485673377 0 0 1
1103 1 36.98924131771251 15.012295059470404 -1.441666672364493 0 0 0
323 2 39.60230765094538 14.598079029898397 0.13464379432395646 0 0 0
10461 1 42.95756061766923 11.482429889440894 -3.496212628717107 0 0 1
271 2 41.078458988363266 12.817811217968227 -2.058777353762782 0 0 0
1109 2 42.767700402722696 14.891539546546042 -0.4985829164663875 0 0 0
1115 1 43.00792762577716 14.325914502037087 -3.5646875431821394 0 0 0
1110 1 41.023541096537954 15.675864380243535 -2.439440820077661 0 0 0
1001 2 39.90104730169091 11.157007946363542 0.6008959842891901 0 0 0
1055 2 44.84804919785219 12.955708353259865 -2.0305347056799063 0 0 0
331 1 47.08882587824836 14.73912623556079 -2.3671638356236984 0 0 0
1901 2 48.7846924991467 15.181609935547087 -0.28269675670559646 0 0 0
273 2 47.45082945393558 12.304462951930152 -3.6921572745567377 0 0 0
280 2 47.3718350179188 12.274393826592224 -0.42186497963136604 0 0 0
1056 1 45.90249810749715 14.976978242342962 -0.18489052717323284 0 0 0
281 1 49.32112535646496 14.79329147897964 -3.505934026748189 -1 0 0
270 1 49.88429979134584 12.997711599417869 -1.5791885821355942 0 0 0
226 2 52.86226661754392 12.824406434093682 -1.7774622051608215 -1 0 0
334 1 51.18998077879064 15.291742607526722 -2.2050415541503208 0 0 0
389 1 53.6575985841678 15.5537092993086 -0.8772661886548194 0 0 0
1062 1 51.469155089532364 14.160209891756946 0.005957234854009563 0 0 0
10480 2 -2.68436756224912 17.793320351530305 -1.1904740819228605 0 0 1
399 2 0.08278709921926541 19.60621231749624 -1.6270045381820655 0 0 0
1128 1 -0.16532666636466242 16.796702272831045 -2.19260575323678 0 0 0
282 2 -2.311664111056322 20.90028230681709 -0.03715691077261596 0 0 0
1070 2 0.12563890285910695 17.395936251210493 0.5428476652124976 0 0 0
21273 2 44.5503412058566 49.988412902244235 -0.7076787798379298 0 0 1
288 2 2.5964022352566403 17.5109833851313 -1.4813536554151 0 0 0
1969 1 4.62915789344361 18.94477133499867 0.17405846083123855 0 0 0
1126 1 3.2243511663709024 19.933364675782393 -2.339211054188892 0 0 0
1858 1 5.299889441444943 17.192177516180237 -1.4724121041758633 0 0 0
10829 2 18.147117548323138 38.94942872420508 -3.848327076439902 0 0 1
403 2 5.8287400500552735 19.16529086550502 -3.2248960645200944 0 0 0
1129 1 8.252577261883735 17.368118904174842 -2.810215971690366 0 0 0
407 2 10.035387992598933 19.848785969263734 -2.3573922970667973 0 0 0
1189 2 7.492622840758727 19.31436186238534 -0.6609561324816706 0 0 0
352 2 10.152033517603078 17.109294300690095 -0.8240989535210912 0 0 0
1187 2 6.4811739819362515 16.55475897250448 0.8868136527016475 0 0 0
21212 1 37.42769639361343 49.8235692187349 -2.2887251303721006 0 0 1
1134 2 12.609482049137494 18.37215450893269 -2.633746296834185 0 0 0
410 1 13.00713175126874 17.05647827486988 0.010861129060550923 0 0 0
411 2 14.678919897341622 19.47695450658683 -0.7034015239218299 0 0 0
298 1 14.607611965094389 16.555594769349888 -2.0727014122945393 0 0 0
1138 2 17.913560710334213 20.054738892065007 -1.6980850624420323 0 0 0
1201 1 16.671367332903575 17.870624939012096 -2.470378316191581 0 0 0
1922 1 18.3165137050757 17.740360565113907 -0.34556268938267154 0 0 0
1144 2 19.743061085316008 17.43734017957387 -2.8252237251591614 0 0 0
471 1 19.42808056526995 19.988063220398757 0.6849683480523412 0 0 0
1141 2 15.600488606910364 16.739979782749046 0.48907514902312244 0 0 0
361 1 20.186614359637325 19.952785867192357 -3.6807786056773772 0 0 0
363 2 23.054535367138744 17.9257460408697 -3.4006629326553965 0 0 0
1149 1 23.447520613248265 18.487961447172722 -0.6755094750092754 0 0 0
417 2 21.302410194350916 20.005812347370295 -1.4667109065844048 0 0 0
1981 2 20.843527989285178 17.684399432981177 0.43123389614590657 0 0 0
1096 1 25.43821755230397 16.990324500754117 0.04613925861378654 0 0 0
1151 1 25.59968889705433 18.856274393120735 -2.1025003579800896 0 0 0
1205 2 27.947518266432763 18.162981305841605 -0.9090046181268008 0 0 0