LAMMPS data file via write_data, version 22 Dec 2022, timestep = 45000

6182 atoms
3 atom types

-1.0455334552252467 101.04553345520299 xlo xhi
-1.0455334552252467 101.04553345520299 ylo yhi
-0.1045533455218024 10.104553345524367 zlo zhi

Masses

1 26.982
2 24.32
3 65.39

Atoms # atomic

301 1 0.795266940185152 0.2181677282880441 4.576028817565891 0 0 0
388 1 0.8308908046678423 -0.2793495452986954 0.4155814242589172 0 0 1
73 1 2.981535389781647 2.1061866739665294 4.176535650537793 0 0 0
2715 1 2.661219469117752 -0.12664682478562683 2.4552418456715697 0 1 0
178 1 2.983480468154034 1.5065777591194136 0.1917775503999155 0 0 1
35 1 4.550239895548802 0.14192146665442684 4.407539392965505 0 0 0
392 1 5.202214556202201 1.522716394879276 1.9274115077501013 0 0 1
387 1 7.30787352017437 1.9199140105876968 3.7912992295870893 0 0 0
207 1 -0.8884405934247638 5.140919774784918 5.494778814708864 0 0 0
281 1 6.9984716017907616 1.1936490774419153 0.006771187690774186 0 0 0
372 1 -0.8506166341505845 5.673927654203141 9.279758108659156 0 0 0
187 1 9.154837550218517 1.1886354715534955 1.8995775209114178 0 0 0
358 1 8.854167127928717 -0.26169030504257385 4.2264665481253205 0 0 0
122 1 11.152503812898113 1.7244506071285404 4.020270571494298 0 0 0
288 1 11.069295343036174 0.5678398284728225 0.07099619662619758 0 0 1
2518 1 47.69168760545112 -0.9684113437413132 5.828336620328566 0 1 0
63 1 13.121628273459983 0.7818386038146177 2.0120061740504345 0 0 0
302 1 15.231048379032256 1.5007492503552404 3.76247741696609 0 0 1
217 1 15.27874675192309 2.880555479966389 1.2281365210720725 0 0 0
251 1 15.293530967322742 0.4609644485444948 -0.0490125346858165 0 0 1
2536 1 48.52750967113934 -0.5645391096224082 9.897264928239228 0 1 0
357 1 17.274596674623393 0.8444310272651232 1.8144126378794105 0 0 0
402 1 19.43698723214059 1.2429147280834423 3.5853854879704663 0 0 0
232 1 19.68624081443053 2.924114470619961 1.230029116731031 0 0 0
367 1 19.26858392481296 0.35749675145436455 9.923444980128004 0 0 0
368 1 6.861633148166433 -0.6747347553846201 2.359722583499008 0 0 0
205 1 21.214856415105693 0.5472395034757647 1.7513610530800887 0 0 0
389 1 23.200957932366546 0.5436411795155291 3.7169541692717165 0 0 0
398 1 23.8397916531335 2.48698096852857 1.1826211794116879 0 0 1
2542 2 23.586689470806178 0.21631405482515453 9.942891414490694 0 1 0
425 1 21.700398730368835 3.030981461392879 3.2159298684896296 0 0 0
423 1 25.08324909055976 0.04990874355679886 2.148325961873387 0 0 1
71 1 26.992666119791053 1.9669905026960923 1.5957712098987789 0 0 1
427 1 25.540966400943862 2.272482875094695 3.92321290635231 0 0 0
2651 1 27.15358079801015 0.13283567285853493 3.8679872185216286 0 1 1
2784 1 26.437237025662366 -0.22277108015101243 10.057345582851225 0 1 0
2685 1 28.800931988633916 0.08350330541258333 1.4466927691608291 0 1 1
420 1 29.275562394577477 1.7675993937327084 3.5490765941535445 0 0 0
135 1 31.135112666290652 -0.3628914855484989 3.166891615234404 0 0 1
18 1 30.962658639720992 1.7934068673651984 1.0503785180386263 0 0 1
2610 1 32.88392771377361 -0.70613864487271 0.8507291953244723 0 1 1
327 1 33.27707623947173 1.6206963734674842 2.4429548609511325 0 0 1
148 1 33.41540478893553 -0.5807461084885386 4.54206389454942 0 0 0
93 1 35.61511257865845 1.3527739100628535 4.051463589349931 0 0 0
338 1 34.880110805944454 1.5117935964650364 0.1899474182060265 0 0 1
2824 1 35.25923989578213 -0.605721308473838 2.2112883909730408 0 1 1
2694 1 36.667487951698114 -0.7020536951991926 9.967777554791635 0 1 0
195 1 37.33479507291592 1.438845073448273 1.5054666419952016 0 0 1
333 1 39.69817746391412 1.226282329122296 3.182962572835022 0 0 0
158 1 49.8866611256335 -0.8905287003087872 7.433044680149752 0 0 0
345 1 4.8383167124557405 -0.7132568464216267 0.5822024861686972 0 0 0
348 1 41.480421272566396 1.143924573924663 0.9475718999053884 0 0 1
290 1 43.91634768901289 0.42059951278401164 2.634658640010355 0 0 0
2730 1 45.15419750634351 0.5798123288330537 0.26843349965155017 0 1 0
329 1 44.395198897452325 2.691711311771189 4.5286195724160105 0 0 0
308 2 43.41231953919676 2.9387462800821114 0.6990578851687949 0 0 0
311 1 41.92791159052645 2.8524198659142836 2.8712811342243314 0 0 0
272 1 42.19546693323393 0.6514335643317526 4.760850906781601 0 0 0
295 1 45.84893926751467 2.439234498313045 2.120868579086567 0 0 0
325 1 46.15047737763867 0.4418488346610858 4.133135434538774 0 0 0
324 1 48.28876382922997 1.9804315732427353 3.8480819176411996 0 0 0
204 1 49.54701404451109 1.4774616522469959 1.7338434227510744 0 0 0
305 1 47.390821241255274 1.9509905505225666 -0.07541401913578127 0 0 0
147 1 37.60787597947461 -0.7261533382086095 3.6225311325339913 0 0 0
293 1 12.97388115179224 -0.8232657476878208 4.22709206773206 0 0 0
363 1 -0.8459060007587851 6.489481526654888 3.1042759464810907 0 0 0
319 1 1.224760744716666 4.258264882876819 3.3993418565031757 0 0 0
65 2 1.134582768101375 6.003995620547068 1.0913362072324124 0 0 0
360 1 3.1755790210900985 3.7703857463441324 1.6167202794918074 0 0 0
47 1 3.3063531396972827 6.2481734527221695 3.1736908798792083 0 0 0
17 1 5.202283616363451 3.904996470195684 3.515904982944331 0 0 0
51 1 5.246362297074102 5.64468770274517 1.3191104978693475 0 0 1
262 1 7.151699345726721 3.4871715044447837 1.5862376597478933 0 0 1
296 1 7.417320562637551 5.713308882130243 3.2125158128716027 0 0 0
414 1 5.190635404309823 6.507562435521579 5.032289667179189 0 0 0
12 1 11.466742853232176 3.1882534164247893 1.6802465353683564 0 0 0
369 1 9.598268722499023 5.477012513125939 1.2621580964808945 0 0 0
361 1 9.409683469481196 3.803380811258376 3.554575134876475 0 0 0
332 1 11.550439905493642 5.682828699393445 3.049296633285518 0 0 0
188 1 7.476794408484194 7.4837598560303125 0.5834915005473804 0 0 1
37 1 13.557421445439221 3.641845060313732 3.379645094400699 0 0 0
220 1 13.773244157422308 5.0695960507507145 1.0451845299658227 0 0 0
431 1 15.779245655825054 5.445007898069185 2.7513648514838667 0 0 0
413 1 15.854055284377708 6.904234045485283 0.6827506883597673 0 0 0
94 1 17.544231109558563 3.3092457099957118 3.1021613973778583 0 0 0
587 1 17.87212878139096 5.1553367592597015 0.6643997938864846 0 0 1
435 1 19.904006753457022 5.301761284027701 2.815487325603322 0 0 0
585 1 20.170199921932866 6.9094778214186885 0.4079296082030536 0 0 1
439 1 24.191011012877805 4.6799429677456565 2.549174275916001 0 0 0
590 1 21.923923142877335 4.782940125916216 0.7291910717955514 0 0 1
436 1 22.49695617231326 7.231635883350609 2.1891697428139145 0 0 0
437 1 21.939788975991533 5.387060517171829 4.606726307186685 0 0 0
568 1 24.546970117288822 6.548990944657957 0.58888403200376 0 0 1
443 1 27.848291518925674 3.9967694280378057 4.0175235409955645 0 0 0
589 1 26.078629029354005 4.1648851056054275 0.36764529279223984 0 0 1
440 1 27.09147616864787 6.10819073408629 1.9876112752566955 0 0 0
441 1 25.62698629525363 5.510650875481955 4.516972158875769 0 0 0
564 1 28.82638126889885 6.301870189068631 9.542259055296299 0 0 0
588 1 28.964700126693756 4.213296408686111 1.332853191369161 0 0 1
429 1 31.24128599915587 3.8817252769758603 2.9208504052639745 0 0 0
444 1 29.51453993056568 6.189781909057113 3.3622655649079323 0 0 0
533 1 31.166654882316152 5.797363883429171 0.9002481612906705 0 0 1
259 1 33.10089175082566 3.8329049477128656 0.5547903244026933 0 0 1
447 1 33.65308718600908 5.592690065227354 2.623179566008013 0 0 0
26 1 33.803699036547414 3.4805094814194 4.467953863049458 0 0 0
351 1 35.3285053195706 3.3778974736658354 2.2322662441279375 0 0 0
334 1 36.085638203233366 5.311463173828864 4.0014468362292375 0 0 0
502 2 35.17202901340187 5.648450628365585 0.09567543594551545 0 0 1
303 1 36.9079611425096 3.376569474619343 9.922789127823371 0 0 0
223 1 39.620937168530034 3.049536927787318 1.1822907438942627 0 0 1
322 1 37.586014863784264 5.416036660665237 1.7933985128005459 0 0 0
378 1 37.93757942670421 3.272228303428098 3.573623504830186 0 0 0
337 1 40.086656629598544 4.994495822332228 3.371955732680304 0 0 0
170 1 41.728473150327126 4.852236781511313 0.9089728633493626 0 0 1
265 1 44.067750840327356 4.665650184489286 2.633209068446548 0 0 0
152 1 44.63681814103043 6.669275676731979 4.622316618504416 0 0 0
266 1 44.07860838853188 6.711848151183324 0.644781905654897 0 0 0
264 1 42.38073853038537 6.788852676794936 2.9782680220045923 0 0 0
263 1 45.71671147196317 4.457766668065111 0.3527125333403699 0 0 0
318 1 42.44386296041335 4.9758245441363265 4.979158578373271 0 0 0
254 1 46.40831487573519 6.483398117685742 2.471760471468472 0 0 0
146 1 46.71693536959464 4.25677491249212 4.240429388546787 0 0 0
257 2 48.24878083820965 3.9386964550767534 1.8183077031735482 0 0 0
144 1 48.78238504260996 5.980091243572585 4.036535519216923 0 0 0
258 1 48.09165313421032 5.906208793285126 0.08450361968695538 0 0 0
156 1 -0.6718836445463328 9.130065432497599 4.591874978781804 0 0 0
304 1 1.2370046196661533 8.317736677655159 2.8325160333652497 0 0 0
347 1 1.6302118450242618 10.652796948612307 4.161322168939389 0 0 0
346 1 1.5654503404097917 10.02101488199219 0.12767966537858946 0 0 0
5 1 -0.4369437048714643 10.716977333278495 2.3185573263205383 0 0 0
176 1 -0.6393523783614274 8.331118445020262 0.6237576540105552 0 0 0
354 1 3.439128822384032 7.781814755568028 0.6636037192959034 0 0 0
261 1 3.440623074114664 8.776428620480862 4.580531090157682 0 0 0
76 1 3.533233972690808 10.185701487953239 2.260406826377089 0 0 0
408 1 5.558388309400862 8.111305583175026 2.661557547423641 0 0 0
422 1 5.569222280181126 9.609759086858451 0.4490188940508346 0 0 0
307 1 5.9615756938766 10.533210362110738 4.098572494011127 0 0 0
62 1 7.640944973843245 8.442734578586393 4.493161355719636 0 0 0
172 1 7.839992956606091 10.026188803270774 2.2010336704820683 0 0 0
23 1 9.695957075908263 7.863684707851133 2.5933165832947056 0 0 0
103 1 9.820456476859874 9.57702463892587 0.21267800442311463 0 0 1
151 2 9.790519265739784 10.137222252736757 4.210038195521222 0 0 0
271 1 11.622886398624004 7.392151112039402 0.6682375116947703 0 0 0
199 1 11.836877798492926 9.59586226552153 2.126638415061079 0 0 0
416 1 13.613920874894056 7.365124897737957 2.5540646982969455 0 0 0
186 1 13.813026967213386 8.797686713394429 0.17955201691297518 0 0 1
451 2 13.79890171900105 9.987971658294082 4.1175349993827925 0 0 0
434 1 15.873812539166902 7.893521946608731 4.348776473134086 0 0 0
38 1 12.075136373692247 11.379745206776663 10.092857924120814 0 0 0
432 1 18.08332509510162 7.434623037064455 2.3949421200465113 0 0 0
452 1 15.767962342062116 9.330347075856793 2.059153638764551 0 0 0
586 1 18.062120239035632 8.735266389833516 0.02559993998239901 0 0 1
454 1 18.089678460893712 9.62314228154297 4.142572460371128 0 0 0
438 1 19.885720769159093 7.546983035399819 4.498999379832526 0 0 0
499 1 16.237638029988286 10.835309200694 10.002558375043304 0 0 0
456 1 20.365179261852315 9.089772459858407 2.2059873510866184 0 0 0
453 1 18.368593059486894 11.374162621863487 1.6485296330914172 0 0 0
442 1 23.981729794441517 7.543136276517275 4.3600232954842815 0 0 0
497 1 20.29595604946219 10.843901463491552 9.92042507918953 0 0 0
570 1 22.52657710171093 8.866370925277652 -0.054426378647667695 0 0 1
458 1 22.455019485593976 9.612609527254907 3.929443621810427 0 0 0
457 1 22.586409155172067 11.009476221056062 1.6989746018195415 0 0 0
463 1 24.90218071641731 11.193566856775256 3.1288045924681485 0 0 0
460 1 25.335887815820627 8.617139627086704 2.0287854314157863 0 0 0
480 1 24.822177319783055 10.435137219304586 -0.04023231435501451 0 0 1
566 2 26.767090825817327 8.258072984557474 9.772459596154931 0 0 0
462 1 27.62837123271747 8.354853343569149 3.637895180035882 0 0 0
461 1 27.24823335219707 10.42687250023574 1.4673998521798934 0 0 0
467 1 29.780409644149707 10.058788779352836 3.377439016474635 0 0 0
464 1 29.312183117592724 8.201887098566408 1.0976792001999012 0 0 0
468 1 31.68288435703891 7.998185657741548 2.843122871401079 0 0 0
465 1 31.679579364785788 9.91072991783119 0.8555380075553656 0 0 0
537 1 33.28460055733478 7.6751746609441085 0.5404141686802185 0 0 1
448 1 35.87048288699661 7.403102510720405 2.1148184438012865 0 0 0
469 1 34.16434815933973 9.611868093245786 2.4178216269397597 0 0 0
472 1 36.39910026309037 9.682428093046292 4.043527244808175 0 0 0
470 1 34.07190434343076 7.616019606086478 4.437112833167025 0 0 0
501 1 35.80194261921942 9.533096248598875 0.2694309347641509 0 0 1
317 1 38.166228680045336 7.247190456838055 3.725882798118328 0 0 0
321 1 39.88493254029416 7.115448878433117 1.273095382302032 0 0 0
278 1 38.40157780601305 9.33071942079684 1.7383916357198206 0 0 0
244 1 40.58775190425933 8.921901000280567 3.2249847397779767 0 0 0
221 1 38.790412507607606 11.151600022180642 3.775393984616819 0 0 0
245 1 40.571693072898476 11.014113526070673 1.3505238390362253 0 0 0
243 1 42.476547397619306 8.951105647295702 1.1505022994202463 0 0 0
240 1 44.745797689406864 8.55592850218677 2.4923629154964693 0 0 0
242 1 44.624430555556806 10.651483427650005 0.5920592313511419 0 0 0
124 1 45.51081186751693 10.755911200352433 4.654167785455917 0 0 0
237 1 43.117856411492596 10.852496023076059 3.2317440716108248 0 0 0
127 1 42.788989442443146 8.837787666759489 4.93498275625968 0 0 0
235 1 46.51751319548227 8.156688083343589 0.20325608499456388 0 0 0
226 1 48.66069113444481 7.944159600529396 1.8081132055480533 0 0 0
222 1 46.99783227993576 10.315302502640696 2.2125062327004974 0 0 0
117 1 47.009659156997145 8.301535426327836 4.299823554299156 0 0 0
116 1 49.370102741574925 9.953757736439814 3.7846888640795617 0 0 0
330 1 1.7848033096282285 12.459524806763222 1.6471393368973932 0 0 0
316 1 -0.16095532477690233 14.535688052920216 1.419180835344347 0 0 0
30 1 -0.2737460574618463 13.008073404343277 3.871898312937188 0 0 0
412 1 2.1004031387179904 14.63639442308236 3.6113198841493093 0 0 0
3439 1 -0.25894356636331917 12.155363878128757 10.05927132115602 1 0 -1
83 1 4.023802032392361 12.417892310233597 3.886240101547035 0 0 0
260 1 6.0634264320520925 11.976027977738294 1.792514445636248 0 0 1
6 1 6.098463986635009 14.25674215761359 3.497292074857977 0 0 0
212 1 4.044265109055097 14.129155291054325 1.2930888175335735 0 0 1
143 2 3.748902915752276 11.658573820286904 10.088555857510652 0 0 -1
365 1 8.127653850862151 13.680900642027932 1.3818618400802987 0 0 0
359 2 10.071368737263 11.741645757529653 1.7235040529058034 0 0 1
183 1 10.415512104220786 14.153029599492227 3.52651338630232 0 0 0
125 1 7.978864864785528 12.232459305220347 3.8917720873053727 0 0 0
312 1 7.909641795740194 11.480550309903848 -0.09611190312726747 0 0 0
138 1 12.06147864625627 12.07014828778048 3.782183667388943 0 0 0
474 1 14.053305046782482 14.040409884253009 3.4458200514574706 0 0 0
450 1 14.289696694790232 11.555426217313777 1.7168939157607908 0 0 0
601 1 12.298210364563497 13.865290331663855 1.4559181359515636 0 0 0
455 1 16.266475187628913 11.843949515916284 3.552468465897286 0 0 0
604 2 16.3033376540559 13.545382854780563 1.4561621779272038 0 0 0
477 1 18.272043200950304 13.663773120252152 3.488472035436487 0 0 0
459 1 20.256325168220563 11.606722692155548 3.6432181858458312 0 0 0
479 1 20.54220271645331 13.117050137006727 1.544170308392228 0 0 0
481 1 22.53334626052232 13.608399304191526 3.2092163597439143 0 0 0
607 1 22.751923544294797 14.87337609374858 0.8051238061970661 0 0 0
483 1 25.238510659032563 13.217365940287262 1.037937902316482 0 0 0
484 1 27.96272412439326 14.560434846917088 1.6540065288405081 0 0 0
485 1 28.02650927583089 12.26387218207509 3.2094553672481325 0 0 0
572 1 26.893696649825326 14.823594940404952 4.3856761912171125 0 0 0
486 1 24.46112435906428 15.383366337989415 3.051170553765291 0 0 0
490 1 30.452172672644245 14.30116867132933 3.2132809545923933 0 0 0
487 1 29.664805834433885 12.283278761123626 0.9558851783759184 0 0 0
489 1 32.283730883771874 11.927959219557868 2.7515977851384954 0 0 0
488 1 32.15212981569736 14.143596600577848 0.769436706662951 0 0 0
579 1 32.91685198774052 13.624826497240322 4.908981986013722 0 0 0
491 1 33.84529945524735 11.679576953424483 0.5712832559460017 0 0 0
494 1 34.49461185319949 13.711388282626478 2.6405302767295846 0 0 0
493 1 36.44733556687926 11.590484261685992 2.0541862349934177 0 0 0
495 1 36.07805509406519 13.547319272757587 0.36112868370461243 0 0 0
557 1 34.75712154571623 11.485427208396464 4.51127976056859 0 0 0
496 1 37.045021966970765 13.522245076012506 4.02864706505435 0 0 0
218 1 41.05223314245708 13.056946401207275 3.1776025251887945 0 0 0
13 1 38.64908646733928 13.100021589370687 1.7272750374892278 0 0 1
219 1 40.99144066004313 14.974185890027776 1.311173762792927 0 0 0
214 1 39.214453774443506 15.161994673434378 3.8794198850044608 0 0 0
213 1 42.830902667365834 12.928013348278313 0.9136039167365309 0 0 0
200 1 45.2519197752281 12.575041657035463 2.6247784275443187 0 0 0
206 1 45.16666839537635 14.70068918009927 0.7507645949744229 0 0 0
197 1 43.445204128797386 14.774017632851363 3.1329299562421413 0 0 0
79 1 46.35000744040396 16.469984322805985 6.533389190975613 0 0 0
106 1 46.009057691352204 14.269340932497014 4.6209137991900695 0 0 0
191 1 49.36140529701811 11.860031616457842 1.6722254844626407 0 0 0
194 1 47.06425836029263 12.252929724570851 0.1908836998861948 0 0 0
190 1 47.680485710023866 14.561209029144363 2.144377662670501 0 0 0
101 2 47.78314975995764 12.155377591485829 4.084752250839727 0 0 0
315 1 2.0369979822206337 16.25502982932328 1.0206946277393132 0 0 0
59 1 0.08936037197994673 16.66366214720113 3.156369165612135 0 0 0
210 1 2.2389107074473644 18.43459834287626 2.569122361064277 0 0 0
421 1 0.19233075512399722 18.45912401723905 0.794085129016682 0 0 0
475 1 12.421727554517442 19.024435841965687 8.566450145627941 0 0 0
401 1 4.070992560575621 16.503989323171993 2.857301159919271 0 0 0
97 1 4.043406500844625 18.270410158683756 0.6261751587734873 0 0 1
381 1 6.3548735560284415 15.845149554259699 1.1231953668982908 0 0 1
22 1 6.329212102238593 18.474089439802622 2.6637224376970394 0 0 0
171 1 6.161919988288679 17.14770804244994 4.886479459364438 0 0 0
185 1 4.088512402134216 18.87532348707045 4.685979375766754 0 0 0
139 1 8.51461159356005 17.98943571066648 0.8262390185072396 0 0 0
225 1 8.319592060980264 16.205649009369004 2.934423477533815 0 0 0
610 1 10.323786366589161 15.728433706403123 1.1427588711567056 0 0 0
626 1 8.41870409371279 18.56785520401436 4.497597096596588 0 0 0
618 1 10.3632154582005 16.462638911616228 4.714909438609065 0 0 0
602 1 14.302245182375318 15.570406427814948 1.0213247069462714 0 0 0
612 1 14.520654902759015 17.886774532923663 2.655534556441962 0 0 0
611 2 12.591949960404078 17.542496175065192 0.6177850514408135 0 0 0
628 1 12.655787897015234 18.414602717603806 4.460481078752174 0 0 0
605 1 18.648638047474897 15.279061803206172 1.0616173823574862 0 0 0
606 1 16.403540261883897 15.675535297163275 2.8888462037492575 0 0 0
613 2 16.671550962583066 17.47962833419407 0.7988238480884016 0 0 0
614 1 18.851804854694013 17.577009036468905 2.594775051568441 0 0 0
630 1 16.71992148712703 18.25120414713745 4.705728344345104 0 0 0
622 1 18.469012748566392 16.029576755975192 4.92851136880763 0 0 0
608 1 20.790518981831962 15.605631135739923 2.8710496736244533 0 0 0
615 1 20.74259429231627 17.07269134154382 0.6498358206870618 0 0 0
616 1 22.71979244091972 17.4641352030957 2.4300713076964633 0 0 0
1016 1 23.049299645371732 19.132068205058193 0.14146017175938674 0 0 0
632 1 20.63321042280698 18.032975714723364 4.628713577327948 0 0 0
624 2 22.681350295986284 15.816916004300012 4.776729702579166 0 0 0
3289 2 -1.0397419239252705 2.566087823364086 3.975966037769682 1 0 0
617 1 24.89577593527011 17.11186052568312 0.5957707283223415 0 0 0
504 1 26.483773820779206 16.86604601371937 2.481733192302303 0 0 0
276 1 39.29055658270508 -0.7638356918714706 1.3080388975184565 0 0 0
634 1 24.881621527772644 17.5073319716507 4.428620145564525 0 0 0
593 1 29.061276481165756 16.51144065702769 3.423517797555664 0 0 0
505 1 30.352151215864318 16.265677474039403 1.1103248679541915 0 0 0
508 1 28.763210503843833 18.83636425006258 1.670502614267483 0 0 0
594 1 31.18176901461466 18.35186551377718 3.201109051876184 0 0 0
506 1 32.750787548585116 18.304234395791973 0.9281250107334638 0 0 0
507 1 32.79461394031658 16.075917599249056 2.9560893379115085 0 0 0
492 1 37.11811199381761 15.388462472043546 2.2251323956668223 0 0 0
509 1 34.43011421494784 15.830085327502825 0.5552844865222851 0 0 0
512 2 35.07811934412908 17.884195437877622 2.6570496535723205 0 0 0
580 2 35.25894216447627 15.654200534373423 4.63508824148094 0 0 0
510 3 36.617958053095336 17.467912637689217 0.41499990741557125 0 0 0
597 1 33.47638123752634 18.029820733238992 4.903224716083613 0 0 0
511 1 37.68911470976668 17.386209407128923 4.080557860137706 0 0 0
289 1 39.460371756300624 17.09448604368216 1.7198242621038577 0 0 0
1198 1 28.19689203778949 19.113082402218833 8.03409625385318 0 0 0
181 2 41.627292288239865 16.891515361481503 3.3700250050942113 0 0 0
177 1 43.38439927245136 16.7232030978931 1.1129089110647064 0 0 0
157 1 44.10510833019827 18.934762307349292 3.2929890941286026 0 0 0
41 1 48.8359414836993 -0.6782685697212659 3.3741687987875215 0 0 0
8 1 47.23145555444792 18.266845083250097 8.573142049485739 0 0 0
165 1 45.48018315655021 18.64979708317336 0.8278896360576963 0 0 0
161 1 45.7862060322567 16.659326017832317 2.711299750691755 0 0 0
155 1 47.23683146310814 16.28969352486543 0.13537442293820917 0 0 0
153 1 47.98873814375963 18.15658309734507 2.089792558651001 0 0 0
74 1 48.113017299786534 16.42974190356931 4.252150443064396 0 0 0
82 1 46.42119241302144 18.4797589530276 4.628145269929885 0 0 0
300 2 0.9513927401577127 1.3106125924398602 8.439572854552484 0 0 0
391 1 2.765576113339007 0.7701017315904821 6.58006926874164 0 0 0
3384 1 0.8216897279659123 2.8052004456678183 5.768763585540112 1 0 0
355 1 3.153468400653 3.039983225164468 8.006688090543589 0 0 0
3 1 5.092268824824483 2.575193674315607 5.764188247173963 0 0 0
2478 1 4.980654678834672 0.882576724210911 8.26962328549535 0 1 0
328 1 6.987022708284348 0.13096236477133472 6.2983349086713885 0 0 0
140 2 7.48443645360512 2.717783119545249 7.857652489169842 0 0 0
356 1 8.945201400659872 0.25501108919092164 8.27274178012904 0 0 0
292 1 9.237730475190219 2.174450640032467 5.865266370636055 0 0 0
291 1 11.403207745456582 2.3804957172095484 7.712648373448358 0 0 0
256 1 11.156542282799068 -0.026228243537033347 6.298895577575475 0 0 0
371 1 13.19044518788719 2.740388219695518 9.614842518337305 0 0 0
373 1 12.885453599038339 0.12723702122754887 8.374608680076458 0 0 0
341 1 13.171108486832265 1.7654547507248255 5.653194094088906 0 0 0
384 1 14.966965627576638 -0.36758085546230834 6.146003011329388 0 0 0
349 1 15.351576763951627 2.091381561661975 7.751120662423223 0 0 0
102 1 17.64378869425545 2.5458020957415273 9.362016922256002 0 0 0
326 2 16.999679598668575 -0.043565130579604316 8.128563443969982 0 0 0
224 1 19.44844624643625 1.9395749253435475 7.421570163257429 0 0 0
370 1 17.461346493020415 1.9368413011232657 5.5639364987146935 0 0 0
239 1 19.05471361958496 -0.45392343846226535 6.309753778904437 0 0 0
142 2 21.511540801855645 2.1236985546349523 9.412718122364703 0 0 0
39 1 21.49033133575697 1.3770188108093047 5.572735720269585 0 0 0
340 1 23.436043597218976 1.6304235617779335 7.568885113900084 0 0 0
407 1 21.256066118750276 -0.07529823248158174 8.060610442638646 0 0 0
518 1 25.895521778020296 2.0709984655074805 8.767470632618803 0 0 0
21 1 25.323561229554652 0.35271401781061384 6.043607817700064 0 0 0
2579 1 28.03206076004413 -0.11016377701094648 7.717427462845533 0 1 0
430 1 27.70419800929644 2.283192927891289 5.9319175039138266 0 0 0
2676 1 28.421765519330414 2.2192009291490056 9.629284592701783 0 1 0
34 1 31.78662751113322 1.689781608603619 4.8649093091144175 0 0 0
2801 1 29.626389517520952 -0.09670585252911368 5.443877277191607 0 1 0
2613 1 31.881393770971457 -0.4163409726394678 6.946207476402414 0 1 0
2589 1 29.997604054988415 1.9254378260841394 7.556302118418145 0 1 1
198 1 32.41805980389839 1.5651312833465227 8.901874054705784 0 0 0
203 1 30.286586816387306 -0.28158399018871505 9.467538523909207 0 0 0
386 1 34.402187304473394 -0.42035536969812215 8.531580219539729 0 0 0
159 1 36.459747401526485 1.3778475501519405 8.030061605987228 0 0 0
410 1 34.02731534219483 1.4606325248573384 6.55002277848304 0 0 0
2893 2 36.001921221696584 -0.877612777642511 5.908332028723434 0 1 0
352 1 38.11706303604688 1.1468613562360992 5.515457731963864 0 0 0
48 1 38.98425538248932 1.0100172302102473 9.541581397073948 0 0 0
310 1 40.55678094589266 0.9993828205671322 7.286730812102541 0 0 0
287 1 40.97911818636212 3.0953239033019617 9.228645823611858 0 0 0
275 1 38.640974722978676 3.094291208210036 7.6658159190395345 0 0 0
70 1 49.07067207676952 18.02139179213167 6.140973522611928 0 0 0
3578 1 49.80407534344069 17.86829144136512 9.941322633689678 0 0 -1
166 2 43.00545546142803 0.6777359896395037 8.827974815934835 0 0 0
29 1 44.43379411024125 0.5577000264125529 6.326161772974451 0 0 0
150 3 45.09925366227707 2.8131135336034694 8.42802874178728 0 0 0
273 1 42.685388586447644 2.6288420037044418 6.661495546374843 0 0 0
182 1 41.85746265980513 18.903603270876076 1.5232275553840342 0 0 0
403 1 47.01062068295511 2.1542210769704147 6.189307203665362 0 0 0
40 1 49.026017234908466 1.580281995918733 7.897110742533457 0 0 -1
160 1 46.62584887139776 0.30147494744680703 8.028828947241832 0 0 0
294 1 0.9393578421515123 3.6938155742559067 10.101421242914936 0 0 0
400 1 1.4191705379574158 6.890068222157756 4.902265034370025 0 0 0
382 1 1.3353488427274374 5.291273325033608 7.461823770040058 0 0 0
202 1 3.3559599125624535 4.565280751714453 5.332199324673413 0 0 0
306 1 3.294167723815482 5.32440826219994 9.327907911296085 0 0 0
10 1 5.162717152515583 3.3651595248975177 9.892235748592833 0 0 0
248 1 5.1955409821351575 4.973282517809209 7.485099118654604 0 0 0
137 1 7.409272486034686 4.344150466900033 5.566581180450809 0 0 0
342 2 7.410546005815725 5.06643671760308 9.522863608158874 0 0 0
89 1 3.2494752399901827 6.938927356989246 6.961214184080279 0 0 0
130 1 9.260736131931804 2.8900656570647403 9.836317287686217 0 0 0
418 1 7.524753716482161 6.526052588843767 7.06221798381826 0 0 0
98 2 9.687931259478765 6.072017754540379 4.988561013268966 0 0 0
55 1 9.571693451594777 4.686924230121467 7.427999546016386 0 0 0
395 2 11.485540854772651 4.078095438830451 5.347548217380338 0 0 0
169 2 11.526348702172982 4.797810674555896 9.439218033585384 0 0 0
136 1 11.718849713792515 6.34328076520911 6.932002822919783 0 0 0
399 2 13.532450008696138 5.875995618808461 4.9444607499617215 0 0 0
277 1 13.561805191861303 4.262928268071314 7.368190791975751 0 0 0
129 1 13.491637600631028 6.5235934130543045 8.865940292461051 0 0 0
519 1 15.5568728804848 4.053999312227997 5.33802283457682 0 0 0
2 1 15.518016805084734 4.599737921320378 9.222006559501672 0 0 0
246 1 15.950370387437243 6.532209732715076 6.570611507123997 0 0 0
433 1 17.655195674397728 5.733266718656099 4.428370299010321 0 0 0
514 1 19.829736808510557 4.406213319658077 9.029815306427079 0 0 0
521 1 17.66688990969602 4.256271825340984 7.1915679361022145 0 0 0
426 1 19.689832024022 3.9330754362586555 5.080657765175699 0 0 0
523 1 19.92138789937884 6.233381773529514 6.848184600769787 0 0 0
428 1 23.583987433045667 3.2131182535677105 5.315362778614344 0 0 0
516 1 23.908506253909973 4.236327007779782 8.998373958012023 0 0 0
513 1 21.558311152347898 3.885792665116351 7.146780319451335 0 0 0
525 1 22.196811461709625 6.338145197394733 8.645437386544243 0 0 0
527 1 23.814539667559846 5.823159716634312 6.528680399007064 0 0 0
515 1 25.69115541114243 3.883807217903483 6.741232813607432 0 0 0
446 1 27.768929987768345 6.051467945284191 5.917909212667018 0 0 0
529 1 26.147307171252702 6.101486574792496 8.147890891536635 0 0 0
531 2 28.307384850290557 4.248330809494234 7.687149765946971 0 0 0
449 1 31.9275173830494 5.689242693872937 4.912707119381604 0 0 0
234 1 32.44482027123749 3.600078838222042 6.92912887044664 0 0 0
445 1 29.94343978959361 3.7899761706972113 5.449398174190547 0 0 0
517 1 30.574854545827325 3.923790357887648 9.212505630178761 0 0 0
532 1 30.293715070010535 6.021649722494402 7.270011645505055 0 0 0
535 1 32.78518172281464 5.69773487398438 8.726858038025537 0 0 0
229 1 34.56453041946147 5.555757021701669 6.3967903049031385 0 0 0
331 1 36.26819531693858 3.2853353471874334 6.045472428098963 0 0 0
339 1 34.648010562032425 3.3197677127727916 8.679027832208007 0 0 0
269 1 36.887906071530175 5.3496250128489775 7.982809066310502 0 0 0
279 2 36.843194366146996 7.154293375511857 6.095096018265536 0 0 0
33 1 40.39021355386073 2.898510253842197 5.333690833637426 0 0 0
236 1 39.11644579162955 5.239710079169986 9.74541508995125 0 0 0
267 1 38.54864663667582 5.182124466037871 5.6551294537307655 0 0 0
282 1 40.88418480572726 4.908248765101433 7.262995321292046 0 0 0
280 1 40.57550692464376 6.9750362444473115 5.244812004476434 0 0 0
283 1 39.06453676783912 7.413560664373726 7.6006331029833865 0 0 0
314 1 43.30119951172904 4.907341930230123 8.935842563438854 0 0 -1
284 1 45.02503090436358 4.633752002224469 6.402306533020948 0 0 0
68 1 45.64063444715864 6.448759600973963 8.510829948923947 0 0 0
149 1 43.18640169886764 6.677897369350919 7.270300472581036 0 0 0
173 1 41.543563297617716 7.071993296281365 9.359541795625546 0 0 0
250 1 49.739346709856655 3.6692556411926587 9.833293733192574 0 0 -1
61 1 47.46030475662945 4.282873937573927 8.248476433835092 0 0 0
134 1 47.337639489388415 6.330216209992028 6.257086590673414 0 0 0
141 1 48.79662370889883 4.00801379565212 6.036819874701124 0 0 0